 Entering Gaussian System, Link 0=g09
 Input=dmad_ma_freq.com
 Output=dmad_ma_freq.log
 Initial command:
 /apps/applications/gaussian/G09.D01/2/default/g09/l1.exe "/nobackup/pmmass/Temp/Gau-210746.inp" -scrdir="/nobackup/pmmass/Temp/"
 Entering Link 1 = /apps/applications/gaussian/G09.D01/2/default/g09/l1.exe PID=    210747.
  
 Copyright (c) 1988,1990,1992,1993,1995,1998,2003,2009,2013,
            Gaussian, Inc.  All Rights Reserved.
  
 This is part of the Gaussian(R) 09 program.  It is based on
 the Gaussian(R) 03 system (copyright 2003, Gaussian, Inc.),
 the Gaussian(R) 98 system (copyright 1998, Gaussian, Inc.),
 the Gaussian(R) 94 system (copyright 1995, Gaussian, Inc.),
 the Gaussian 92(TM) system (copyright 1992, Gaussian, Inc.),
 the Gaussian 90(TM) system (copyright 1990, Gaussian, Inc.),
 the Gaussian 88(TM) system (copyright 1988, Gaussian, Inc.),
 the Gaussian 86(TM) system (copyright 1986, Carnegie Mellon
 University), and the Gaussian 82(TM) system (copyright 1983,
 Carnegie Mellon University). Gaussian is a federally registered
 trademark of Gaussian, Inc.
  
 This software contains proprietary and confidential information,
 including trade secrets, belonging to Gaussian, Inc.
  
 This software is provided under written license and may be
 used, copied, transmitted, or stored only in accord with that
 written license.
  
 The following legend is applicable only to US Government
 contracts under FAR:
  
                    RESTRICTED RIGHTS LEGEND
  
 Use, reproduction and disclosure by the US Government is
 subject to restrictions as set forth in subparagraphs (a)
 and (c) of the Commercial Computer Software - Restricted
 Rights clause in FAR 52.227-19.
  
 Gaussian, Inc.
 340 Quinnipiac St., Bldg. 40, Wallingford CT 06492
  
  
 ---------------------------------------------------------------
 Warning -- This program may not be used in any manner that
 competes with the business of Gaussian, Inc. or will provide
 assistance to any competitor of Gaussian, Inc.  The licensee
 of this program is prohibited from giving any competitor of
 Gaussian, Inc. access to this program.  By using this program,
 the user acknowledges that Gaussian, Inc. is engaged in the
 business of creating and licensing software in the field of
 computational chemistry and represents and warrants to the
 licensee that it is not a competitor of Gaussian, Inc. and that
 it will not use this program in any manner prohibited above.
 ---------------------------------------------------------------
  

 Cite this work as:
 Gaussian 09, Revision D.01,
 M. J. Frisch, G. W. Trucks, H. B. Schlegel, G. E. Scuseria, 
 M. A. Robb, J. R. Cheeseman, G. Scalmani, V. Barone, B. Mennucci, 
 G. A. Petersson, H. Nakatsuji, M. Caricato, X. Li, H. P. Hratchian, 
 A. F. Izmaylov, J. Bloino, G. Zheng, J. L. Sonnenberg, M. Hada, 
 M. Ehara, K. Toyota, R. Fukuda, J. Hasegawa, M. Ishida, T. Nakajima, 
 Y. Honda, O. Kitao, H. Nakai, T. Vreven, J. A. Montgomery, Jr., 
 J. E. Peralta, F. Ogliaro, M. Bearpark, J. J. Heyd, E. Brothers, 
 K. N. Kudin, V. N. Staroverov, T. Keith, R. Kobayashi, J. Normand, 
 K. Raghavachari, A. Rendell, J. C. Burant, S. S. Iyengar, J. Tomasi, 
 M. Cossi, N. Rega, J. M. Millam, M. Klene, J. E. Knox, J. B. Cross, 
 V. Bakken, C. Adamo, J. Jaramillo, R. Gomperts, R. E. Stratmann, 
 O. Yazyev, A. J. Austin, R. Cammi, C. Pomelli, J. W. Ochterski, 
 R. L. Martin, K. Morokuma, V. G. Zakrzewski, G. A. Voth, 
 P. Salvador, J. J. Dannenberg, S. Dapprich, A. D. Daniels, 
 O. Farkas, J. B. Foresman, J. V. Ortiz, J. Cioslowski, 
 and D. J. Fox, Gaussian, Inc., Wallingford CT, 2013.
 
 ******************************************
 Gaussian 09:  ES64L-G09RevD.01 24-Apr-2013
                 9-Feb-2022 
 ******************************************
 %nprocshared=8
 Will use up to    8 processors via shared memory.
 %mem=4GB
 %NoSave
 %chk="dmad_ma_freq.chk"
 --------------------------------------------
 #n wB97XD/Gen scrf(smd,solvent=toluene) freq
 --------------------------------------------
 1/10=4,30=1,38=1/1,3;
 2/12=2,17=6,18=5,40=1/2;
 3/5=7,11=2,16=1,25=1,30=1,70=32201,71=2,72=13,74=-58,140=1/1,2,3;
 4//1;
 5/5=2,38=5,53=13,98=1/2;
 8/6=4,10=90,11=11/1;
 11/6=1,8=1,9=11,15=111,16=1/1,2,10;
 10/6=1/2;
 6/7=2,8=2,9=2,10=2,18=1,28=1/1;
 7/8=1,10=1,25=1/1,2,3,16;
 1/10=4,30=1/3;
 99//99;
 ---------------------------------
 dmad cycloaddition toluene - freq
 ---------------------------------
 Symbolic Z-matrix:
 Charge =  0 Multiplicity = 1
 N                     0.36156   0.31138  -0.49443 
 N                    -0.36157   0.31143   0.49444 
 C                     1.7658    0.36508  -0.17093 
 C                    -1.76581   0.36509   0.17095 
 O                    -2.35821   1.40002   0.13332 
 O                     2.35819   1.40002  -0.13335 
 O                    -2.23902  -0.85205   0.03705 
 O                     2.23903  -0.85205  -0.03702 
 C                     3.65595  -0.95857   0.17259 
 H                     3.85416  -2.02146   0.27544 
 H                     4.19322  -0.55176  -0.68336 
 H                     3.94451  -0.42935   1.07971 
 C                    -3.65592  -0.9586   -0.17261 
 H                    -4.19321  -0.55218   0.68352 
 H                    -3.94456  -0.42905  -1.07951 
 H                    -3.85406  -2.02146  -0.27588 
 

 GradGradGradGradGradGradGradGradGradGradGradGradGradGradGradGradGradGrad
 Berny optimization.
 Initialization pass.
 Trust Radius=3.00D-01 FncErr=1.00D-07 GrdErr=1.00D-07
 Number of steps in this run=      2 maximum allowed number of steps=      2.
 GradGradGradGradGradGradGradGradGradGradGradGradGradGradGradGradGradGrad

                          Input orientation:                          
 ---------------------------------------------------------------------
 Center     Atomic      Atomic             Coordinates (Angstroms)
 Number     Number       Type             X           Y           Z
 ---------------------------------------------------------------------
      1          7           0        0.361560    0.311380   -0.494430
      2          7           0       -0.361570    0.311430    0.494440
      3          6           0        1.765800    0.365080   -0.170930
      4          6           0       -1.765810    0.365090    0.170950
      5          8           0       -2.358210    1.400020    0.133320
      6          8           0        2.358190    1.400020   -0.133350
      7          8           0       -2.239020   -0.852050    0.037050
      8          8           0        2.239030   -0.852050   -0.037020
      9          6           0        3.655950   -0.958570    0.172590
     10          1           0        3.854160   -2.021460    0.275440
     11          1           0        4.193220   -0.551760   -0.683360
     12          1           0        3.944510   -0.429350    1.079710
     13          6           0       -3.655920   -0.958600   -0.172610
     14          1           0       -4.193210   -0.552180    0.683520
     15          1           0       -3.944560   -0.429050   -1.079510
     16          1           0       -3.854060   -2.021460   -0.275880
 ---------------------------------------------------------------------
                    Distance matrix (angstroms):
                    1          2          3          4          5
     1  N    0.000000
     2  N    1.225064   0.000000
     3  C    1.442021   2.229641   0.000000
     4  C    2.229645   1.442018   3.548119   0.000000
     5  O    2.996057   2.302609   4.262761   1.193077   0.000000
     6  O    2.302617   2.996038   1.193080   4.262752   4.723933
     7  O    2.898113   2.255595   4.190852   1.312740   2.257276
     8  O    2.255590   2.898147   1.312739   4.190874   5.122055
     9  C    3.593145   4.225749   2.332964   5.581000   6.460233
    10  H    4.270023   4.823144   3.202509   6.106603   7.093678
    11  H    3.932216   4.783139   2.644910   6.089376   6.884595
    12  H    3.982980   4.408358   2.634767   5.836500   6.630726
    13  C    4.225703   3.593143   5.580966   2.332960   2.709379
    14  H    4.783224   3.932307   6.089438   2.645068   2.735147
    15  H    4.408313   3.982894   5.836469   2.634627   2.707944
    16  H    4.823003   4.270042   6.106506   3.202509   3.756533
                    6          7          8          9         10
     6  O    0.000000
     7  O    5.122030   0.000000
     8  O    2.257277   4.478663   0.000000
     9  C    2.709378   5.897490   1.436296   0.000000
    10  H    3.756536   6.208961   2.018365   1.086094   0.000000
    11  H    2.734829   6.479419   2.080093   1.089405   1.787254
    12  H    2.708232   6.285050   2.081928   1.089131   1.786009
    13  C    6.460197   1.436285   5.897472   7.320014   7.598139
    14  H    6.884708   2.080073   6.479414   7.876263   8.190572
    15  H    6.630639   2.081947   6.285101   7.721133   8.074137
    16  H    7.093581   2.018365   6.208890   7.598099   7.727911
                   11         12         13         14         15
    11  H    0.000000
    12  H    1.784729   0.000000
    13  C    7.876254   7.721072   0.000000
    14  H    8.497092   8.148285   1.089411   0.000000
    15  H    8.148341   8.179221   1.089130   1.784730   0.000000
    16  H    8.190529   8.074041   1.086092   1.787248   1.785996
                   16
    16  H    0.000000
 Stoichiometry    C4H6N2O4
 Framework group  C1[X(C4H6N2O4)]
 Deg. of freedom    42
 Full point group                 C1      NOp   1
 Largest Abelian subgroup         C1      NOp   1
 Largest concise Abelian subgroup C1      NOp   1
                         Standard orientation:                         
 ---------------------------------------------------------------------
 Center     Atomic      Atomic             Coordinates (Angstroms)
 Number     Number       Type             X           Y           Z
 ---------------------------------------------------------------------
      1          7           0        0.361560    0.311381   -0.494430
      2          7           0       -0.361570    0.311431    0.494440
      3          6           0        1.765800    0.365080   -0.170930
      4          6           0       -1.765810    0.365092    0.170950
      5          8           0       -2.358209    1.400023    0.133320
      6          8           0        2.358191    1.400019   -0.133350
      7          8           0       -2.239021   -0.852047    0.037050
      8          8           0        2.239029   -0.852051   -0.037020
      9          6           0        3.655949   -0.958572    0.172590
     10          1           0        3.854158   -2.021462    0.275440
     11          1           0        4.193219   -0.551762   -0.683360
     12          1           0        3.944509   -0.429352    1.079710
     13          6           0       -3.655921   -0.958596   -0.172610
     14          1           0       -4.193211   -0.552176    0.683520
     15          1           0       -3.944561   -0.429046   -1.079510
     16          1           0       -3.854062   -2.021456   -0.275880
 ---------------------------------------------------------------------
 Rotational constants (GHZ):      3.7390095      0.5969439      0.5279801
 General basis read from cards:  (5D, 7F)
 There are   436 symmetry adapted cartesian basis functions of A   symmetry.
 There are   386 symmetry adapted basis functions of A   symmetry.
   386 basis functions,   598 primitive gaussians,   436 cartesian basis functions
    38 alpha electrons       38 beta electrons
       nuclear repulsion energy       523.1423937554 Hartrees.
 NAtoms=   16 NActive=   16 NUniq=   16 SFac= 1.00D+00 NAtFMM=   60 NAOKFM=F Big=F
 Integral buffers will be    131072 words long.
 Raffenetti 2 integral format.
 Two-electron integral symmetry is turned on.
 Nuclear repulsion after empirical dispersion term =      523.1371876656 Hartrees.
 Force inversion solution in PCM.
 ------------------------------------------------------------------------------
 Polarizable Continuum Model (PCM)
 =================================
 Model                : PCM (using non-symmetric T matrix).
 Atomic radii         : SMD-Coulomb.
 Polarization charges : Total charges.
 Charge compensation  : None.
 Solution method      : Matrix inversion.
 Cavity type          : VdW (van der Waals Surface) (Alpha=1.000).
 Cavity algorithm     : GePol (No added spheres)
                        Default sphere list used, NSphG=   16.
                        Lebedev-Laikov grids with approx.  5.0 points / Ang**2.
                        Smoothing algorithm: Karplus/York (Gamma=1.0000).
                        Polarization charges: spherical gaussians, with
                                              point-specific exponents (IZeta= 3).
                        Self-potential: point-specific (ISelfS= 7).
                        Self-field    : sphere-specific E.n sum rule (ISelfD= 2).
 1st derivatives      : Analytical E(r).r(x)/FMM algorithm (CHGder, D1EAlg=3).
                        Cavity 1st derivative terms included.
 2nd derivatives      : Analytical E(r).r(xy)/FMM algorithm (CHGder, D2EAlg=3).
                        Cavity 2nd derivative terms included.
 Solvent              : Toluene, Eps=   2.374100 Eps(inf)=   2.238315
 ------------------------------------------------------------------------------
 Spheres list:
 ISph  on   Nord     Re0    Alpha      Xe            Ye            Ze
    1   N      1    1.8900  1.000      0.361560      0.311381     -0.494430
    2   N      2    1.8900  1.000     -0.361570      0.311431      0.494440
    3   C      3    1.8500  1.000      1.765800      0.365080     -0.170930
    4   C      4    1.8500  1.000     -1.765810      0.365092      0.170950
    5   O      5    2.2940  1.000     -2.358209      1.400023      0.133320
    6   O      6    2.2940  1.000      2.358191      1.400019     -0.133350
    7   O      7    2.2940  1.000     -2.239021     -0.852047      0.037050
    8   O      8    2.2940  1.000      2.239029     -0.852051     -0.037020
    9   C      9    1.8500  1.000      3.655949     -0.958572      0.172590
   10   H     10    1.2000  1.000      3.854158     -2.021462      0.275440
   11   H     11    1.2000  1.000      4.193219     -0.551762     -0.683360
   12   H     12    1.2000  1.000      3.944509     -0.429352      1.079710
   13   C     13    1.8500  1.000     -3.655921     -0.958596     -0.172610
   14   H     14    1.2000  1.000     -4.193211     -0.552176      0.683520
   15   H     15    1.2000  1.000     -3.944561     -0.429046     -1.079510
   16   H     16    1.2000  1.000     -3.854062     -2.021456     -0.275880
 ------------------------------------------------------------------------------
 ------------------------------------------------------------------------------
 Atomic radii for non-electrostatic terms: SMD-CDS.
 ------------------------------------------------------------------------------
 Nuclear repulsion after PCM non-electrostatic terms =      523.1369624100 Hartrees.
 One-electron integrals computed using PRISM.
 NBasis=   386 RedAO= T EigKep=  1.10D-05  NBF=   386
 NBsUse=   386 1.00D-06 EigRej= -1.00D+00 NBFU=   386
 ExpMin= 3.17D-02 ExpMax= 2.70D+04 ExpMxC= 9.22D+02 IAcc=3 IRadAn=         5 AccDes= 0.00D+00
 Harris functional with IExCor= 4639 and IRadAn=       5 diagonalized for initial guess.
 HarFok:  IExCor= 4639 AccDes= 0.00D+00 IRadAn=         5 IDoV= 1 UseB2=F ITyADJ=14
 ICtDFT=  3500011 ScaDFX=  1.000000  1.000000  1.000000  1.000000
 FoFCou: FMM=F IPFlag=           0 FMFlag=      100000 FMFlg1=           0
         NFxFlg=           0 DoJE=T BraDBF=F KetDBF=T FulRan=T
         wScrn=  0.000000 ICntrl=     500 IOpCl=  0 I1Cent=   200000004 NGrid=           0
         NMat0=    1 NMatS0=      1 NMatT0=    0 NMatD0=    1 NMtDS0=    0 NMtDT0=    0
 Petite list used in FoFCou.
 Requested convergence on RMS density matrix=1.00D-08 within 128 cycles.
 Requested convergence on MAX density matrix=1.00D-06.
 Requested convergence on             energy=1.00D-06.
 No special actions if energy rises.
 Inv3:  Mode=1 IEnd=     7795632.
 Iteration    1 A*A^-1 deviation from unit magnitude is 6.44D-15 for   1608.
 Iteration    1 A*A^-1 deviation from orthogonality  is 2.15D-15 for    360     85.
 Iteration    1 A^-1*A deviation from unit magnitude is 6.66D-15 for   1608.
 Iteration    1 A^-1*A deviation from orthogonality  is 8.08D-16 for     92     81.
 Error on total polarization charges =  0.01087
 SCF Done:  E(RwB97XD) =  -566.434930933     A.U. after   13 cycles
            NFock= 13  Conv=0.65D-08     -V/T= 2.0041
 SMD-CDS (non-electrostatic) energy       (kcal/mol) =      -0.14
 (included in total energy above)
 DoSCS=F DFT=T ScalE2(SS,OS)=  1.000000  1.000000
 Range of M.O.s used for correlation:     1   386
 NBasis=   386 NAE=    38 NBE=    38 NFC=     0 NFV=     0
 NROrb=    386 NOA=    38 NOB=    38 NVA=   348 NVB=   348

 **** Warning!!: The largest alpha MO coefficient is  0.75290439D+02

 Symmetrizing basis deriv contribution to polar:
 IMax=3 JMax=2 DiffMx= 0.00D+00
 G2DrvN: will do    17 centers at a time, making    1 passes.
 Calling FoFCou, ICntrl=  3107 FMM=F I1Cent=   0 AccDes= 0.00D+00.
 NEqPCM:  Using equilibrium solvation (IEInf=0, Eps=   2.3741, EpsInf=   2.2383)
 G2PCM: DoFxE=T DoFxN=T DoGrad=T DoDP/DQ/DG/TGxP=FFFF NFrqRd=   0 IEInf=0 SqF1=F DoCFld=F IF1Alg=4.
 End of G2Drv F.D. properties file   721 does not exist.
 End of G2Drv F.D. properties file   722 does not exist.
 End of G2Drv F.D. properties file   788 does not exist.
          IDoAtm=1111111111111111
 NEqPCM:  Using equilibrium solvation (IEInf=0, Eps=   2.3741, EpsInf=   2.2383)
          Differentiating once with respect to electric field.
                with respect to dipole field.
          Differentiating once with respect to nuclear coordinates.
          There are    51 degrees of freedom in the 1st order CPHF.  IDoFFX=6 NUNeed=     3.
     48 vectors produced by pass  0 Test12= 2.59D-14 1.96D-09 XBig12= 3.31D+01 2.01D+00.
 AX will form    48 AO Fock derivatives at one time.
     48 vectors produced by pass  1 Test12= 2.59D-14 1.96D-09 XBig12= 8.66D+00 6.84D-01.
     48 vectors produced by pass  2 Test12= 2.59D-14 1.96D-09 XBig12= 3.35D-01 1.79D-01.
     48 vectors produced by pass  3 Test12= 2.59D-14 1.96D-09 XBig12= 7.58D-03 1.59D-02.
     48 vectors produced by pass  4 Test12= 2.59D-14 1.96D-09 XBig12= 1.09D-04 1.87D-03.
     48 vectors produced by pass  5 Test12= 2.59D-14 1.96D-09 XBig12= 1.03D-06 1.37D-04.
     47 vectors produced by pass  6 Test12= 2.59D-14 1.96D-09 XBig12= 7.64D-09 1.04D-05.
     25 vectors produced by pass  7 Test12= 2.59D-14 1.96D-09 XBig12= 4.26D-11 7.12D-07.
      4 vectors produced by pass  8 Test12= 2.59D-14 1.96D-09 XBig12= 2.66D-13 5.82D-08.
      3 vectors produced by pass  9 Test12= 2.59D-14 1.96D-09 XBig12= 5.91D-15 1.15D-08.
      3 vectors produced by pass 10 Test12= 2.59D-14 1.96D-09 XBig12= 2.87D-16 4.54D-09.
      1 vectors produced by pass 11 Test12= 2.59D-14 1.96D-09 XBig12= 1.00D-16 2.94D-09.
 InvSVY:  IOpt=1 It=  1 EMax= 5.33D-15
 Solved reduced A of dimension   371 with    51 vectors.
 Isotropic polarizability for W=    0.000000       87.33 Bohr**3.
 End of Minotr F.D. properties file   721 does not exist.
 End of Minotr F.D. properties file   722 does not exist.
 End of Minotr F.D. properties file   788 does not exist.

 **********************************************************************

            Population analysis using the SCF density.

 **********************************************************************

 Orbital symmetries:
       Occupied  (A) (A) (A) (A) (A) (A) (A) (A) (A) (A) (A) (A)
                 (A) (A) (A) (A) (A) (A) (A) (A) (A) (A) (A) (A)
                 (A) (A) (A) (A) (A) (A) (A) (A) (A) (A) (A) (A)
                 (A) (A)
       Virtual   (A) (A) (A) (A) (A) (A) (A) (A) (A) (A) (A) (A)
                 (A) (A) (A) (A) (A) (A) (A) (A) (A) (A) (A) (A)
                 (A) (A) (A) (A) (A) (A) (A) (A) (A) (A) (A) (A)
                 (A) (A) (A) (A) (A) (A) (A) (A) (A) (A) (A) (A)
                 (A) (A) (A) (A) (A) (A) (A) (A) (A) (A) (A) (A)
                 (A) (A) (A) (A) (A) (A) (A) (A) (A) (A) (A) (A)
                 (A) (A) (A) (A) (A) (A) (A) (A) (A) (A) (A) (A)
                 (A) (A) (A) (A) (A) (A) (A) (A) (A) (A) (A) (A)
                 (A) (A) (A) (A) (A) (A) (A) (A) (A) (A) (A) (A)
                 (A) (A) (A) (A) (A) (A) (A) (A) (A) (A) (A) (A)
                 (A) (A) (A) (A) (A) (A) (A) (A) (A) (A) (A) (A)
                 (A) (A) (A) (A) (A) (A) (A) (A) (A) (A) (A) (A)
                 (A) (A) (A) (A) (A) (A) (A) (A) (A) (A) (A) (A)
                 (A) (A) (A) (A) (A) (A) (A) (A) (A) (A) (A) (A)
                 (A) (A) (A) (A) (A) (A) (A) (A) (A) (A) (A) (A)
                 (A) (A) (A) (A) (A) (A) (A) (A) (A) (A) (A) (A)
                 (A) (A) (A) (A) (A) (A) (A) (A) (A) (A) (A) (A)
                 (A) (A) (A) (A) (A) (A) (A) (A) (A) (A) (A) (A)
                 (A) (A) (A) (A) (A) (A) (A) (A) (A) (A) (A) (A)
                 (A) (A) (A) (A) (A) (A) (A) (A) (A) (A) (A) (A)
                 (A) (A) (A) (A) (A) (A) (A) (A) (A) (A) (A) (A)
                 (A) (A) (A) (A) (A) (A) (A) (A) (A) (A) (A) (A)
                 (A) (A) (A) (A) (A) (A) (A) (A) (A) (A) (A) (A)
                 (A) (A) (A) (A) (A) (A) (A) (A) (A) (A) (A) (A)
                 (A) (A) (A) (A) (A) (A) (A) (A) (A) (A) (A) (A)
                 (A) (A) (A) (A) (A) (A) (A) (A) (A) (A) (A) (A)
                 (A) (A) (A) (A) (A) (A) (A) (A) (A) (A) (A) (A)
                 (A) (A) (A) (A) (A) (A) (A) (A) (A) (A) (A) (A)
                 (A) (A) (A) (A) (A) (A) (A) (A) (A) (A) (A) (A)
 The electronic state is 1-A.
 Alpha  occ. eigenvalues --  -19.32686 -19.32686 -19.26266 -19.26266 -14.53544
 Alpha  occ. eigenvalues --  -14.53482 -10.45754 -10.45754 -10.34808 -10.34808
 Alpha  occ. eigenvalues --   -1.26272  -1.24944  -1.18191  -1.15755  -1.15328
 Alpha  occ. eigenvalues --   -0.91902  -0.85367  -0.81217  -0.71328  -0.67224
 Alpha  occ. eigenvalues --   -0.66287  -0.62914  -0.60330  -0.59766  -0.59155
 Alpha  occ. eigenvalues --   -0.57027  -0.54079  -0.54043  -0.51975  -0.49564
 Alpha  occ. eigenvalues --   -0.48903  -0.47133  -0.46960  -0.41727  -0.41663
 Alpha  occ. eigenvalues --   -0.41379  -0.41257  -0.34695
 Alpha virt. eigenvalues --   -0.01464   0.04659   0.05502   0.06348   0.06626
 Alpha virt. eigenvalues --    0.06882   0.07358   0.07742   0.08424   0.08488
 Alpha virt. eigenvalues --    0.08844   0.10160   0.10207   0.11910   0.12231
 Alpha virt. eigenvalues --    0.12735   0.13959   0.15051   0.16031   0.16139
 Alpha virt. eigenvalues --    0.17073   0.17688   0.18207   0.20161   0.20890
 Alpha virt. eigenvalues --    0.21053   0.21312   0.21570   0.21987   0.22063
 Alpha virt. eigenvalues --    0.22336   0.23058   0.23731   0.24205   0.24613
 Alpha virt. eigenvalues --    0.25246   0.25420   0.26062   0.26327   0.27244
 Alpha virt. eigenvalues --    0.27831   0.28745   0.29121   0.29872   0.30157
 Alpha virt. eigenvalues --    0.30328   0.30744   0.33072   0.35476   0.36578
 Alpha virt. eigenvalues --    0.37776   0.38593   0.39744   0.41076   0.41143
 Alpha virt. eigenvalues --    0.42434   0.42552   0.44169   0.44475   0.45582
 Alpha virt. eigenvalues --    0.46823   0.47152   0.47829   0.48491   0.50052
 Alpha virt. eigenvalues --    0.52537   0.52733   0.54754   0.55829   0.56306
 Alpha virt. eigenvalues --    0.56439   0.56666   0.57795   0.58006   0.59012
 Alpha virt. eigenvalues --    0.59724   0.60932   0.62260   0.62553   0.64953
 Alpha virt. eigenvalues --    0.65118   0.66641   0.68183   0.70806   0.72101
 Alpha virt. eigenvalues --    0.72424   0.73703   0.74046   0.74506   0.75321
 Alpha virt. eigenvalues --    0.76744   0.77244   0.78424   0.80198   0.81031
 Alpha virt. eigenvalues --    0.81516   0.82958   0.83041   0.87474   0.88113
 Alpha virt. eigenvalues --    0.88378   0.90260   0.92279   0.97445   0.97733
 Alpha virt. eigenvalues --    0.99436   1.00076   1.04014   1.04796   1.05119
 Alpha virt. eigenvalues --    1.09032   1.11434   1.12141   1.12953   1.15146
 Alpha virt. eigenvalues --    1.15655   1.17666   1.18857   1.21827   1.22244
 Alpha virt. eigenvalues --    1.24821   1.25608   1.31749   1.37910   1.38771
 Alpha virt. eigenvalues --    1.42998   1.46217   1.52102   1.55230   1.55638
 Alpha virt. eigenvalues --    1.56824   1.57580   1.58203   1.59320   1.59571
 Alpha virt. eigenvalues --    1.60752   1.61362   1.62629   1.63440   1.64764
 Alpha virt. eigenvalues --    1.66014   1.67326   1.69839   1.71744   1.72310
 Alpha virt. eigenvalues --    1.73398   1.73666   1.77852   1.84231   1.84590
 Alpha virt. eigenvalues --    1.86032   1.89291   1.90461   1.92664   1.97905
 Alpha virt. eigenvalues --    1.98236   2.01637   2.03779   2.07108   2.07724
 Alpha virt. eigenvalues --    2.08707   2.10620   2.10628   2.13094   2.13873
 Alpha virt. eigenvalues --    2.17039   2.18897   2.19397   2.19944   2.22058
 Alpha virt. eigenvalues --    2.22669   2.25416   2.26396   2.32776   2.36130
 Alpha virt. eigenvalues --    2.38197   2.38319   2.39931   2.42170   2.43506
 Alpha virt. eigenvalues --    2.44416   2.44786   2.46664   2.47461   2.49442
 Alpha virt. eigenvalues --    2.51942   2.55250   2.56258   2.61596   2.63701
 Alpha virt. eigenvalues --    2.65103   2.66001   2.66431   2.68649   2.71961
 Alpha virt. eigenvalues --    2.76337   2.79468   2.81019   2.82544   2.85715
 Alpha virt. eigenvalues --    2.88345   2.89469   2.90331   2.93245   2.97172
 Alpha virt. eigenvalues --    2.98538   3.01958   3.02056   3.06381   3.08107
 Alpha virt. eigenvalues --    3.09335   3.10251   3.13659   3.16154   3.17315
 Alpha virt. eigenvalues --    3.17913   3.21610   3.24479   3.24793   3.26332
 Alpha virt. eigenvalues --    3.29429   3.30024   3.30662   3.35729   3.35952
 Alpha virt. eigenvalues --    3.37128   3.37149   3.37823   3.40002   3.41490
 Alpha virt. eigenvalues --    3.44429   3.45168   3.46301   3.46352   3.47440
 Alpha virt. eigenvalues --    3.48132   3.55423   3.55840   3.57422   3.57649
 Alpha virt. eigenvalues --    3.62072   3.62113   3.66375   3.66611   3.68539
 Alpha virt. eigenvalues --    3.69237   3.69679   3.72540   3.78106   3.84701
 Alpha virt. eigenvalues --    3.88421   3.95843   3.96475   4.00367   4.02073
 Alpha virt. eigenvalues --    4.05837   4.12136   4.22623   4.27174   4.28090
 Alpha virt. eigenvalues --    4.29041   4.37612   4.37893   4.42731   4.47032
 Alpha virt. eigenvalues --    4.50476   4.53761   4.59654   4.61448   4.65009
 Alpha virt. eigenvalues --    4.70110   4.74306   4.78203   4.86684   4.88781
 Alpha virt. eigenvalues --    4.92247   4.95232   4.97049   4.99287   5.00898
 Alpha virt. eigenvalues --    5.05255   5.10681   5.12615   5.22062   5.23721
 Alpha virt. eigenvalues --    5.25893   5.26782   5.30575   5.37990   5.40881
 Alpha virt. eigenvalues --    5.47271   5.53548   5.55411   5.56154   5.62988
 Alpha virt. eigenvalues --    5.69129   5.71959   5.75069   5.76674   5.78379
 Alpha virt. eigenvalues --    5.92368   5.94343   5.99038   6.04860   6.11285
 Alpha virt. eigenvalues --    6.13656   6.19808   6.21054   6.25707   6.26151
 Alpha virt. eigenvalues --    6.26185   6.33674   6.39706   6.42968   6.43831
 Alpha virt. eigenvalues --    6.55859   6.57769   6.58982   6.60759   6.71716
 Alpha virt. eigenvalues --    6.72621   6.77529   6.78750   6.81640   6.84477
 Alpha virt. eigenvalues --    6.91955   6.98302   6.99005   7.00012   7.01124
 Alpha virt. eigenvalues --    7.10361   7.12689   7.28201   7.28614   7.40756
 Alpha virt. eigenvalues --    7.41701   7.47703   7.51652  22.48746  22.50590
 Alpha virt. eigenvalues --   23.46744  23.59149  32.32956  32.56482  44.04079
 Alpha virt. eigenvalues --   44.08406  44.22889  44.26808
          Condensed to atoms (all electrons):
               1          2          3          4          5          6
     1  N    6.850131   0.127016   0.167039  -0.031783   0.000566  -0.007018
     2  N    0.127016   6.850111  -0.031798   0.167017  -0.007021   0.000562
     3  C    0.167039  -0.031798   4.682951  -0.016656  -0.007645   0.463475
     4  C   -0.031783   0.167017  -0.016656   4.682945   0.463473  -0.007645
     5  O    0.000566  -0.007021  -0.007645   0.463473   8.067872   0.001025
     6  O   -0.007018   0.000562   0.463475  -0.007645   0.001025   8.067870
     7  O    0.031194  -0.018426  -0.010188   0.269529  -0.122784  -0.001193
     8  O   -0.018449   0.031216   0.269522  -0.010188  -0.001192  -0.122782
     9  C   -0.006399   0.004011  -0.024582  -0.003396   0.000123   0.002386
    10  H    0.003512  -0.001379   0.005507   0.000114   0.000002   0.003870
    11  H    0.007192  -0.005404  -0.003059   0.000389  -0.000005  -0.005654
    12  H   -0.010319   0.008605  -0.011948  -0.000539   0.000010  -0.003397
    13  C    0.004002  -0.006386  -0.003395  -0.024578   0.002386   0.000123
    14  H   -0.005405   0.007186   0.000388  -0.003074  -0.005654  -0.000005
    15  H    0.008607  -0.010313  -0.000539  -0.011934  -0.003396   0.000010
    16  H   -0.001379   0.003511   0.000115   0.005506   0.003870   0.000002
               7          8          9         10         11         12
     1  N    0.031194  -0.018449  -0.006399   0.003512   0.007192  -0.010319
     2  N   -0.018426   0.031216   0.004011  -0.001379  -0.005404   0.008605
     3  C   -0.010188   0.269522  -0.024582   0.005507  -0.003059  -0.011948
     4  C    0.269529  -0.010188  -0.003396   0.000114   0.000389  -0.000539
     5  O   -0.122784  -0.001192   0.000123   0.000002  -0.000005   0.000010
     6  O   -0.001193  -0.122782   0.002386   0.003870  -0.005654  -0.003397
     7  O    8.079940   0.007210  -0.000661  -0.000042   0.000066  -0.000039
     8  O    0.007210   8.079937   0.148434  -0.053850  -0.025108  -0.017602
     9  C   -0.000661   0.148434   4.872730   0.415282   0.411138   0.415272
    10  H   -0.000042  -0.053850   0.415282   0.499493  -0.019229  -0.020294
    11  H    0.000066  -0.025108   0.411138  -0.019229   0.496032  -0.027425
    12  H   -0.000039  -0.017602   0.415272  -0.020294  -0.027425   0.495803
    13  C    0.148426  -0.000660  -0.000156  -0.000009   0.000024  -0.000026
    14  H   -0.025104   0.000066   0.000024   0.000000   0.000000   0.000000
    15  H   -0.017609  -0.000039  -0.000026   0.000000   0.000000   0.000000
    16  H   -0.053849  -0.000042  -0.000009   0.000000   0.000000   0.000000
              13         14         15         16
     1  N    0.004002  -0.005405   0.008607  -0.001379
     2  N   -0.006386   0.007186  -0.010313   0.003511
     3  C   -0.003395   0.000388  -0.000539   0.000115
     4  C   -0.024578  -0.003074  -0.011934   0.005506
     5  O    0.002386  -0.005654  -0.003396   0.003870
     6  O    0.000123  -0.000005   0.000010   0.000002
     7  O    0.148426  -0.025104  -0.017609  -0.053849
     8  O   -0.000660   0.000066  -0.000039  -0.000042
     9  C   -0.000156   0.000024  -0.000026  -0.000009
    10  H   -0.000009   0.000000   0.000000   0.000000
    11  H    0.000024   0.000000   0.000000   0.000000
    12  H   -0.000026   0.000000   0.000000   0.000000
    13  C    4.872736   0.411157   0.415254   0.415283
    14  H    0.411157   0.496030  -0.027425  -0.019228
    15  H    0.415254  -0.027425   0.495804  -0.020297
    16  H    0.415283  -0.019228  -0.020297   0.499495
 Mulliken charges:
               1
     1  N   -0.118506
     2  N   -0.118507
     3  C    0.520815
     4  C    0.520821
     5  O   -0.391631
     6  O   -0.391631
     7  O   -0.286470
     8  O   -0.286473
     9  C   -0.234172
    10  H    0.167023
    11  H    0.171044
    12  H    0.171901
    13  C   -0.234182
    14  H    0.171044
    15  H    0.171903
    16  H    0.167022
 Sum of Mulliken charges =   0.00000
 Mulliken charges with hydrogens summed into heavy atoms:
               1
     1  N   -0.118506
     2  N   -0.118507
     3  C    0.520815
     4  C    0.520821
     5  O   -0.391631
     6  O   -0.391631
     7  O   -0.286470
     8  O   -0.286473
     9  C    0.275796
    13  C    0.275787
 APT charges:
               1
     1  N   -0.276284
     2  N   -0.276289
     3  C    1.577968
     4  C    1.577978
     5  O   -0.862663
     6  O   -0.862664
     7  O   -0.992661
     8  O   -0.992664
     9  C    0.527698
    10  H    0.023098
    11  H    0.000268
    12  H    0.002580
    13  C    0.527694
    14  H    0.000250
    15  H    0.002593
    16  H    0.023097
 Sum of APT charges =   0.00000
 APT charges with hydrogens summed into heavy atoms:
               1
     1  N   -0.276284
     2  N   -0.276289
     3  C    1.577968
     4  C    1.577978
     5  O   -0.862663
     6  O   -0.862664
     7  O   -0.992661
     8  O   -0.992664
     9  C    0.553645
    13  C    0.553635
 Electronic spatial extent (au):  <R**2>=           2039.1524
 Charge=              0.0000 electrons
 Dipole moment (field-independent basis, Debye):
    X=              0.0001    Y=             -4.7928    Z=              0.0000  Tot=              4.7928
 Quadrupole moment (field-independent basis, Debye-Ang):
   XX=            -35.5715   YY=            -62.8660   ZZ=            -56.3974
   XY=              0.0001   XZ=              1.8406   YZ=              0.0001
 Traceless Quadrupole moment (field-independent basis, Debye-Ang):
   XX=             16.0401   YY=            -11.2544   ZZ=             -4.7858
   XY=              0.0001   XZ=              1.8406   YZ=              0.0001
 Octapole moment (field-independent basis, Debye-Ang**2):
  XXX=              0.0026  YYY=            -17.7683  ZZZ=              0.0009  XYY=              0.0001
  XXY=            -56.4842  XXZ=             -0.0006  XZZ=             -0.0003  YZZ=              0.1641
  YYZ=             -0.0011  XYZ=             -0.9618
 Hexadecapole moment (field-independent basis, Debye-Ang**3):
 XXXX=          -1704.4957 YYYY=           -340.0813 ZZZZ=            -89.4862 XXXY=              0.0011
 XXXZ=             19.5991 YYYX=             -0.0012 YYYZ=              0.0032 ZZZX=             -0.4116
 ZZZY=             -0.0011 XXYY=           -411.7427 XXZZ=           -343.7742 YYZZ=            -72.9537
 XXYZ=              0.0004 YYXZ=              6.8354 ZZXY=              0.0008
 N-N= 5.231369624100D+02 E-N=-2.374962490142D+03  KE= 5.641060987285D+02
  Exact polarizability: 114.626   0.000  83.624  -1.673   0.000  63.735
 Approx polarizability:  90.456   0.000  87.196  -3.094   0.000  67.323
 D2PCM: PCM CHGder 2nd derivatives, FixD1E=F FixD2E=F DoIter=F DoCFld=F I1PDM=0
 Calling FoFJK, ICntrl=    100127 FMM=F ISym2X=0 I1Cent= 0 IOpClX= 0 NMat=1 NMatS=1 NMatT=0.
 Full mass-weighted force constant matrix:
 Low frequencies ---   -5.7830   -0.0009   -0.0006    0.0003   15.3985   34.1877
 Low frequencies ---   38.0085   79.1304   80.6911
 Diagonal vibrational polarizability:
       37.3388746      25.9175130      16.7135120
 Harmonic frequencies (cm**-1), IR intensities (KM/Mole), Raman scattering
 activities (A**4/AMU), depolarization ratios for plane and unpolarized
 incident light, reduced masses (AMU), force constants (mDyne/A),
 and normal coordinates:
                      1                      2                      3
                      A                      A                      A
 Frequencies --     37.6358                78.8638                80.6214
 Red. masses --      5.9534                 4.1637                 4.9817
 Frc consts  --      0.0050                 0.0153                 0.0191
 IR Inten    --      0.0135                 2.7492                 1.8291
  Atom  AN      X      Y      Z        X      Y      Z        X      Y      Z
     1   7    -0.02   0.01  -0.02    -0.04  -0.17   0.15     0.00   0.19   0.00
     2   7     0.02   0.01   0.02    -0.04   0.17   0.15     0.00   0.19   0.00
     3   6    -0.01   0.00  -0.08    -0.03  -0.07   0.06     0.00   0.07   0.02
     4   6     0.01   0.00   0.08    -0.03   0.07   0.06     0.00   0.07  -0.02
     5   8    -0.04  -0.02   0.33    -0.07   0.04  -0.05    -0.13  -0.01  -0.05
     6   8     0.04  -0.02  -0.33    -0.07  -0.04  -0.05     0.13  -0.01   0.05
     7   8     0.06   0.01  -0.17     0.04   0.04   0.07     0.15   0.00   0.02
     8   8    -0.06   0.01   0.17     0.04  -0.04   0.07    -0.15   0.00  -0.02
     9   6    -0.06  -0.01   0.15     0.09   0.03  -0.20    -0.17  -0.21  -0.04
    10   1    -0.11   0.01   0.43     0.14   0.05  -0.10    -0.32  -0.24  -0.06
    11   1    -0.07  -0.27   0.01    -0.10  -0.07  -0.36    -0.12  -0.29  -0.05
    12   1     0.01   0.23  -0.01     0.26   0.15  -0.33    -0.07  -0.26  -0.04
    13   6     0.06  -0.01  -0.15     0.09  -0.03  -0.20     0.17  -0.21   0.04
    14   1     0.07  -0.27  -0.01    -0.10   0.07  -0.36     0.12  -0.28   0.05
    15   1    -0.01   0.22   0.01     0.26  -0.15  -0.32     0.07  -0.26   0.04
    16   1     0.11   0.01  -0.43     0.14  -0.04  -0.10     0.32  -0.24   0.06
                      4                      5                      6
                      A                      A                      A
 Frequencies --     95.8541               126.1662               149.4558
 Red. masses --      4.3229                 1.7178                 1.2082
 Frc consts  --      0.0234                 0.0161                 0.0159
 IR Inten    --      1.4275                 0.0282                 0.1574
  Atom  AN      X      Y      Z        X      Y      Z        X      Y      Z
     1   7     0.01   0.21   0.07    -0.03   0.00  -0.02     0.00  -0.01  -0.03
     2   7     0.01  -0.21   0.07     0.03   0.00   0.02     0.00   0.01  -0.03
     3   6     0.02   0.10   0.03    -0.02   0.00  -0.06     0.00  -0.01  -0.01
     4   6     0.02  -0.10   0.03     0.02   0.00   0.06     0.00   0.01  -0.01
     5   8     0.11  -0.06  -0.09     0.02   0.00   0.04    -0.02   0.00   0.06
     6   8     0.11   0.06  -0.09    -0.02   0.00  -0.04    -0.02   0.00   0.06
     7   8    -0.08  -0.07   0.11     0.02   0.00   0.09     0.01   0.01  -0.04
     8   8    -0.08   0.07   0.11    -0.02   0.00  -0.09     0.01  -0.01  -0.04
     9   6    -0.06  -0.05  -0.11    -0.05   0.00   0.10     0.00   0.00   0.02
    10   1    -0.16  -0.05   0.09    -0.01  -0.02  -0.21    -0.05   0.03   0.43
    11   1    -0.16  -0.31  -0.30     0.08   0.31   0.32     0.02  -0.36  -0.15
    12   1     0.17   0.12  -0.28    -0.23  -0.26   0.32     0.03   0.33  -0.19
    13   6    -0.06   0.05  -0.11     0.05   0.00  -0.10     0.00   0.00   0.02
    14   1    -0.16   0.31  -0.30    -0.08   0.31  -0.32     0.02   0.36  -0.15
    15   1     0.17  -0.11  -0.28     0.23  -0.26  -0.31     0.04  -0.33  -0.19
    16   1    -0.16   0.05   0.09     0.01  -0.02   0.20    -0.05  -0.03   0.43
                      7                      8                      9
                      A                      A                      A
 Frequencies --    159.6648               256.2244               267.7510
 Red. masses --      1.7132                 7.2334                 9.4187
 Frc consts  --      0.0257                 0.2798                 0.3978
 IR Inten    --      0.0056                10.2404                 1.8974
  Atom  AN      X      Y      Z        X      Y      Z        X      Y      Z
     1   7     0.02   0.01   0.02    -0.05   0.05   0.34    -0.09  -0.12  -0.06
     2   7    -0.02   0.01  -0.02    -0.05  -0.05   0.34     0.09  -0.12   0.06
     3   6     0.02   0.00   0.04     0.00   0.00   0.00    -0.18   0.00  -0.02
     4   6    -0.02   0.00  -0.04     0.00   0.00   0.00     0.18   0.00   0.02
     5   8    -0.04  -0.01   0.04     0.04   0.02  -0.15     0.37   0.10  -0.05
     6   8     0.04  -0.01  -0.04     0.04  -0.02  -0.15    -0.37   0.10   0.05
     7   8     0.00   0.01  -0.12     0.03   0.02  -0.26     0.18   0.03  -0.14
     8   8     0.00   0.01   0.12     0.03  -0.02  -0.26    -0.18   0.03   0.14
     9   6     0.03  -0.01  -0.06    -0.02   0.03   0.10    -0.18  -0.03  -0.07
    10   1     0.09  -0.04  -0.47    -0.03   0.04   0.28    -0.20  -0.05  -0.18
    11   1    -0.07   0.33   0.04     0.20  -0.06   0.20    -0.30   0.00  -0.13
    12   1     0.09  -0.32   0.10    -0.28   0.14   0.12    -0.02  -0.11  -0.08
    13   6    -0.03  -0.01   0.06    -0.02  -0.03   0.10     0.18  -0.03   0.07
    14   1     0.07   0.34  -0.04     0.20   0.06   0.20     0.30   0.00   0.13
    15   1    -0.09  -0.32  -0.11    -0.28  -0.14   0.12     0.02  -0.11   0.08
    16   1    -0.09  -0.04   0.48    -0.03  -0.04   0.28     0.20  -0.05   0.18
                     10                     11                     12
                      A                      A                      A
 Frequencies --    282.8544               310.8468               445.3110
 Red. masses --      4.1987                 3.9779                 9.4705
 Frc consts  --      0.1979                 0.2265                 1.1065
 IR Inten    --     10.2794                17.7646                34.9184
  Atom  AN      X      Y      Z        X      Y      Z        X      Y      Z
     1   7    -0.02   0.13  -0.03     0.03  -0.05   0.02     0.05  -0.35   0.02
     2   7    -0.02  -0.13  -0.03    -0.03  -0.05  -0.02     0.05   0.35   0.02
     3   6    -0.03  -0.09   0.00     0.06   0.06   0.01     0.03   0.15   0.01
     4   6    -0.03   0.09   0.00    -0.06   0.06  -0.01     0.03  -0.15   0.01
     5   8     0.09   0.16   0.03     0.07   0.14   0.05     0.28  -0.01   0.05
     6   8     0.09  -0.17   0.03    -0.07   0.14  -0.05     0.28   0.01   0.05
     7   8    -0.05   0.10   0.02    -0.12   0.08   0.02    -0.15  -0.09  -0.04
     8   8    -0.05  -0.10   0.02     0.12   0.08  -0.02    -0.15   0.09  -0.04
     9   6     0.00   0.22  -0.02     0.09  -0.21   0.04    -0.22   0.11  -0.04
    10   1     0.24   0.27   0.03    -0.15  -0.26   0.00    -0.17   0.12  -0.03
    11   1    -0.13   0.31  -0.06     0.23  -0.31   0.07    -0.22   0.13  -0.03
    12   1    -0.09   0.34  -0.06     0.17  -0.32   0.07    -0.22   0.13  -0.05
    13   6     0.00  -0.22  -0.02    -0.09  -0.21  -0.04    -0.22  -0.11  -0.04
    14   1    -0.13  -0.31  -0.06    -0.23  -0.31  -0.07    -0.22  -0.13  -0.03
    15   1    -0.09  -0.34  -0.06    -0.17  -0.32  -0.07    -0.22  -0.13  -0.05
    16   1     0.24  -0.27   0.03     0.15  -0.26   0.00    -0.17  -0.12  -0.03
                     13                     14                     15
                      A                      A                      A
 Frequencies --    605.5710               631.8018               648.7300
 Red. masses --      9.8477                11.1595                 8.2555
 Frc consts  --      2.1277                 2.6246                 2.0470
 IR Inten    --      0.5894                 0.0672                12.6273
  Atom  AN      X      Y      Z        X      Y      Z        X      Y      Z
     1   7    -0.14   0.39  -0.12     0.25   0.20   0.22     0.37   0.02   0.07
     2   7     0.14   0.39   0.12    -0.25   0.20  -0.22     0.37  -0.02   0.07
     3   6    -0.06  -0.11  -0.17    -0.02  -0.07   0.34     0.13  -0.06  -0.02
     4   6     0.06  -0.11   0.17     0.02  -0.07  -0.34     0.13   0.06  -0.01
     5   8     0.16  -0.08  -0.04     0.20   0.05   0.16    -0.18  -0.12  -0.02
     6   8    -0.16  -0.08   0.04    -0.20   0.05  -0.16    -0.18   0.12  -0.02
     7   8    -0.08  -0.11  -0.08     0.03  -0.19   0.11    -0.10   0.16   0.00
     8   8     0.08  -0.11   0.08    -0.03  -0.19  -0.11    -0.10  -0.16   0.00
     9   6     0.23  -0.07   0.04    -0.02   0.01   0.00    -0.16   0.05  -0.03
    10   1     0.22  -0.08   0.00     0.18   0.05   0.09     0.12   0.11   0.01
    11   1     0.15  -0.06   0.00    -0.02   0.08   0.04    -0.27   0.16  -0.04
    12   1     0.26  -0.08   0.03    -0.22   0.11   0.00    -0.26   0.16  -0.06
    13   6    -0.23  -0.07  -0.04     0.02   0.01   0.00    -0.16  -0.05  -0.03
    14   1    -0.15  -0.06   0.00     0.02   0.08  -0.04    -0.27  -0.16  -0.04
    15   1    -0.26  -0.08  -0.03     0.22   0.11   0.00    -0.26  -0.16  -0.06
    16   1    -0.22  -0.08   0.00    -0.18   0.05  -0.09     0.12  -0.11   0.01
                     16                     17                     18
                      A                      A                      A
 Frequencies --    846.8077               863.1439               916.9825
 Red. masses --     11.5772                 6.3861                 6.0058
 Frc consts  --      4.8913                 2.8032                 2.9754
 IR Inten    --     43.4832                 5.0005                66.2326
  Atom  AN      X      Y      Z        X      Y      Z        X      Y      Z
     1   7     0.01  -0.01  -0.20     0.04  -0.03   0.01     0.17   0.02   0.00
     2   7     0.01   0.01  -0.20    -0.04  -0.03  -0.01     0.17  -0.02   0.00
     3   6    -0.04   0.04   0.61     0.23   0.04  -0.19    -0.09  -0.10   0.06
     4   6    -0.04  -0.04   0.61    -0.23   0.04   0.19    -0.09   0.10   0.06
     5   8     0.01  -0.04  -0.16    -0.02   0.22  -0.05    -0.06   0.19  -0.02
     6   8     0.01   0.04  -0.16     0.02   0.22   0.05    -0.06  -0.19  -0.02
     7   8     0.00   0.07  -0.12     0.07  -0.23  -0.05     0.13  -0.22  -0.01
     8   8     0.00  -0.07  -0.12    -0.07  -0.23   0.05     0.13   0.22  -0.01
     9   6     0.00  -0.01  -0.01     0.00  -0.02   0.00    -0.15   0.05  -0.03
    10   1     0.10   0.02   0.07     0.42   0.06   0.04    -0.52  -0.02  -0.07
    11   1     0.04   0.03   0.03    -0.21   0.17  -0.03     0.05  -0.14   0.01
    12   1    -0.14   0.06   0.00    -0.15   0.15  -0.05     0.04  -0.13   0.02
    13   6     0.00   0.01  -0.01     0.00  -0.02   0.00    -0.15  -0.05  -0.03
    14   1     0.04  -0.03   0.03     0.21   0.17   0.03     0.05   0.14   0.01
    15   1    -0.14  -0.06   0.00     0.15   0.15   0.05     0.04   0.13   0.02
    16   1     0.10  -0.02   0.07    -0.42   0.06  -0.04    -0.52   0.02  -0.07
                     19                     20                     21
                      A                      A                      A
 Frequencies --    981.8296              1056.9886              1061.2933
 Red. masses --      9.0302                 8.4472                 9.3679
 Frc consts  --      5.1288                 5.5604                 6.2168
 IR Inten    --      6.1014                32.7072                 6.0481
  Atom  AN      X      Y      Z        X      Y      Z        X      Y      Z
     1   7    -0.23  -0.07  -0.19    -0.20   0.02  -0.02     0.20  -0.05   0.19
     2   7     0.23  -0.07   0.19    -0.20  -0.02  -0.02    -0.20  -0.05  -0.19
     3   6    -0.09   0.13   0.29     0.20  -0.05   0.00    -0.14   0.05  -0.19
     4   6     0.09   0.13  -0.29     0.20   0.05   0.00     0.15   0.05   0.19
     5   8    -0.08   0.09   0.06     0.01  -0.08   0.01     0.00  -0.05  -0.04
     6   8     0.08   0.09  -0.06     0.01   0.08   0.00     0.00  -0.05   0.04
     7   8     0.18  -0.10   0.07     0.29   0.08   0.05     0.29   0.07   0.02
     8   8    -0.18  -0.10  -0.07     0.30  -0.08   0.05    -0.29   0.07  -0.02
     9   6     0.23  -0.05   0.03    -0.33   0.00  -0.05     0.31   0.00   0.05
    10   1     0.38  -0.02   0.08     0.05   0.07   0.00    -0.02  -0.06  -0.01
    11   1     0.10   0.07   0.01    -0.31   0.09   0.00     0.27  -0.08   0.00
    12   1     0.05   0.07   0.01    -0.29   0.08  -0.10     0.27  -0.07   0.09
    13   6    -0.23  -0.05  -0.03    -0.33   0.00  -0.05    -0.31   0.00  -0.05
    14   1    -0.10   0.07  -0.01    -0.30  -0.09   0.00    -0.27  -0.08   0.00
    15   1    -0.05   0.07  -0.01    -0.29  -0.08  -0.09    -0.27  -0.07  -0.09
    16   1    -0.38  -0.02  -0.08     0.05  -0.07   0.00     0.02  -0.06   0.01
                     22                     23                     24
                      A                      A                      A
 Frequencies --   1189.9810              1190.0297              1238.5754
 Red. masses --      1.2797                 1.2797                 1.4669
 Frc consts  --      1.0677                 1.0678                 1.3259
 IR Inten    --      1.5541                 1.1417                 0.9471
  Atom  AN      X      Y      Z        X      Y      Z        X      Y      Z
     1   7     0.00   0.00   0.00     0.00   0.00   0.00     0.01   0.00   0.02
     2   7     0.00   0.00   0.00     0.00   0.00   0.00    -0.01   0.00  -0.02
     3   6     0.00   0.00   0.01     0.00   0.00   0.00    -0.05   0.02  -0.01
     4   6     0.00   0.00   0.00     0.00   0.00   0.00     0.04   0.02   0.01
     5   8     0.00   0.00   0.00     0.00   0.00   0.00     0.00  -0.02   0.00
     6   8     0.00   0.00   0.00     0.00   0.00   0.00     0.00  -0.02   0.00
     7   8     0.00   0.00  -0.01    -0.01  -0.01   0.06    -0.02   0.06   0.00
     8   8     0.01  -0.01  -0.06     0.00   0.00  -0.01     0.02   0.06   0.00
     9   6    -0.02   0.01   0.14     0.00   0.00   0.01    -0.01  -0.11   0.01
    10   1     0.03  -0.02  -0.33     0.00   0.00  -0.03     0.50  -0.01   0.07
    11   1    -0.60  -0.05  -0.26    -0.05  -0.01  -0.02    -0.24   0.26   0.03
    12   1     0.65   0.01  -0.07     0.05   0.00  -0.01    -0.18   0.24  -0.14
    13   6     0.00   0.00   0.01     0.02   0.01  -0.14     0.01  -0.11  -0.01
    14   1    -0.05   0.00  -0.02     0.60  -0.05   0.26     0.23   0.25  -0.03
    15   1     0.05   0.00  -0.01    -0.65   0.01   0.07     0.18   0.23   0.13
    16   1     0.00   0.00  -0.03    -0.03  -0.02   0.33    -0.49  -0.01  -0.07
                     25                     26                     27
                      A                      A                      A
 Frequencies --   1238.7606              1300.5564              1340.2985
 Red. masses --      1.4977                 7.3202                 7.1778
 Frc consts  --      1.3541                 7.2951                 7.5971
 IR Inten    --     32.5805              1099.9064               336.4379
  Atom  AN      X      Y      Z        X      Y      Z        X      Y      Z
     1   7    -0.03   0.00   0.00    -0.10   0.00  -0.01    -0.04   0.02  -0.05
     2   7    -0.03   0.00   0.00    -0.10   0.00  -0.01     0.04   0.02   0.05
     3   6     0.06  -0.02   0.01     0.35  -0.22   0.05     0.34  -0.23   0.08
     4   6     0.06   0.02   0.01     0.35   0.22   0.05    -0.34  -0.23  -0.08
     5   8     0.00  -0.03   0.00    -0.05   0.03  -0.01     0.07  -0.04   0.01
     6   8     0.00   0.03   0.00    -0.05  -0.03  -0.01    -0.07  -0.04  -0.01
     7   8    -0.02   0.06   0.00    -0.15  -0.20  -0.03     0.15   0.19   0.03
     8   8    -0.02  -0.06   0.00    -0.15   0.20  -0.03    -0.15   0.19  -0.03
     9   6     0.01   0.11  -0.01     0.09  -0.03   0.01     0.10  -0.02   0.01
    10   1    -0.50   0.01  -0.08    -0.10  -0.05   0.00    -0.21  -0.07  -0.01
    11   1     0.23  -0.25  -0.04    -0.25   0.21  -0.07    -0.23   0.19  -0.08
    12   1     0.18  -0.23   0.13    -0.27   0.21  -0.03    -0.25   0.19  -0.01
    13   6     0.01  -0.11  -0.01     0.09   0.03   0.01    -0.10  -0.02  -0.01
    14   1     0.23   0.25  -0.04    -0.25  -0.21  -0.07     0.23   0.19   0.08
    15   1     0.18   0.23   0.14    -0.27  -0.21  -0.03     0.25   0.19   0.01
    16   1    -0.51  -0.01  -0.08    -0.10   0.05   0.00     0.21  -0.07   0.01
                     28                     29                     30
                      A                      A                      A
 Frequencies --   1488.4125              1488.4986              1495.0999
 Red. masses --      1.0425                 1.0422                 1.0605
 Frc consts  --      1.3607                 1.3605                 1.3967
 IR Inten    --      9.4122                22.7595                16.7244
  Atom  AN      X      Y      Z        X      Y      Z        X      Y      Z
     1   7     0.00   0.00   0.00     0.00   0.00   0.00     0.00   0.00   0.00
     2   7     0.00   0.00   0.00     0.00   0.00   0.00     0.00   0.00   0.00
     3   6     0.01   0.00   0.00    -0.01   0.00   0.00     0.02  -0.01   0.00
     4   6     0.00   0.00   0.00    -0.01   0.00   0.00    -0.01   0.00   0.00
     5   8     0.00   0.00   0.00     0.00   0.00   0.00     0.00   0.00   0.00
     6   8     0.00   0.00   0.00     0.00   0.00   0.00     0.00   0.00   0.00
     7   8     0.00   0.00   0.01     0.01   0.00   0.01     0.00   0.00   0.00
     8   8    -0.01   0.00  -0.01     0.00   0.00   0.01    -0.02   0.00   0.00
     9   6    -0.01  -0.02  -0.04     0.01   0.01   0.02    -0.05  -0.03   0.02
    10   1    -0.14   0.02   0.51     0.09  -0.01  -0.32    -0.04  -0.05  -0.34
    11   1    -0.05   0.45   0.17     0.03  -0.29  -0.11     0.47   0.10   0.38
    12   1     0.41  -0.17  -0.06    -0.25   0.11   0.04     0.32   0.45  -0.37
    13   6     0.01  -0.01   0.02     0.01  -0.02   0.04     0.01  -0.01  -0.01
    14   1     0.03   0.29  -0.11     0.05   0.46  -0.17    -0.13   0.03  -0.10
    15   1    -0.26  -0.11   0.03    -0.40  -0.18   0.05    -0.09   0.12   0.10
    16   1     0.09   0.01  -0.32     0.14   0.02  -0.51     0.01  -0.01   0.09
                     31                     32                     33
                      A                      A                      A
 Frequencies --   1495.1507              1503.6216              1504.2742
 Red. masses --      1.0601                 1.1823                 1.1967
 Frc consts  --      1.3963                 1.5749                 1.5955
 IR Inten    --     12.3833                56.1176                 6.5501
  Atom  AN      X      Y      Z        X      Y      Z        X      Y      Z
     1   7     0.00   0.00   0.00     0.01   0.00   0.00     0.00   0.00   0.00
     2   7     0.00   0.00   0.00     0.01   0.00   0.00     0.00   0.00   0.00
     3   6    -0.01   0.00   0.00    -0.04   0.01  -0.01     0.04  -0.01   0.01
     4   6    -0.02  -0.01   0.00    -0.04  -0.01   0.00    -0.04  -0.01  -0.01
     5   8     0.00   0.00   0.00     0.01  -0.02   0.00     0.01  -0.02   0.00
     6   8     0.00   0.00   0.00     0.01   0.02   0.00    -0.01  -0.02   0.00
     7   8     0.02   0.00   0.00     0.03   0.03   0.01     0.03   0.03   0.01
     8   8     0.00   0.00   0.00     0.03  -0.03   0.01    -0.03   0.03  -0.01
     9   6     0.01   0.01  -0.01     0.06  -0.02   0.01    -0.05   0.02  -0.01
    10   1     0.02   0.01   0.09    -0.50  -0.13  -0.07     0.49   0.12   0.07
    11   1    -0.12  -0.03  -0.10    -0.22   0.25  -0.03     0.21  -0.24   0.03
    12   1    -0.08  -0.12   0.10    -0.23   0.26  -0.07     0.22  -0.26   0.07
    13   6     0.05  -0.03  -0.02     0.06   0.02   0.01     0.06   0.02   0.01
    14   1    -0.47   0.11  -0.38    -0.21  -0.24  -0.03    -0.21  -0.25  -0.03
    15   1    -0.32   0.45   0.37    -0.22  -0.26  -0.07    -0.22  -0.27  -0.07
    16   1     0.04  -0.05   0.34    -0.49   0.12  -0.07    -0.50   0.13  -0.07
                     34                     35                     36
                      A                      A                      A
 Frequencies --   1723.4859              1854.7711              1873.6782
 Red. masses --     13.9854                12.1058                12.0318
 Frc consts  --     24.4759                24.5371                24.8870
 IR Inten    --      0.2778                83.9631               824.2605
  Atom  AN      X      Y      Z        X      Y      Z        X      Y      Z
     1   7    -0.46   0.00   0.53    -0.02   0.00   0.00     0.00  -0.02  -0.01
     2   7     0.46   0.00  -0.53    -0.02   0.00   0.00     0.00  -0.02   0.01
     3   6     0.04  -0.01  -0.01     0.26   0.50   0.01     0.26   0.51   0.01
     4   6    -0.04  -0.01   0.01     0.26  -0.50   0.01    -0.26   0.51  -0.01
     5   8     0.00   0.00  -0.01    -0.18   0.31  -0.01     0.18  -0.31   0.01
     6   8     0.00   0.00   0.01    -0.18  -0.31  -0.01    -0.18  -0.31  -0.01
     7   8     0.00   0.00  -0.01     0.01   0.06   0.00     0.00  -0.06   0.00
     8   8     0.00   0.00   0.01     0.01  -0.06   0.00     0.00  -0.06   0.00
     9   6     0.00   0.00   0.00     0.02   0.00   0.00     0.02   0.00   0.00
    10   1    -0.01   0.00   0.00    -0.15  -0.03  -0.02    -0.15  -0.03  -0.02
    11   1     0.00   0.00   0.00    -0.07   0.06  -0.04    -0.07   0.06  -0.05
    12   1     0.02  -0.01   0.00    -0.07   0.07   0.01    -0.08   0.07   0.02
    13   6     0.00   0.00   0.00     0.02   0.00   0.00    -0.02   0.00   0.00
    14   1     0.00   0.00   0.00    -0.07  -0.06  -0.04     0.07   0.06   0.05
    15   1    -0.02  -0.01   0.00    -0.07  -0.07   0.01     0.08   0.07  -0.02
    16   1     0.01   0.00   0.00    -0.15   0.03  -0.02     0.15  -0.03   0.02
                     37                     38                     39
                      A                      A                      A
 Frequencies --   3085.9263              3086.1062              3173.1329
 Red. masses --      1.0303                 1.0304                 1.1086
 Frc consts  --      5.7807                 5.7818                 6.5764
 IR Inten    --     46.0784                 2.4731                 3.0985
  Atom  AN      X      Y      Z        X      Y      Z        X      Y      Z
     1   7     0.00   0.00   0.00     0.00   0.00   0.00     0.00   0.00   0.00
     2   7     0.00   0.00   0.00     0.00   0.00   0.00     0.00   0.00   0.00
     3   6     0.00   0.00   0.00     0.00   0.00   0.00     0.00   0.00   0.00
     4   6     0.00   0.00   0.00     0.00   0.00   0.00     0.00   0.00   0.00
     5   8     0.00   0.00   0.00     0.00   0.00   0.00     0.00   0.00   0.00
     6   8     0.00   0.00   0.00     0.00   0.00   0.00     0.00   0.00   0.00
     7   8     0.00   0.00   0.00     0.00   0.00   0.00     0.00   0.00   0.00
     8   8     0.00   0.00   0.00     0.00   0.00   0.00     0.00   0.00   0.00
     9   6    -0.03  -0.01   0.00     0.03   0.01   0.00     0.00   0.00  -0.04
    10   1     0.05  -0.30   0.03    -0.06   0.33  -0.03     0.00  -0.01  -0.01
    11   1     0.21   0.16  -0.34    -0.23  -0.18   0.38    -0.13  -0.11   0.22
    12   1     0.10   0.20   0.35    -0.11  -0.22  -0.38     0.07   0.14   0.23
    13   6    -0.03   0.01   0.00    -0.03   0.01   0.00    -0.01   0.00   0.09
    14   1     0.23  -0.18  -0.38     0.21  -0.16  -0.34     0.31  -0.25  -0.50
    15   1     0.11  -0.22   0.38     0.10  -0.20   0.35    -0.17   0.33  -0.54
    16   1     0.06   0.33   0.03     0.05   0.30   0.03    -0.01  -0.02   0.01
                     40                     41                     42
                      A                      A                      A
 Frequencies --   3173.1713              3202.6329              3202.6576
 Red. masses --      1.1085                 1.1072                 1.1072
 Frc consts  --      6.5764                 6.6910                 6.6910
 IR Inten    --     19.2597                 0.2758                13.2591
  Atom  AN      X      Y      Z        X      Y      Z        X      Y      Z
     1   7     0.00   0.00   0.00     0.00   0.00   0.00     0.00   0.00   0.00
     2   7     0.00   0.00   0.00     0.00   0.00   0.00     0.00   0.00   0.00
     3   6     0.00   0.00   0.00     0.00   0.00   0.00     0.00   0.00   0.00
     4   6     0.00   0.00   0.00     0.00   0.00   0.00     0.00   0.00   0.00
     5   8     0.00   0.00   0.00     0.00   0.00   0.00     0.00   0.00   0.00
     6   8     0.00   0.00   0.00     0.00   0.00   0.00     0.00   0.00   0.00
     7   8     0.00   0.00   0.00     0.00   0.00   0.00     0.00   0.00   0.00
     8   8     0.00   0.00   0.00     0.00   0.00   0.00     0.00   0.00   0.00
     9   6    -0.01   0.00   0.09     0.00  -0.07   0.00     0.00   0.07   0.00
    10   1    -0.01   0.02   0.01    -0.11   0.62  -0.06     0.11  -0.62   0.06
    11   1     0.31   0.25  -0.50     0.10   0.07  -0.17    -0.10  -0.07   0.17
    12   1    -0.17  -0.33  -0.54     0.06   0.10   0.19    -0.06  -0.10  -0.20
    13   6     0.00   0.00   0.04     0.00   0.07   0.00     0.00   0.07   0.00
    14   1     0.13  -0.11  -0.22     0.10  -0.07  -0.17     0.10  -0.07  -0.17
    15   1    -0.07   0.14  -0.23     0.06  -0.10   0.20     0.06  -0.10   0.19
    16   1     0.00  -0.01   0.01    -0.11  -0.62  -0.06    -0.11  -0.62  -0.06

 -------------------
 - Thermochemistry -
 -------------------
 Temperature   298.150 Kelvin.  Pressure   1.00000 Atm.
 Atom     1 has atomic number  7 and mass  14.00307
 Atom     2 has atomic number  7 and mass  14.00307
 Atom     3 has atomic number  6 and mass  12.00000
 Atom     4 has atomic number  6 and mass  12.00000
 Atom     5 has atomic number  8 and mass  15.99491
 Atom     6 has atomic number  8 and mass  15.99491
 Atom     7 has atomic number  8 and mass  15.99491
 Atom     8 has atomic number  8 and mass  15.99491
 Atom     9 has atomic number  6 and mass  12.00000
 Atom    10 has atomic number  1 and mass   1.00783
 Atom    11 has atomic number  1 and mass   1.00783
 Atom    12 has atomic number  1 and mass   1.00783
 Atom    13 has atomic number  6 and mass  12.00000
 Atom    14 has atomic number  1 and mass   1.00783
 Atom    15 has atomic number  1 and mass   1.00783
 Atom    16 has atomic number  1 and mass   1.00783
 Molecular mass:   146.03276 amu.
 Principal axes and moments of inertia in atomic units:
                           1         2         3
     Eigenvalues --   482.678953023.301223418.19918
           X            0.99998   0.00000   0.00592
           Y            0.00000   1.00000   0.00000
           Z           -0.00592   0.00000   0.99998
 This molecule is an asymmetric top.
 Rotational symmetry number  1.
 Warning -- assumption of classical behavior for rotation
           may cause significant error
 Rotational temperatures (Kelvin)      0.17944     0.02865     0.02534
 Rotational constants (GHZ):           3.73901     0.59694     0.52798
 Zero-point vibrational energy     303571.7 (Joules/Mol)
                                   72.55537 (Kcal/Mol)
 Warning -- explicit consideration of  13 degrees of freedom as
           vibrations may cause significant error
 Vibrational temperatures:     54.15   113.47   116.00   137.91   181.52
          (Kelvin)            215.03   229.72   368.65   385.23   406.96
                              447.24   640.70   871.28   909.02   933.38
                             1218.37  1241.87  1319.33  1412.63  1520.77
                             1526.96  1712.12  1712.19  1782.03  1782.30
                             1871.21  1928.39  2141.49  2141.61  2151.11
                             2151.19  2163.37  2164.31  2479.71  2668.60
                             2695.80  4439.95  4440.21  4565.42  4565.48
                             4607.87  4607.90
 
 Zero-point correction=                           0.115624 (Hartree/Particle)
 Thermal correction to Energy=                    0.126452
 Thermal correction to Enthalpy=                  0.127396
 Thermal correction to Gibbs Free Energy=         0.077517
 Sum of electronic and zero-point Energies=           -566.319307
 Sum of electronic and thermal Energies=              -566.308479
 Sum of electronic and thermal Enthalpies=            -566.307535
 Sum of electronic and thermal Free Energies=         -566.357414
 
                     E (Thermal)             CV                S
                      KCal/Mol        Cal/Mol-Kelvin    Cal/Mol-Kelvin
 Total                   79.350             34.903            104.980
 Electronic               0.000              0.000              0.000
 Translational            0.889              2.981             40.847
 Rotational               0.889              2.981             29.990
 Vibrational             77.572             28.941             34.142
 Vibration     1          0.594              1.982              5.380
 Vibration     2          0.600              1.963              3.919
 Vibration     3          0.600              1.962              3.876
 Vibration     4          0.603              1.952              3.537
 Vibration     5          0.611              1.927              3.004
 Vibration     6          0.618              1.903              2.679
 Vibration     7          0.622              1.892              2.554
 Vibration     8          0.666              1.752              1.687
 Vibration     9          0.673              1.732              1.611
 Vibration    10          0.682              1.705              1.516
 Vibration    11          0.700              1.653              1.358
 Vibration    12          0.805              1.371              0.810
 Vibration    13          0.964              1.020              0.440
                       Q            Log10(Q)             Ln(Q)
 Total Bot       0.221126D-35        -35.655360        -82.099500
 Total V=0       0.337312D+18         17.528032         40.359785
 Vib (Bot)       0.398744D-49        -49.399305       -113.746104
 Vib (Bot)    1  0.549849D+01          0.740244          1.704474
 Vib (Bot)    2  0.261184D+01          0.416946          0.960054
 Vib (Bot)    3  0.255421D+01          0.407256          0.937742
 Vib (Bot)    4  0.214272D+01          0.330966          0.762078
 Vib (Bot)    5  0.161738D+01          0.208812          0.480807
 Vib (Bot)    6  0.135693D+01          0.132557          0.305223
 Vib (Bot)    7  0.126632D+01          0.102543          0.236113
 Vib (Bot)    8  0.759452D+00         -0.119499         -0.275158
 Vib (Bot)    9  0.722620D+00         -0.141090         -0.324871
 Vib (Bot)   10  0.678693D+00         -0.168327         -0.387587
 Vib (Bot)   11  0.608016D+00         -0.216085         -0.497553
 Vib (Bot)   12  0.386557D+00         -0.412786         -0.950476
 Vib (Bot)   13  0.245163D+00         -0.610545         -1.405832
 Vib (V=0)       0.608256D+04          3.784086          8.713181
 Vib (V=0)    1  0.602118D+01          0.779682          1.795283
 Vib (V=0)    2  0.315927D+01          0.499586          1.150340
 Vib (V=0)    3  0.310269D+01          0.491738          1.132268
 Vib (V=0)    4  0.270029D+01          0.431410          0.993358
 Vib (V=0)    5  0.219290D+01          0.341019          0.785225
 Vib (V=0)    6  0.194612D+01          0.289169          0.665836
 Vib (V=0)    7  0.186146D+01          0.269853          0.621359
 Vib (V=0)    8  0.140927D+01          0.148994          0.343070
 Vib (V=0)    9  0.137874D+01          0.139482          0.321169
 Vib (V=0)   10  0.134298D+01          0.128071          0.294895
 Vib (V=0)   11  0.128720D+01          0.109646          0.252469
 Vib (V=0)   12  0.113200D+01          0.053847          0.123988
 Vib (V=0)   13  0.105687D+01          0.024022          0.055312
 Electronic      0.100000D+01          0.000000          0.000000
 Translational   0.693634D+08          7.841131         18.054871
 Rotational      0.799494D+06          5.902815         13.591734
 ***** Axes restored to original set *****
 -------------------------------------------------------------------
 Center     Atomic                   Forces (Hartrees/Bohr)
 Number     Number              X              Y              Z
 -------------------------------------------------------------------
      1        7          -0.000010990    0.000008684    0.000002447
      2        7           0.000011226    0.000007087    0.000001172
      3        6          -0.000005586   -0.000033329    0.000008251
      4        6           0.000007214   -0.000035351   -0.000015871
      5        8          -0.000006671    0.000018057    0.000009238
      6        8           0.000004116    0.000014958   -0.000006270
      7        8          -0.000001693    0.000010802    0.000005325
      8        8           0.000006659    0.000010897   -0.000006910
      9        6          -0.000008288   -0.000002459   -0.000000658
     10        1           0.000001021    0.000003477   -0.000003028
     11        1          -0.000000968   -0.000000216   -0.000009401
     12        1           0.000003033   -0.000001670   -0.000004620
     13        6          -0.000000282   -0.000000767    0.000007332
     14        1           0.000001767   -0.000000729    0.000006377
     15        1          -0.000000567   -0.000000929    0.000003112
     16        1           0.000000010    0.000001488    0.000003505
 -------------------------------------------------------------------
 Cartesian Forces:  Max     0.000035351 RMS     0.000009771

 GradGradGradGradGradGradGradGradGradGradGradGradGradGradGradGradGradGrad
 Berny optimization.
 Search for a local minimum.
 Step number   1 out of a maximum of    2
 All quantities printed in internal units (Hartrees-Bohrs-Radians)
 Second derivative matrix not updated -- analytic derivatives used.
 ITU=  0
     Eigenvalues ---    0.00027   0.00067   0.00132   0.00167   0.00213
     Eigenvalues ---    0.00404   0.00501   0.01700   0.01759   0.02716
     Eigenvalues ---    0.03352   0.06647   0.07826   0.08062   0.09303
     Eigenvalues ---    0.09459   0.11809   0.12135   0.12361   0.13647
     Eigenvalues ---    0.14420   0.15849   0.20990   0.22462   0.23855
     Eigenvalues ---    0.34602   0.37513   0.38210   0.43829   0.53786
     Eigenvalues ---    0.55123   0.66277   0.66535   0.82547   0.83322
     Eigenvalues ---    0.87028   0.88286   0.89914   0.93597   1.57338
     Eigenvalues ---    1.75006   1.77813
 Angle between quadratic step and forces=  84.12 degrees.
 Linear search not attempted -- first point.
 TrRot=  0.000000  0.000026  0.000011  0.000001 -0.000031  0.000001
 Variable       Old X    -DE/DX   Delta X   Delta X   Delta X     New X
                                 (Linear)    (Quad)   (Total)
    X1        0.68325  -0.00001   0.00000   0.00016   0.00019   0.68344
    Y1        0.58842   0.00001   0.00000   0.00016   0.00019   0.58861
    Z1       -0.93434   0.00000   0.00000   0.00015   0.00018  -0.93416
    X2       -0.68327   0.00001   0.00000  -0.00015  -0.00018  -0.68345
    Y2        0.58852   0.00001   0.00000   0.00001   0.00004   0.58856
    Z2        0.93436   0.00000   0.00000  -0.00010  -0.00011   0.93424
    X3        3.33688  -0.00001   0.00000   0.00008   0.00009   3.33696
    Y3        0.68990  -0.00003   0.00000   0.00004   0.00008   0.68998
    Z3       -0.32301   0.00001   0.00000   0.00052   0.00064  -0.32238
    X4       -3.33690   0.00001   0.00000  -0.00006  -0.00007  -3.33697
    Y4        0.68992  -0.00004   0.00000  -0.00002   0.00000   0.68992
    Z4        0.32305  -0.00002   0.00000  -0.00050  -0.00059   0.32246
    X5       -4.45637  -0.00001   0.00000  -0.00005  -0.00006  -4.45643
    Y5        2.64565   0.00002   0.00000   0.00002   0.00004   2.64569
    Z5        0.25194   0.00001   0.00000  -0.00053  -0.00066   0.25128
    X6        4.45633   0.00000   0.00000   0.00006   0.00007   4.45640
    Y6        2.64565   0.00001   0.00000   0.00007   0.00010   2.64576
    Z6       -0.25199  -0.00001   0.00000   0.00076   0.00091  -0.25109
    X7       -4.23113   0.00000   0.00000  -0.00007  -0.00007  -4.23120
    Y7       -1.61014   0.00001   0.00000   0.00001   0.00003  -1.61011
    Z7        0.07001   0.00001   0.00000  -0.00047  -0.00058   0.06943
    X8        4.23115   0.00001   0.00000   0.00007   0.00008   4.23123
    Y8       -1.61014   0.00001   0.00000   0.00005   0.00009  -1.61006
    Z8       -0.06996  -0.00001   0.00000   0.00033   0.00047  -0.06949
    X9        6.90874  -0.00001   0.00000   0.00013   0.00013   6.90887
    Y9       -1.81143   0.00000   0.00000  -0.00007  -0.00004  -1.81147
    Z9        0.32615   0.00000   0.00000  -0.00032  -0.00010   0.32605
   X10        7.28331   0.00000   0.00000  -0.00005  -0.00006   7.28325
   Y10       -3.82001   0.00000   0.00000   0.00000   0.00003  -3.81997
   Z10        0.52051   0.00000   0.00000   0.00066   0.00090   0.52140
   X11        7.92404   0.00000   0.00000  -0.00032  -0.00028   7.92376
   Y11       -1.04268   0.00000   0.00000  -0.00114  -0.00110  -1.04377
   Z11       -1.29136  -0.00001   0.00000  -0.00113  -0.00088  -1.29224
   X12        7.45404   0.00000   0.00000   0.00087   0.00081   7.45485
   Y12       -0.81135   0.00000   0.00000   0.00078   0.00081  -0.81054
   Z12        2.04036   0.00000   0.00000  -0.00106  -0.00082   2.03954
   X13       -6.90869   0.00000   0.00000  -0.00016  -0.00015  -6.90884
   Y13       -1.81149   0.00000   0.00000  -0.00006  -0.00005  -1.81154
   Z13       -0.32619   0.00001   0.00000   0.00024   0.00003  -0.32615
   X14       -7.92402   0.00000   0.00000   0.00030   0.00027  -7.92375
   Y14       -1.04347   0.00000   0.00000  -0.00051  -0.00049  -1.04396
   Z14        1.29167   0.00001   0.00000   0.00075   0.00051   1.29218
   X15       -7.45414   0.00000   0.00000  -0.00074  -0.00068  -7.45482
   Y15       -0.81079   0.00000   0.00000   0.00027   0.00029  -0.81050
   Z15       -2.03998   0.00000   0.00000   0.00062   0.00040  -2.03958
   X16       -7.28312   0.00000   0.00000  -0.00009  -0.00007  -7.28319
   Y16       -3.82001   0.00000   0.00000  -0.00004  -0.00002  -3.82003
   Z16       -0.52134   0.00000   0.00000  -0.00009  -0.00030  -0.52164
         Item               Value     Threshold  Converged?
 Maximum Force            0.000035     0.000450     YES
 RMS     Force            0.000010     0.000300     YES
 Maximum Displacement     0.001099     0.001800     YES
 RMS     Displacement     0.000435     0.001200     YES
 Predicted change in Energy=-1.683946D-10
 Optimization completed.
    -- Stationary point found.
 GradGradGradGradGradGradGradGradGradGradGradGradGradGradGradGradGradGrad

 1\1\GINC-D10S2B3\Freq\RwB97XD\Gen\C4H6N2O4\PMMASS\09-Feb-2022\0\\#n wB
 97XD/Gen scrf(smd,solvent=toluene) freq\\dmad cycloaddition toluene - 
 freq\\0,1\N,0.36156,0.31138,-0.49443\N,-0.36157,0.31143,0.49444\C,1.76
 58,0.36508,-0.17093\C,-1.76581,0.36509,0.17095\O,-2.35821,1.40002,0.13
 332\O,2.35819,1.40002,-0.13335\O,-2.23902,-0.85205,0.03705\O,2.23903,-
 0.85205,-0.03702\C,3.65595,-0.95857,0.17259\H,3.85416,-2.02146,0.27544
 \H,4.19322,-0.55176,-0.68336\H,3.94451,-0.42935,1.07971\C,-3.65592,-0.
 9586,-0.17261\H,-4.19321,-0.55218,0.68352\H,-3.94456,-0.42905,-1.07951
 \H,-3.85406,-2.02146,-0.27588\\Version=ES64L-G09RevD.01\State=1-A\HF=-
 566.4349309\RMSD=6.485e-09\RMSF=9.771e-06\ZeroPoint=0.1156243\Thermal=
 0.1264522\Dipole=0.0000306,-1.8856161,0.0000046\DipoleDeriv=-0.5481467
 ,-0.0004365,-0.0909762,0.0739105,-0.1823221,-0.0043982,-0.060814,-0.03
 61026,-0.0983832,-0.5481582,0.0004338,-0.0909726,-0.0739184,-0.1823167
 ,0.004398,-0.0607861,0.0361058,-0.098391,2.1165615,0.0070884,0.0662626
 ,-0.5131963,2.1903052,-0.1211883,0.2078097,-0.0837924,0.4270365,2.1165
 663,-0.0071064,0.0662634,0.513211,2.1903281,0.1211448,0.2077991,0.0837
 385,0.4270399,-1.0593908,0.3196002,0.0355192,0.1457917,-1.1516702,-0.0
 391619,-0.0657493,-0.0046227,-0.3769276,-1.0593928,-0.3195935,0.035527
 1,-0.1458002,-1.1516674,0.0391726,-0.0657371,0.0046578,-0.3769313,-1.4
 467369,-0.489718,-0.0859908,-0.7136079,-1.2382134,-0.1041643,-0.185128
 ,-0.1151881,-0.2930336,-1.4467645,0.4897194,-0.085996,0.7136012,-1.238
 1986,0.1041952,-0.185094,0.1151883,-0.29303,0.9625473,-0.2671022,0.073
 ,-0.1116123,0.3215613,-0.0188904,0.1151419,-0.0498929,0.2989859,0.0273
 023,-0.0041495,-0.0041098,0.0641429,-0.0649625,0.0179719,-0.0158198,0.
 0122271,0.1069548,-0.0345316,0.0487973,-0.0047047,-0.0437575,0.0704032
 ,0.0696795,0.0594597,0.0524264,-0.0350678,-0.0175753,0.0602947,0.01099
 37,-0.032931,0.0548782,-0.0879232,-0.0549514,-0.0462405,-0.0295622,0.9
 625429,0.2671049,0.0729814,0.1116071,0.3215518,0.0188868,0.1151425,0.0
 499438,0.2989883,-0.0345613,-0.0488051,-0.0046885,0.0437259,0.0704383,
 -0.0696426,0.0594949,-0.0523994,-0.0351268,-0.0175663,-0.0602902,0.010
 981,0.0329611,0.0548407,0.0879572,-0.05493,0.04626,-0.0294944,0.027304
 1,0.0041627,-0.0040897,-0.064128,-0.064956,-0.0180372,-0.015838,-0.012
 3091,0.1069423\Polar=114.6257204,-0.0001814,83.62443,-1.6727969,0.0000
 209,63.7353646\PG=C01 [X(C4H6N2O4)]\NImag=0\\0.58424193,-0.00135778,0.
 08472450,-0.27954265,-0.00031204,0.56381875,-0.29789814,0.00155180,0.3
 0804617,0.58424664,-0.00151965,0.03811840,-0.00133378,0.00132802,0.084
 72405,0.30804562,0.00128056,-0.50526785,-0.27954376,0.00036391,0.56381
 920,-0.15600808,-0.00105169,-0.01754812,-0.05303958,0.00390728,0.01150
 534,0.68976603,0.01330767,-0.06361566,0.00216063,-0.00425093,-0.034276
 15,0.00044149,0.18041450,0.96274601,-0.05945625,-0.00031699,-0.1046783
 9,0.05723657,0.00116024,0.00774783,0.04252110,-0.01298934,0.26693275,-
 0.05303979,-0.00390691,0.01150472,-0.15601201,0.00104943,-0.01754610,-
 0.02006643,0.00647374,-0.00226160,0.68977418,0.00425531,-0.03427655,-0
 .00043970,-0.01331450,-0.06361587,-0.00216224,-0.00647363,0.03212793,-
 0.00107156,-0.18042469,0.96274947,0.05723549,-0.00115582,0.00774827,-0
 .05945575,0.00031248,-0.10467815,-0.00226121,0.00106799,-0.00456542,0.
 04253725,0.01296652,0.26693106,-0.00240053,0.01244561,-0.00202853,-0.0
 3707614,0.04362439,-0.00809255,0.01024883,-0.00929772,0.00326773,-0.28
 502892,0.29782472,-0.01814129,0.29128803,-0.00165148,-0.00208786,0.000
 14882,0.03461841,-0.00905048,0.00847343,-0.00278757,0.00040784,-0.0015
 3761,0.29319676,-0.59515322,0.01653350,-0.34516172,0.70919316,-0.00798
 282,0.00082576,-0.00075570,-0.00461864,0.00749937,0.02311428,0.0013233
 9,-0.00132724,0.00095973,-0.01431242,0.01819512,-0.08955246,0.02485149
 ,-0.01959559,0.03890135,-0.03707464,-0.04362401,-0.00809009,-0.0024005
 4,-0.01244595,-0.00202754,-0.28502003,-0.29781551,-0.01812557,0.010248
 94,0.00929781,0.00326676,-0.00714667,0.00226006,-0.00126207,0.29127434
 ,-0.03461768,-0.00905197,-0.00847264,0.00165139,-0.00208809,-0.0001483
 4,-0.29318789,-0.59515158,-0.01651024,0.00278779,0.00040803,0.00153758
 ,-0.00226019,0.00167861,-0.00043731,0.34515198,0.70919358,-0.00461669,
 -0.00749760,0.02311501,-0.00798258,-0.00082622,-0.00075578,-0.01429678
 ,-0.01817009,-0.08955363,0.00132324,0.00132773,0.00095952,-0.00126209,
 0.00043718,-0.00023800,0.02483084,0.01956864,0.03889962,-0.00310536,-0
 .00946028,-0.00205658,-0.03815418,-0.04532407,-0.00996319,0.00815053,0
 .00496964,0.00268731,-0.15339302,-0.08521167,-0.01924788,0.02879133,0.
 00620731,0.00088697,-0.00263820,-0.00087615,-0.00043700,0.44469430,-0.
 00002589,-0.00103264,-0.00013199,-0.02151307,-0.00783241,-0.00754355,0
 .00504522,-0.00180847,0.00173868,-0.06276491,-0.29129985,-0.02106736,0
 .00236760,-0.10836911,-0.00548921,-0.00214716,0.00001928,-0.00044500,0
 .11162819,0.48291471,-0.00305609,-0.00168071,-0.00131725,-0.00986440,-
 0.00782038,0.01066644,0.00141248,0.00052564,0.00065800,-0.01394338,-0.
 02410103,-0.07599472,0.00084854,-0.00710911,0.03166452,-0.00058953,-0.
 00022520,-0.00011985,0.06065272,0.03925060,0.09038486,-0.03815537,0.04
 532401,-0.00996406,-0.00310575,0.00945965,-0.00205674,-0.15339617,0.08
 521509,-0.01925048,0.00815053,-0.00496952,0.00268797,-0.00263816,0.000
 87609,-0.00043714,0.02879083,-0.00620552,0.00088852,-0.00582142,-0.002
 51342,-0.00096570,0.44468471,0.02151205,-0.00783093,0.00754292,0.00002
 609,-0.00103219,0.00013194,0.06276871,-0.29129968,0.02107444,-0.005045
 08,-0.00180858,-0.00173853,0.00214710,0.00001933,0.00044498,-0.0023660
 3,-0.10836905,0.00549192,0.00251332,0.00192856,0.00045331,-0.11162678,
 0.48291110,-0.00986489,0.00782066,0.01066662,-0.00305641,0.00168020,-0
 .00131722,-0.01394304,0.02410494,-0.07599617,0.00141236,-0.00052538,0.
 00065799,-0.00058950,0.00022518,-0.00011986,0.00084906,0.00711211,0.03
 166511,-0.00096555,-0.00045328,-0.00008219,0.06064946,-0.03925793,0.09
 038377,0.00377393,-0.00173670,0.00042149,0.00167010,-0.00024619,-0.000
 32868,-0.03400713,0.04265099,-0.00634368,-0.00388091,-0.00009961,-0.00
 058932,0.00176883,-0.00062592,0.00016437,-0.00172627,-0.01938141,0.001
 04759,0.00187775,0.00094589,0.00028817,-0.19345984,0.00491851,-0.01882
 726,0.44743027,-0.00000890,-0.00352762,0.00047888,0.00032703,-0.001091
 05,-0.00022641,0.04973929,-0.01530951,0.00835773,0.00064661,0.00095822
 ,-0.00012444,-0.00040069,0.00005531,-0.00000257,0.00130154,0.00356279,
 -0.00017253,0.00002799,-0.00011678,0.00001452,-0.02083790,-0.08049578,
 -0.00209402,0.00910111,0.63605440,0.00167796,0.00072395,0.00749878,-0.
 00253964,0.00009089,-0.00020971,-0.00700493,0.00746435,-0.00330430,-0.
 00058411,-0.00039209,0.00010029,0.00025706,-0.00000830,-0.00001176,0.0
 0012707,-0.00331327,-0.00427510,0.00004867,0.00007547,-0.00002731,-0.0
 1696774,0.00134682,-0.06755337,-0.02272383,-0.00163870,0.59926930,-0.0
 0040256,0.00141105,-0.00013713,-0.00031763,0.00044893,0.00005298,-0.00
 682739,-0.00417032,-0.00102949,0.00045563,-0.00024579,0.00013981,-0.00
 014455,0.00004017,-0.00002394,0.00230551,0.00090914,0.00022245,-0.0003
 3120,-0.00016988,-0.00005316,-0.02180638,0.04296744,-0.00601392,-0.053
 58178,0.03124845,-0.00214352,0.07256384,0.00003907,0.00003631,0.000044
 97,0.00009358,0.00000955,-0.00002093,-0.00149322,0.00100580,-0.0002671
 7,-0.00026229,-0.00007415,-0.00003560,0.00011913,-0.00002366,0.0000133
 0,0.00106854,0.00028484,0.00016333,0.00012041,0.00008032,0.00001611,0.
 00155662,0.00127742,0.00026532,0.04710857,-0.32856015,0.02622291,-0.05
 097566,0.34557548,0.00004294,0.00026418,0.00023942,-0.00016342,0.00004
 909,-0.00000076,-0.00094805,-0.00078441,-0.00014207,0.00008245,-0.0000
 6381,0.00004248,-0.00002627,0.00001488,-0.00000859,0.00032379,0.000086
 70,0.00042609,-0.00006743,-0.00002972,-0.00002437,-0.00323986,0.006222
 10,-0.00033182,-0.00330530,0.02410133,-0.05409751,0.00705765,-0.028504
 15,0.04889094,-0.00075894,0.00022061,-0.00129152,0.00040479,0.00018275
 ,-0.00009227,0.00084312,-0.00928500,0.00234937,0.00053775,-0.00001475,
 0.00006482,-0.00022050,0.00007168,-0.00002182,0.00123371,0.00305835,0.
 00032709,-0.00023603,-0.00012227,-0.00003927,-0.03638380,-0.00611339,0
 .02369963,-0.10589174,-0.04439429,0.09629674,0.00499864,0.00117681,-0.
 00496464,0.12904236,0.00017307,-0.00017531,0.00077901,-0.00030800,0.00
 001535,-0.00003670,0.00224114,0.00221964,-0.00139731,0.00007956,0.0000
 4646,0.00004376,-0.00005621,0.00001303,-0.00001443,-0.00060978,-0.0001
 7564,-0.00005549,-0.00004881,-0.00003388,-0.00001658,0.00275281,0.0017
 4733,-0.00502770,-0.04965944,-0.09158658,0.08544767,-0.01442345,-0.008
 05962,0.02475191,0.05183677,0.08903562,-0.00010615,-0.00012973,-0.0007
 1603,0.00016871,-0.00007930,0.00002577,0.00027686,0.00104075,0.0012081
 0,0.00006967,0.00009101,0.00000554,-0.00003677,-0.00000810,-0.00000220
 ,-0.00092968,-0.00032129,-0.00021857,-0.00001286,-0.00002665,0.0000006
 8,-0.00512600,-0.00414817,0.01088910,0.10518472,0.08411966,-0.23044313
 ,-0.00040437,-0.00071431,-0.00013635,-0.11085684,-0.09122820,0.2374833
 1,-0.00048782,0.00061120,0.00108839,-0.00044193,0.00004149,-0.00003419
 ,0.00174460,-0.00866927,-0.00133627,0.00049911,-0.00009708,0.00012594,
 -0.00021882,0.00008765,-0.00002026,0.00096811,0.00254375,-0.00014293,-
 0.00029237,-0.00013181,-0.00004274,-0.02787729,-0.01118008,-0.03350290
 ,-0.06346122,-0.02682579,-0.04636669,0.00304802,0.00147936,0.00519855,
 0.00636556,0.00800871,0.01177204,0.08009315,0.00018803,-0.00011577,-0.
 00071233,0.00018110,-0.00009871,0.00003682,0.00143589,0.00190821,0.001
 63712,0.00009412,0.00011505,-0.00000579,-0.00005423,-0.00000353,-0.000
 00354,-0.00046350,-0.00035197,0.00017088,-0.00001562,-0.00002281,0.000
 00812,0.00105285,0.00304562,0.00617206,-0.03289632,-0.12000547,-0.1159
 8356,-0.00703238,-0.01154559,-0.02610760,0.00337046,0.00695043,0.01140
 070,0.03412740,0.12011899,0.00009332,0.00030035,-0.00013598,0.00006441
 ,0.00006160,-0.00003077,-0.00066746,-0.00399849,0.00059770,0.00006270,
 -0.00009873,-0.00001236,-0.00001393,0.00002244,0.00000743,0.00144672,0
 .00114413,0.00011069,-0.00004612,0.00000168,-0.00000153,-0.00614058,0.
 00245705,0.00119056,-0.05493509,-0.11284707,-0.24694359,0.00233877,0.0
 0282053,0.00513738,-0.00548069,-0.01325181,-0.01809448,0.06326286,0.12
 338881,0.25817572,0.00167014,0.00024629,-0.00032856,0.00377370,0.00173
 674,0.00042121,-0.00388088,0.00009950,-0.00058929,-0.03400540,-0.04265
 050,-0.00634433,-0.00172803,0.01938066,0.00104634,0.00176884,0.0006259
 6,0.00016433,-0.19347526,-0.00492409,-0.01883081,0.00187777,-0.0009458
 5,0.00028813,-0.00081901,0.00009346,-0.00009944,0.00009009,-0.00005158
 ,0.00002024,0.00010895,0.00002151,0.00000572,0.00010797,0.00001610,0.0
 0002033,0.44745709,-0.00032720,-0.00109095,0.00022654,0.00000955,-0.00
 352780,-0.00047859,-0.00064657,0.00095827,0.00012439,-0.04974024,-0.01
 531045,-0.00836130,-0.00130275,0.00356314,0.00017168,0.00040068,0.0000
 5530,0.00000257,0.02083364,-0.08049731,0.00209538,-0.00002803,-0.00011
 676,-0.00001453,-0.00009345,0.00006211,-0.00003790,-0.00000298,-0.0000
 0756,0.00000039,0.00001449,0.00000265,0.00000369,0.00000641,0.00000500
 ,0.00000022,-0.00911124,0.63604844,-0.00253955,-0.00009112,-0.00020987
 ,0.00167881,-0.00072314,0.00749936,-0.00058427,0.00039223,0.00010027,-
 0.00700524,-0.00747342,-0.00330553,0.00012283,0.00331442,-0.00427590,0
 .00025713,0.00000831,-0.00001176,-0.01697292,-0.00134412,-0.06755307,0
 .00004870,-0.00007552,-0.00002730,-0.00009946,0.00003790,-0.00000691,0
 .00000139,-0.00000742,0.00000462,0.00001574,0.00000579,-0.00000088,0.0
 0000529,-0.00000012,0.00000058,-0.02271334,0.00164256,0.59926973,0.000
 40480,-0.00018273,-0.00009219,-0.00075929,-0.00022083,-0.00129207,0.00
 053802,0.00001468,0.00006486,0.00084227,0.00928451,0.00234991,0.001232
 21,-0.00305916,0.00032743,-0.00022062,-0.00007171,-0.00002183,-0.03638
 666,0.00610052,0.02370454,-0.00023615,0.00012234,-0.00003929,0.0001090
 0,-0.00001450,0.00001574,-0.00001293,0.00000729,-0.00000189,-0.0000153
 7,-0.00000226,-0.00000212,-0.00001558,-0.00000283,-0.00000233,-0.10588
 556,0.04435772,0.09631297,0.12904182,0.00030791,0.00001528,0.00003667,
 -0.00017327,-0.00017534,-0.00077876,-0.00007953,0.00004647,-0.00004375
 ,-0.00224124,0.00221976,0.00139746,0.00061025,-0.00017715,0.00005457,0
 .00005619,0.00001302,0.00001442,-0.00275424,0.00174553,0.00502691,0.00
 004879,-0.00003388,0.00001658,-0.00002150,0.00000265,-0.00000578,0.000
 00217,-0.00000180,-0.00000157,0.00000225,-0.00000008,0.00000090,0.0000
 0346,0.00000239,0.00000058,0.04961839,-0.09151197,-0.08537926,-0.05179
 100,0.08895620,0.00016883,0.00007929,0.00002579,-0.00010619,0.00012958
 ,-0.00071638,0.00006956,-0.00009098,0.00000552,0.00027597,-0.00103935,
 0.00120744,-0.00092850,0.00032016,-0.00021847,-0.00003672,0.00000812,-
 0.00000218,-0.00512678,0.00414399,0.01089306,-0.00001281,0.00002662,0.
 00000069,0.00000570,-0.00000368,-0.00000088,-0.00000181,0.00000085,-0.
 00000093,-0.00000212,-0.00000090,-0.00000124,-0.00000112,0.00000010,0.
 00000130,0.10520226,-0.08405137,-0.23051233,-0.11087719,0.09115624,0.2
 3755876,-0.00044162,-0.00004155,-0.00003429,-0.00048774,-0.00061088,0.
 00108806,0.00049897,0.00009711,0.00012588,0.00174522,0.00866937,-0.001
 33581,0.00096761,-0.00254371,-0.00014354,-0.00021876,-0.00008764,-0.00
 002024,-0.02787705,0.01119107,-0.03349472,-0.00029230,0.00013175,-0.00
 004272,0.00010795,-0.00000641,0.00000529,-0.00001544,0.00000652,-0.000
 00430,-0.00001557,-0.00000346,-0.00000113,-0.00001602,-0.00000111,-0.0
 0000167,-0.06347844,0.02685640,-0.04636950,0.00636658,-0.00801324,0.01
 176927,0.08010886,-0.00018104,-0.00009876,-0.00003687,-0.00018809,-0.0
 0011561,0.00071255,-0.00009421,0.00011503,0.00000576,-0.00143589,0.001
 90794,-0.00163725,0.00046337,-0.00035018,-0.00017137,0.00005428,-0.000
 00350,0.00000354,-0.00105274,0.00304849,-0.00617275,0.00001567,-0.0000
 2282,-0.00000811,-0.00001612,0.00000500,0.00000012,-0.00000006,-0.0000
 0126,0.00000230,0.00000283,0.00000239,-0.00000010,0.00000112,-0.000000
 60,-0.00000062,0.03292971,-0.12008462,0.11602398,-0.00336837,0.0069485
 7,-0.01138941,-0.03416385,0.12020438,0.00006439,-0.00006163,-0.0000307
 9,0.00009333,-0.00030036,-0.00013576,0.00006259,0.00009877,-0.00001238
 ,-0.00066824,0.00399942,0.00059828,0.00144671,-0.00114446,0.00010931,-
 0.00001387,-0.00002242,0.00000743,-0.00613956,-0.00245669,0.00118721,-
 0.00004608,-0.00000170,-0.00000153,0.00002031,-0.00000022,0.00000058,-
 0.00000124,0.00000066,-0.00000114,-0.00000233,-0.00000058,0.00000130,-
 0.00000167,0.00000062,-0.00000151,-0.05493608,0.11288695,-0.24684935,-
 0.00548361,0.01326164,-0.01809372,0.06326345,-0.12343298,0.25807556,-0
 .00031793,-0.00044892,0.00005295,-0.00040231,-0.00141112,-0.00013613,0
 .00045560,0.00024583,0.00013980,-0.00682713,0.00417004,-0.00103234,0.0
 0230547,-0.00090922,0.00022265,-0.00014454,-0.00004018,-0.00002393,-0.
 02180316,-0.04296601,-0.00602665,-0.00033122,0.00016988,-0.00005315,0.
 00009008,0.00000298,0.00000138,-0.00002185,0.00000684,-0.00000446,-0.0
 0001292,-0.00000217,-0.00000182,-0.00001545,0.00000006,-0.00000124,-0.
 05358197,-0.03122641,-0.00215857,0.00499746,0.01442461,-0.00039837,0.0
 0304774,0.00703339,0.00234190,0.07256213,-0.00009350,0.00000952,0.0000
 2093,-0.00003911,0.00003634,-0.00004519,0.00026227,-0.00007415,0.00003
 559,0.00149323,0.00100580,0.00026678,-0.00106865,0.00028477,-0.0001635
 3,-0.00011913,-0.00002366,-0.00001330,-0.00155693,0.00127637,-0.000264
 80,-0.00012040,0.00008031,-0.00001609,0.00005158,-0.00000755,0.0000074
 2,-0.00000684,0.00000407,-0.00000162,-0.00000729,-0.00000181,-0.000000
 85,-0.00000652,-0.00000126,-0.00000066,-0.04708505,-0.32854750,-0.0263
 3105,-0.00117369,-0.00804966,0.00071074,-0.00148038,-0.01155448,-0.002
 82701,0.05095041,0.34556289,-0.00016347,-0.00004911,-0.00000077,0.0000
 4280,-0.00026418,0.00023953,0.00008254,0.00006378,0.00004247,-0.000947
 27,0.00078752,-0.00014224,0.00032507,-0.00008684,0.00042631,-0.0000263
 0,-0.00001487,-0.00000859,-0.00323979,-0.00622284,-0.00033446,-0.00006
 748,0.00002977,-0.00002438,0.00002026,-0.00000040,0.00000462,-0.000004
 46,0.00000162,0.00000262,-0.00000190,0.00000157,-0.00000093,-0.0000043
 1,-0.00000230,-0.00000114,-0.00332671,-0.02421069,-0.05412165,-0.00496
 295,-0.02475686,-0.00014643,0.00519598,0.02610121,0.00514651,0.0070779
 9,0.02862264,0.04891853\\0.00001099,-0.00000868,-0.00000245,-0.0000112
 3,-0.00000709,-0.00000117,0.00000559,0.00003333,-0.00000825,-0.0000072
 1,0.00003535,0.00001587,0.00000667,-0.00001806,-0.00000924,-0.00000412
 ,-0.00001496,0.00000627,0.00000169,-0.00001080,-0.00000533,-0.00000666
 ,-0.00001090,0.00000691,0.00000829,0.00000246,0.00000066,-0.00000102,-
 0.00000348,0.00000303,0.00000097,0.00000022,0.00000940,-0.00000303,0.0
 0000167,0.00000462,0.00000028,0.00000077,-0.00000733,-0.00000177,0.000
 00073,-0.00000638,0.00000057,0.00000093,-0.00000311,-0.00000001,-0.000
 00149,-0.00000350\\\@


 NATURE WILL TELL YOU A DIRECT LIE IF SHE CAN.

                                -- CHARLES DARWIN
 Job cpu time:       0 days  2 hours 45 minutes 47.7 seconds.
 File lengths (MBytes):  RWF=    252 Int=      0 D2E=      0 Chk=     13 Scr=      1
 Normal termination of Gaussian 09 at Wed Feb  9 15:29:43 2022.
