 Entering Gaussian System, Link 0=g09
 Input=dmad_ma.com
 Output=dmad_ma.log
 Initial command:
 /apps/applications/gaussian/G09.D01/2/default/g09/l1.exe "/nobackup/pmmass/Temp/Gau-1627.inp" -scrdir="/nobackup/pmmass/Temp/"
 Entering Link 1 = /apps/applications/gaussian/G09.D01/2/default/g09/l1.exe PID=      1628.
  
 Copyright (c) 1988,1990,1992,1993,1995,1998,2003,2009,2013,
            Gaussian, Inc.  All Rights Reserved.
  
 This is part of the Gaussian(R) 09 program.  It is based on
 the Gaussian(R) 03 system (copyright 2003, Gaussian, Inc.),
 the Gaussian(R) 98 system (copyright 1998, Gaussian, Inc.),
 the Gaussian(R) 94 system (copyright 1995, Gaussian, Inc.),
 the Gaussian 92(TM) system (copyright 1992, Gaussian, Inc.),
 the Gaussian 90(TM) system (copyright 1990, Gaussian, Inc.),
 the Gaussian 88(TM) system (copyright 1988, Gaussian, Inc.),
 the Gaussian 86(TM) system (copyright 1986, Carnegie Mellon
 University), and the Gaussian 82(TM) system (copyright 1983,
 Carnegie Mellon University). Gaussian is a federally registered
 trademark of Gaussian, Inc.
  
 This software contains proprietary and confidential information,
 including trade secrets, belonging to Gaussian, Inc.
  
 This software is provided under written license and may be
 used, copied, transmitted, or stored only in accord with that
 written license.
  
 The following legend is applicable only to US Government
 contracts under FAR:
  
                    RESTRICTED RIGHTS LEGEND
  
 Use, reproduction and disclosure by the US Government is
 subject to restrictions as set forth in subparagraphs (a)
 and (c) of the Commercial Computer Software - Restricted
 Rights clause in FAR 52.227-19.
  
 Gaussian, Inc.
 340 Quinnipiac St., Bldg. 40, Wallingford CT 06492
  
  
 ---------------------------------------------------------------
 Warning -- This program may not be used in any manner that
 competes with the business of Gaussian, Inc. or will provide
 assistance to any competitor of Gaussian, Inc.  The licensee
 of this program is prohibited from giving any competitor of
 Gaussian, Inc. access to this program.  By using this program,
 the user acknowledges that Gaussian, Inc. is engaged in the
 business of creating and licensing software in the field of
 computational chemistry and represents and warrants to the
 licensee that it is not a competitor of Gaussian, Inc. and that
 it will not use this program in any manner prohibited above.
 ---------------------------------------------------------------
  

 Cite this work as:
 Gaussian 09, Revision D.01,
 M. J. Frisch, G. W. Trucks, H. B. Schlegel, G. E. Scuseria, 
 M. A. Robb, J. R. Cheeseman, G. Scalmani, V. Barone, B. Mennucci, 
 G. A. Petersson, H. Nakatsuji, M. Caricato, X. Li, H. P. Hratchian, 
 A. F. Izmaylov, J. Bloino, G. Zheng, J. L. Sonnenberg, M. Hada, 
 M. Ehara, K. Toyota, R. Fukuda, J. Hasegawa, M. Ishida, T. Nakajima, 
 Y. Honda, O. Kitao, H. Nakai, T. Vreven, J. A. Montgomery, Jr., 
 J. E. Peralta, F. Ogliaro, M. Bearpark, J. J. Heyd, E. Brothers, 
 K. N. Kudin, V. N. Staroverov, T. Keith, R. Kobayashi, J. Normand, 
 K. Raghavachari, A. Rendell, J. C. Burant, S. S. Iyengar, J. Tomasi, 
 M. Cossi, N. Rega, J. M. Millam, M. Klene, J. E. Knox, J. B. Cross, 
 V. Bakken, C. Adamo, J. Jaramillo, R. Gomperts, R. E. Stratmann, 
 O. Yazyev, A. J. Austin, R. Cammi, C. Pomelli, J. W. Ochterski, 
 R. L. Martin, K. Morokuma, V. G. Zakrzewski, G. A. Voth, 
 P. Salvador, J. J. Dannenberg, S. Dapprich, A. D. Daniels, 
 O. Farkas, J. B. Foresman, J. V. Ortiz, J. Cioslowski, 
 and D. J. Fox, Gaussian, Inc., Wallingford CT, 2013.
 
 ******************************************
 Gaussian 09:  ES64L-G09RevD.01 24-Apr-2013
                 9-Feb-2022 
 ******************************************
 %nprocshared=8
 Will use up to    8 processors via shared memory.
 %mem=4GB
 %NoSave
 %chk="dmad_ma.chk"
 -------------------------------------------
 #n wB97XD/Gen scrf(smd,solvent=toluene) opt
 -------------------------------------------
 1/14=-1,18=20,19=15,26=3,38=1/1,3;
 2/9=110,12=2,17=6,18=5,40=1/2;
 3/5=7,11=2,16=1,25=1,30=1,70=32201,71=1,72=13,74=-58/1,2,3;
 4//1;
 5/5=2,38=5,53=13/2;
 6/7=2,8=2,9=2,10=2,28=1/1;
 7//1,2,3,16;
 1/14=-1,18=20,19=15,26=3/3(2);
 2/9=110/2;
 99//99;
 2/9=110/2;
 3/5=7,6=1,11=2,16=1,25=1,30=1,70=32205,71=1,72=13,74=-58,82=7/1,2,3;
 4/5=5,16=3,69=1/1;
 5/5=2,38=5,53=13/2;
 7//1,2,3,16;
 1/14=-1,18=20,19=15,26=3/3(-5);
 2/9=110/2;
 6/7=2,8=2,9=2,10=2,19=2,28=1/1;
 99/9=1/99;
 --------------------------------
 dmad cycloaddition toluene - opt
 --------------------------------
 Symbolic Z-matrix:
 Charge =  0 Multiplicity = 1
 N                     0.32992  -1.00523   0.75025 
 N                     0.42221  -0.12849  -0.1039 
 C                    -1.0208   -1.14704   1.25173 
 C                     1.78686   0.07221  -0.54371 
 O                     2.47301   0.93836  -0.08495 
 O                    -1.36621  -0.63328   2.27563 
 O                     2.06625  -0.75981  -1.5255 
 O                    -1.70654  -1.95512   0.46978 
 C                    -3.05001  -2.2483    0.91297 
 H                    -3.45454  -2.9362    0.17308 
 H                    -3.02303  -2.71473   1.89909 
 H                    -3.63899  -1.33042   0.94634 
 C                     3.37288  -0.59758  -2.12037 
 H                     3.46947   0.40617  -2.53733 
 H                     4.14721  -0.77054  -1.37148 
 H                     3.42669  -1.34711  -2.90755 
 

 GradGradGradGradGradGradGradGradGradGradGradGradGradGradGradGradGradGrad
 Berny optimization.
 Initialization pass.
                           ----------------------------
                           !    Initial Parameters    !
                           ! (Angstroms and Degrees)  !
 --------------------------                            --------------------------
 ! Name  Definition              Value          Derivative Info.                !
 --------------------------------------------------------------------------------
 ! R1    R(1,2)                  1.2275         estimate D2E/DX2                !
 ! R2    R(1,3)                  1.4478         estimate D2E/DX2                !
 ! R3    R(2,4)                  1.4478         estimate D2E/DX2                !
 ! R4    R(3,6)                  1.1965         estimate D2E/DX2                !
 ! R5    R(3,8)                  1.3171         estimate D2E/DX2                !
 ! R6    R(4,5)                  1.1964         estimate D2E/DX2                !
 ! R7    R(4,7)                  1.3169         estimate D2E/DX2                !
 ! R8    R(7,13)                 1.4448         estimate D2E/DX2                !
 ! R9    R(8,9)                  1.4447         estimate D2E/DX2                !
 ! R10   R(9,10)                 1.0883         estimate D2E/DX2                !
 ! R11   R(9,11)                 1.0912         estimate D2E/DX2                !
 ! R12   R(9,12)                 1.0911         estimate D2E/DX2                !
 ! R13   R(13,14)                1.0912         estimate D2E/DX2                !
 ! R14   R(13,15)                1.091          estimate D2E/DX2                !
 ! R15   R(13,16)                1.0883         estimate D2E/DX2                !
 ! A1    A(2,1,3)              112.4039         estimate D2E/DX2                !
 ! A2    A(1,2,4)              112.4126         estimate D2E/DX2                !
 ! A3    A(1,3,6)              121.5797         estimate D2E/DX2                !
 ! A4    A(1,3,8)              109.8892         estimate D2E/DX2                !
 ! A5    A(6,3,8)              128.4036         estimate D2E/DX2                !
 ! A6    A(2,4,5)              121.6311         estimate D2E/DX2                !
 ! A7    A(2,4,7)              109.8085         estimate D2E/DX2                !
 ! A8    A(5,4,7)              128.4314         estimate D2E/DX2                !
 ! A9    A(4,7,13)             115.3332         estimate D2E/DX2                !
 ! A10   A(3,8,9)              115.2481         estimate D2E/DX2                !
 ! A11   A(8,9,10)             105.3895         estimate D2E/DX2                !
 ! A12   A(8,9,11)             109.9359         estimate D2E/DX2                !
 ! A13   A(8,9,12)             109.9154         estimate D2E/DX2                !
 ! A14   A(10,9,11)            110.6962         estimate D2E/DX2                !
 ! A15   A(10,9,12)            110.6033         estimate D2E/DX2                !
 ! A16   A(11,9,12)            110.1996         estimate D2E/DX2                !
 ! A17   A(7,13,14)            109.9175         estimate D2E/DX2                !
 ! A18   A(7,13,15)            109.9643         estimate D2E/DX2                !
 ! A19   A(7,13,16)            105.3787         estimate D2E/DX2                !
 ! A20   A(14,13,15)           110.1994         estimate D2E/DX2                !
 ! A21   A(14,13,16)           110.6569         estimate D2E/DX2                !
 ! A22   A(15,13,16)           110.6233         estimate D2E/DX2                !
 ! D1    D(3,1,2,4)            176.3007         estimate D2E/DX2                !
 ! D2    D(2,1,3,6)            -98.0935         estimate D2E/DX2                !
 ! D3    D(2,1,3,8)             85.6844         estimate D2E/DX2                !
 ! D4    D(1,2,4,5)            -96.816          estimate D2E/DX2                !
 ! D5    D(1,2,4,7)             86.9853         estimate D2E/DX2                !
 ! D6    D(1,3,8,9)            176.1404         estimate D2E/DX2                !
 ! D7    D(6,3,8,9)              0.2479         estimate D2E/DX2                !
 ! D8    D(2,4,7,13)           175.8233         estimate D2E/DX2                !
 ! D9    D(5,4,7,13)            -0.0444         estimate D2E/DX2                !
 ! D10   D(4,7,13,14)          -60.1249         estimate D2E/DX2                !
 ! D11   D(4,7,13,15)           61.3661         estimate D2E/DX2                !
 ! D12   D(4,7,13,16)         -179.3872         estimate D2E/DX2                !
 ! D13   D(3,8,9,10)          -178.7432         estimate D2E/DX2                !
 ! D14   D(3,8,9,11)           -59.4186         estimate D2E/DX2                !
 ! D15   D(3,8,9,12)            62.0529         estimate D2E/DX2                !
 --------------------------------------------------------------------------------
 Trust Radius=3.00D-01 FncErr=1.00D-07 GrdErr=1.00D-06
 Number of steps in this run=     62 maximum allowed number of steps=    100.
 GradGradGradGradGradGradGradGradGradGradGradGradGradGradGradGradGradGrad

                          Input orientation:                          
 ---------------------------------------------------------------------
 Center     Atomic      Atomic             Coordinates (Angstroms)
 Number     Number       Type             X           Y           Z
 ---------------------------------------------------------------------
      1          7           0        0.329920   -1.005230    0.750250
      2          7           0        0.422210   -0.128490   -0.103900
      3          6           0       -1.020800   -1.147040    1.251730
      4          6           0        1.786860    0.072210   -0.543710
      5          8           0        2.473010    0.938360   -0.084950
      6          8           0       -1.366210   -0.633280    2.275630
      7          8           0        2.066250   -0.759810   -1.525500
      8          8           0       -1.706540   -1.955120    0.469780
      9          6           0       -3.050010   -2.248300    0.912970
     10          1           0       -3.454540   -2.936200    0.173080
     11          1           0       -3.023030   -2.714730    1.899090
     12          1           0       -3.638990   -1.330420    0.946340
     13          6           0        3.372880   -0.597580   -2.120370
     14          1           0        3.469470    0.406170   -2.537330
     15          1           0        4.147210   -0.770540   -1.371480
     16          1           0        3.426690   -1.347110   -2.907550
 ---------------------------------------------------------------------
                    Distance matrix (angstroms):
                    1          2          3          4          5
     1  N    0.000000
     2  N    1.227503   0.000000
     3  C    1.447770   2.226534   0.000000
     4  C    2.226631   1.447751   3.548680   0.000000
     5  O    3.011301   2.311776   4.282793   1.196444   0.000000
     6  O    2.311274   3.019176   1.196507   4.288152   4.773049
     7  O    2.872997   2.263267   4.170471   1.316901   2.263718
     8  O    2.264536   2.863086   1.317072   4.164261   5.113569
     9  C    3.604945   4.193320   2.333501   5.558956   6.454022
    10  H    4.287646   4.794700   3.207440   6.085770   7.086229
    11  H    3.935035   4.750819   2.624053   6.072014   6.891149
    12  H    3.987035   4.363598   2.642312   5.798920   6.600566
    13  C    4.203123   3.604532   5.565733   2.334510   2.704036
    14  H    4.759938   3.936145   6.077167   2.630062   2.700060
    15  H    4.373616   3.986805   5.807866   2.639447   2.716329
    16  H    4.804827   4.286302   6.092603   3.207998   3.754990
                    6          7          8          9         10
     6  O    0.000000
     7  O    5.123122   0.000000
     8  O    2.263665   4.432139   0.000000
     9  C    2.701909   5.859851   1.444743   0.000000
    10  H    3.753036   6.172598   2.026340   1.088250   0.000000
    11  H    2.686870   6.438191   2.086404   1.091200   1.792864
    12  H    2.723701   6.243825   2.086078   1.091107   1.791782
    13  C    6.464137   1.444808   5.861083   7.292431   7.572498
    14  H    6.901365   2.086225   6.435020   7.839286   8.152280
    15  H    6.611963   2.086680   6.249789   7.694314   8.053717
    16  H    7.095548   2.026273   6.174632   7.573385   7.704986
                   11         12         13         14         15
    11  H    0.000000
    12  H    1.789819   0.000000
    13  C    7.845129   7.688178   0.000000
    14  H    8.460165   8.104437   1.091192   0.000000
    15  H    8.117194   8.143136   1.091026   1.789744   0.000000
    16  H    8.159232   8.048390   1.088275   1.792452   1.791952
                   16
    16  H    0.000000
 Stoichiometry    C4H6N2O4
 Framework group  C1[X(C4H6N2O4)]
 Deg. of freedom    42
 Full point group                 C1      NOp   1
 Largest Abelian subgroup         C1      NOp   1
 Largest concise Abelian subgroup C1      NOp   1
                         Standard orientation:                         
 ---------------------------------------------------------------------
 Center     Atomic      Atomic             Coordinates (Angstroms)
 Number     Number       Type             X           Y           Z
 ---------------------------------------------------------------------
      1          7           0        0.348912    0.328623   -0.506573
      2          7           0       -0.346930    0.315680    0.504564
      3          6           0        1.763825    0.366613   -0.202243
      4          6           0       -1.761800    0.364081    0.201608
      5          8           0       -2.372709    1.392630    0.220477
      6          8           0        2.380358    1.391957   -0.215819
      7          8           0       -2.218144   -0.855539    0.005380
      8          8           0        2.213965   -0.856259   -0.010837
      9          6           0        3.636981   -0.960665    0.215899
     10          1           0        3.834009   -2.024885    0.329493
     11          1           0        4.180682   -0.556986   -0.639759
     12          1           0        3.909232   -0.420696    1.124099
     13          6           0       -3.642773   -0.954733   -0.213849
     14          1           0       -4.180176   -0.566094    0.652671
     15          1           0       -3.921317   -0.398794   -1.110334
     16          1           0       -3.841463   -2.016746   -0.344207
 ---------------------------------------------------------------------
 Rotational constants (GHZ):      3.6929735      0.5988738      0.5308030
 General basis read from cards:  (5D, 7F)
 There are   436 symmetry adapted cartesian basis functions of A   symmetry.
 There are   386 symmetry adapted basis functions of A   symmetry.
   386 basis functions,   598 primitive gaussians,   436 cartesian basis functions
    38 alpha electrons       38 beta electrons
       nuclear repulsion energy       522.5761300551 Hartrees.
 NAtoms=   16 NActive=   16 NUniq=   16 SFac= 1.00D+00 NAtFMM=   60 NAOKFM=F Big=F
 Integral buffers will be    131072 words long.
 Raffenetti 2 integral format.
 Two-electron integral symmetry is turned on.
 Nuclear repulsion after empirical dispersion term =      522.5709101465 Hartrees.
 ------------------------------------------------------------------------------
 Polarizable Continuum Model (PCM)
 =================================
 Model                : PCM (using non-symmetric T matrix).
 Atomic radii         : SMD-Coulomb.
 Polarization charges : Total charges.
 Charge compensation  : None.
 Solution method      : On-the-fly selection.
 Cavity type          : VdW (van der Waals Surface) (Alpha=1.000).
 Cavity algorithm     : GePol (No added spheres)
                        Default sphere list used, NSphG=   16.
                        Lebedev-Laikov grids with approx.  5.0 points / Ang**2.
                        Smoothing algorithm: Karplus/York (Gamma=1.0000).
                        Polarization charges: spherical gaussians, with
                                              point-specific exponents (IZeta= 3).
                        Self-potential: point-specific (ISelfS= 7).
                        Self-field    : sphere-specific E.n sum rule (ISelfD= 2).
 1st derivatives      : Analytical E(r).r(x)/FMM algorithm (CHGder, D1EAlg=3).
                        Cavity 1st derivative terms included.
 Solvent              : Toluene, Eps=   2.374100 Eps(inf)=   2.238315
 ------------------------------------------------------------------------------
 Spheres list:
 ISph  on   Nord     Re0    Alpha      Xe            Ye            Ze
    1   N      1    1.8900  1.000      0.348912      0.328623     -0.506573
    2   N      2    1.8900  1.000     -0.346930      0.315680      0.504564
    3   C      3    1.8500  1.000      1.763825      0.366613     -0.202243
    4   C      4    1.8500  1.000     -1.761800      0.364081      0.201608
    5   O      5    2.2940  1.000     -2.372709      1.392630      0.220477
    6   O      6    2.2940  1.000      2.380358      1.391957     -0.215819
    7   O      7    2.2940  1.000     -2.218144     -0.855539      0.005380
    8   O      8    2.2940  1.000      2.213965     -0.856259     -0.010837
    9   C      9    1.8500  1.000      3.636981     -0.960665      0.215899
   10   H     10    1.2000  1.000      3.834009     -2.024885      0.329493
   11   H     11    1.2000  1.000      4.180682     -0.556986     -0.639759
   12   H     12    1.2000  1.000      3.909232     -0.420696      1.124099
   13   C     13    1.8500  1.000     -3.642773     -0.954733     -0.213849
   14   H     14    1.2000  1.000     -4.180176     -0.566094      0.652671
   15   H     15    1.2000  1.000     -3.921317     -0.398794     -1.110334
   16   H     16    1.2000  1.000     -3.841463     -2.016746     -0.344207
 ------------------------------------------------------------------------------
 ------------------------------------------------------------------------------
 Atomic radii for non-electrostatic terms: SMD-CDS.
 ------------------------------------------------------------------------------
 Nuclear repulsion after PCM non-electrostatic terms =      522.5707325388 Hartrees.
 One-electron integrals computed using PRISM.
 NBasis=   386 RedAO= T EigKep=  1.12D-05  NBF=   386
 NBsUse=   386 1.00D-06 EigRej= -1.00D+00 NBFU=   386
 ExpMin= 3.17D-02 ExpMax= 2.70D+04 ExpMxC= 9.22D+02 IAcc=3 IRadAn=         5 AccDes= 0.00D+00
 Harris functional with IExCor= 4639 and IRadAn=       5 diagonalized for initial guess.
 HarFok:  IExCor= 4639 AccDes= 0.00D+00 IRadAn=         5 IDoV= 1 UseB2=F ITyADJ=14
 ICtDFT=  3500011 ScaDFX=  1.000000  1.000000  1.000000  1.000000
 FoFCou: FMM=F IPFlag=           0 FMFlag=      100000 FMFlg1=           0
         NFxFlg=           0 DoJE=T BraDBF=F KetDBF=T FulRan=T
         wScrn=  0.000000 ICntrl=     500 IOpCl=  0 I1Cent=   200000004 NGrid=           0
         NMat0=    1 NMatS0=      1 NMatT0=    0 NMatD0=    1 NMtDS0=    0 NMtDT0=    0
 Petite list used in FoFCou.
 Requested convergence on RMS density matrix=1.00D-08 within 128 cycles.
 Requested convergence on MAX density matrix=1.00D-06.
 Requested convergence on             energy=1.00D-06.
 No special actions if energy rises.
 Inv3:  Mode=1 IEnd=     7776300.
 Iteration    1 A*A^-1 deviation from unit magnitude is 4.55D-15 for   1610.
 Iteration    1 A*A^-1 deviation from orthogonality  is 2.33D-15 for   1610    832.
 Iteration    1 A^-1*A deviation from unit magnitude is 4.22D-15 for   1609.
 Iteration    1 A^-1*A deviation from orthogonality  is 1.55D-15 for   1569    951.
 Error on total polarization charges =  0.01080
 SCF Done:  E(RwB97XD) =  -566.434608156     A.U. after   14 cycles
            NFock= 14  Conv=0.43D-08     -V/T= 2.0043
 SMD-CDS (non-electrostatic) energy       (kcal/mol) =      -0.11
 (included in total energy above)

 **********************************************************************

            Population analysis using the SCF density.

 **********************************************************************

 Orbital symmetries:
       Occupied  (A) (A) (A) (A) (A) (A) (A) (A) (A) (A) (A) (A)
                 (A) (A) (A) (A) (A) (A) (A) (A) (A) (A) (A) (A)
                 (A) (A) (A) (A) (A) (A) (A) (A) (A) (A) (A) (A)
                 (A) (A)
       Virtual   (A) (A) (A) (A) (A) (A) (A) (A) (A) (A) (A) (A)
                 (A) (A) (A) (A) (A) (A) (A) (A) (A) (A) (A) (A)
                 (A) (A) (A) (A) (A) (A) (A) (A) (A) (A) (A) (A)
                 (A) (A) (A) (A) (A) (A) (A) (A) (A) (A) (A) (A)
                 (A) (A) (A) (A) (A) (A) (A) (A) (A) (A) (A) (A)
                 (A) (A) (A) (A) (A) (A) (A) (A) (A) (A) (A) (A)
                 (A) (A) (A) (A) (A) (A) (A) (A) (A) (A) (A) (A)
                 (A) (A) (A) (A) (A) (A) (A) (A) (A) (A) (A) (A)
                 (A) (A) (A) (A) (A) (A) (A) (A) (A) (A) (A) (A)
                 (A) (A) (A) (A) (A) (A) (A) (A) (A) (A) (A) (A)
                 (A) (A) (A) (A) (A) (A) (A) (A) (A) (A) (A) (A)
                 (A) (A) (A) (A) (A) (A) (A) (A) (A) (A) (A) (A)
                 (A) (A) (A) (A) (A) (A) (A) (A) (A) (A) (A) (A)
                 (A) (A) (A) (A) (A) (A) (A) (A) (A) (A) (A) (A)
                 (A) (A) (A) (A) (A) (A) (A) (A) (A) (A) (A) (A)
                 (A) (A) (A) (A) (A) (A) (A) (A) (A) (A) (A) (A)
                 (A) (A) (A) (A) (A) (A) (A) (A) (A) (A) (A) (A)
                 (A) (A) (A) (A) (A) (A) (A) (A) (A) (A) (A) (A)
                 (A) (A) (A) (A) (A) (A) (A) (A) (A) (A) (A) (A)
                 (A) (A) (A) (A) (A) (A) (A) (A) (A) (A) (A) (A)
                 (A) (A) (A) (A) (A) (A) (A) (A) (A) (A) (A) (A)
                 (A) (A) (A) (A) (A) (A) (A) (A) (A) (A) (A) (A)
                 (A) (A) (A) (A) (A) (A) (A) (A) (A) (A) (A) (A)
                 (A) (A) (A) (A) (A) (A) (A) (A) (A) (A) (A) (A)
                 (A) (A) (A) (A) (A) (A) (A) (A) (A) (A) (A) (A)
                 (A) (A) (A) (A) (A) (A) (A) (A) (A) (A) (A) (A)
                 (A) (A) (A) (A) (A) (A) (A) (A) (A) (A) (A) (A)
                 (A) (A) (A) (A) (A) (A) (A) (A) (A) (A) (A) (A)
                 (A) (A) (A) (A) (A) (A) (A) (A) (A) (A) (A) (A)
 The electronic state is 1-A.
 Alpha  occ. eigenvalues --  -19.32726 -19.32725 -19.26342 -19.26342 -14.53628
 Alpha  occ. eigenvalues --  -14.53567 -10.45855 -10.45854 -10.34921 -10.34915
 Alpha  occ. eigenvalues --   -1.26043  -1.24667  -1.17989  -1.15559  -1.15206
 Alpha  occ. eigenvalues --   -0.91607  -0.85054  -0.81054  -0.71097  -0.67118
 Alpha  occ. eigenvalues --   -0.66101  -0.62805  -0.60302  -0.59566  -0.59081
 Alpha  occ. eigenvalues --   -0.56950  -0.53979  -0.53908  -0.51996  -0.49349
 Alpha  occ. eigenvalues --   -0.48877  -0.47184  -0.47047  -0.41729  -0.41679
 Alpha  occ. eigenvalues --   -0.41405  -0.41319  -0.34790
 Alpha virt. eigenvalues --   -0.01597   0.04665   0.05503   0.06309   0.06616
 Alpha virt. eigenvalues --    0.06874   0.07274   0.07655   0.08423   0.08473
 Alpha virt. eigenvalues --    0.08843   0.10140   0.10182   0.11813   0.12163
 Alpha virt. eigenvalues --    0.12785   0.13721   0.15111   0.15955   0.15969
 Alpha virt. eigenvalues --    0.17392   0.17694   0.18018   0.20149   0.20879
 Alpha virt. eigenvalues --    0.20966   0.21151   0.21360   0.21849   0.22083
 Alpha virt. eigenvalues --    0.22245   0.23189   0.23639   0.24317   0.24599
 Alpha virt. eigenvalues --    0.25151   0.25422   0.26053   0.26344   0.27286
 Alpha virt. eigenvalues --    0.27851   0.28649   0.29028   0.29929   0.30052
 Alpha virt. eigenvalues --    0.30309   0.30496   0.32609   0.35384   0.36345
 Alpha virt. eigenvalues --    0.37835   0.38130   0.39790   0.40922   0.41237
 Alpha virt. eigenvalues --    0.42283   0.42766   0.43990   0.44283   0.45442
 Alpha virt. eigenvalues --    0.46256   0.46673   0.47846   0.48732   0.49791
 Alpha virt. eigenvalues --    0.52562   0.52624   0.54772   0.55891   0.56235
 Alpha virt. eigenvalues --    0.56302   0.56639   0.57692   0.57915   0.58946
 Alpha virt. eigenvalues --    0.59605   0.60708   0.61965   0.62382   0.64450
 Alpha virt. eigenvalues --    0.64547   0.66726   0.67818   0.70848   0.71630
 Alpha virt. eigenvalues --    0.72207   0.73949   0.74111   0.74384   0.75195
 Alpha virt. eigenvalues --    0.76753   0.77226   0.78618   0.79993   0.80923
 Alpha virt. eigenvalues --    0.81549   0.82633   0.83512   0.87273   0.87824
 Alpha virt. eigenvalues --    0.88356   0.90033   0.92423   0.97137   0.97445
 Alpha virt. eigenvalues --    0.99336   0.99712   1.03757   1.04642   1.05108
 Alpha virt. eigenvalues --    1.08646   1.11645   1.12239   1.12670   1.14475
 Alpha virt. eigenvalues --    1.15697   1.17414   1.18689   1.20491   1.22126
 Alpha virt. eigenvalues --    1.24577   1.26418   1.32031   1.37631   1.38731
 Alpha virt. eigenvalues --    1.42602   1.45849   1.52101   1.54655   1.55579
 Alpha virt. eigenvalues --    1.56780   1.57608   1.58533   1.59083   1.59405
 Alpha virt. eigenvalues --    1.60739   1.61420   1.62674   1.63426   1.64834
 Alpha virt. eigenvalues --    1.65650   1.67789   1.69313   1.71010   1.72422
 Alpha virt. eigenvalues --    1.73122   1.73274   1.77484   1.84275   1.84702
 Alpha virt. eigenvalues --    1.86042   1.88441   1.90353   1.91821   1.97292
 Alpha virt. eigenvalues --    1.97783   2.01286   2.03783   2.06991   2.07656
 Alpha virt. eigenvalues --    2.08693   2.10019   2.10487   2.12891   2.13580
 Alpha virt. eigenvalues --    2.17121   2.18321   2.19370   2.19897   2.22295
 Alpha virt. eigenvalues --    2.22654   2.25161   2.26182   2.32962   2.36477
 Alpha virt. eigenvalues --    2.37843   2.38150   2.40131   2.41817   2.42781
 Alpha virt. eigenvalues --    2.43864   2.44193   2.46635   2.47419   2.49357
 Alpha virt. eigenvalues --    2.51708   2.55100   2.56050   2.61749   2.63490
 Alpha virt. eigenvalues --    2.64627   2.65638   2.65719   2.68116   2.71652
 Alpha virt. eigenvalues --    2.76318   2.78443   2.80347   2.82774   2.85468
 Alpha virt. eigenvalues --    2.87612   2.88765   2.90015   2.92740   2.96585
 Alpha virt. eigenvalues --    2.97926   3.01954   3.02465   3.05759   3.08358
 Alpha virt. eigenvalues --    3.09328   3.10157   3.13191   3.16144   3.17758
 Alpha virt. eigenvalues --    3.17915   3.20724   3.23498   3.24201   3.25334
 Alpha virt. eigenvalues --    3.29409   3.29735   3.30281   3.35401   3.35490
 Alpha virt. eigenvalues --    3.36508   3.37005   3.37302   3.39936   3.41478
 Alpha virt. eigenvalues --    3.43809   3.45012   3.45693   3.45806   3.47099
 Alpha virt. eigenvalues --    3.47554   3.54428   3.55107   3.56672   3.57162
 Alpha virt. eigenvalues --    3.61432   3.61679   3.65785   3.66151   3.67742
 Alpha virt. eigenvalues --    3.68548   3.69611   3.71711   3.77214   3.84452
 Alpha virt. eigenvalues --    3.87943   3.94771   3.96734   4.00550   4.01490
 Alpha virt. eigenvalues --    4.04719   4.11595   4.22611   4.26622   4.27583
 Alpha virt. eigenvalues --    4.28443   4.36947   4.37496   4.42941   4.47723
 Alpha virt. eigenvalues --    4.49485   4.54028   4.57811   4.60863   4.64241
 Alpha virt. eigenvalues --    4.69894   4.74439   4.78071   4.86471   4.87553
 Alpha virt. eigenvalues --    4.91985   4.95447   4.96744   4.97856   5.02122
 Alpha virt. eigenvalues --    5.04495   5.11146   5.11917   5.22189   5.23774
 Alpha virt. eigenvalues --    5.25883   5.26660   5.31144   5.37574   5.40105
 Alpha virt. eigenvalues --    5.46502   5.53499   5.55048   5.55587   5.62524
 Alpha virt. eigenvalues --    5.68050   5.71178   5.74191   5.75254   5.76617
 Alpha virt. eigenvalues --    5.92035   5.93567   5.98598   6.04046   6.10094
 Alpha virt. eigenvalues --    6.12088   6.18095   6.19705   6.23320   6.24684
 Alpha virt. eigenvalues --    6.25023   6.32345   6.38554   6.42783   6.43321
 Alpha virt. eigenvalues --    6.54862   6.56492   6.58289   6.60387   6.71594
 Alpha virt. eigenvalues --    6.72482   6.77312   6.78506   6.81542   6.84272
 Alpha virt. eigenvalues --    6.91476   6.97763   6.98338   6.99473   7.00184
 Alpha virt. eigenvalues --    7.09978   7.12129   7.27371   7.28051   7.39192
 Alpha virt. eigenvalues --    7.39932   7.47396   7.51731  22.46145  22.48065
 Alpha virt. eigenvalues --   23.43242  23.55106  32.31244  32.56127  44.03541
 Alpha virt. eigenvalues --   44.07897  44.21079  44.25201
          Condensed to atoms (all electrons):
               1          2          3          4          5          6
     1  N    6.852910   0.120912   0.175906  -0.036448  -0.000833  -0.007685
     2  N    0.120912   6.851178  -0.035050   0.175669  -0.006708   0.000172
     3  C    0.175906  -0.035050   4.676548  -0.017483  -0.006795   0.461891
     4  C   -0.036448   0.175669  -0.017483   4.677139   0.462052  -0.006885
     5  O   -0.000833  -0.006708  -0.006795   0.462052   8.070302   0.000933
     6  O   -0.007685   0.000172   0.461891  -0.006885   0.000933   8.071341
     7  O    0.030671  -0.020801  -0.009351   0.272503  -0.121471  -0.001253
     8  O   -0.018798   0.028346   0.272265  -0.008819  -0.001258  -0.121587
     9  C   -0.007544   0.005073  -0.024035  -0.002809   0.000232   0.001993
    10  H    0.003924  -0.001784   0.005788   0.000087   0.000003   0.003954
    11  H    0.008085  -0.006028  -0.001777   0.000469  -0.000006  -0.005796
    12  H   -0.012063   0.010020  -0.013425  -0.000616   0.000011  -0.003359
    13  C    0.004722  -0.007180  -0.002791  -0.024079   0.002171   0.000240
    14  H   -0.005790   0.007778   0.000443  -0.002194  -0.005797  -0.000006
    15  H    0.009649  -0.011624  -0.000599  -0.012979  -0.003409   0.000011
    16  H   -0.001665   0.003772   0.000098   0.005735   0.003933   0.000002
               7          8          9         10         11         12
     1  N    0.030671  -0.018798  -0.007544   0.003924   0.008085  -0.012063
     2  N   -0.020801   0.028346   0.005073  -0.001784  -0.006028   0.010020
     3  C   -0.009351   0.272265  -0.024035   0.005788  -0.001777  -0.013425
     4  C    0.272503  -0.008819  -0.002809   0.000087   0.000469  -0.000616
     5  O   -0.121471  -0.001258   0.000232   0.000003  -0.000006   0.000011
     6  O   -0.001253  -0.121587   0.001993   0.003954  -0.005796  -0.003359
     7  O    8.075744   0.007424  -0.000822  -0.000040   0.000069  -0.000043
     8  O    0.007424   8.075355   0.149278  -0.053031  -0.025015  -0.016980
     9  C   -0.000822   0.149278   4.874192   0.414188   0.408800   0.416619
    10  H   -0.000040  -0.053031   0.414188   0.498367  -0.019113  -0.019805
    11  H    0.000069  -0.025015   0.408800  -0.019113   0.496005  -0.027106
    12  H   -0.000043  -0.016980   0.416619  -0.019805  -0.027106   0.494014
    13  C    0.149349  -0.000812  -0.000083  -0.000004   0.000021  -0.000025
    14  H   -0.024740   0.000066   0.000019   0.000000   0.000000   0.000000
    15  H   -0.017139  -0.000038  -0.000022   0.000000   0.000000   0.000000
    16  H   -0.052938  -0.000041  -0.000005   0.000000   0.000000   0.000000
              13         14         15         16
     1  N    0.004722  -0.005790   0.009649  -0.001665
     2  N   -0.007180   0.007778  -0.011624   0.003772
     3  C   -0.002791   0.000443  -0.000599   0.000098
     4  C   -0.024079  -0.002194  -0.012979   0.005735
     5  O    0.002171  -0.005797  -0.003409   0.003933
     6  O    0.000240  -0.000006   0.000011   0.000002
     7  O    0.149349  -0.024740  -0.017139  -0.052938
     8  O   -0.000812   0.000066  -0.000038  -0.000041
     9  C   -0.000083   0.000019  -0.000022  -0.000005
    10  H   -0.000004   0.000000   0.000000   0.000000
    11  H    0.000021   0.000000   0.000000   0.000000
    12  H   -0.000025   0.000000   0.000000   0.000000
    13  C    4.873838   0.409209   0.416082   0.414168
    14  H    0.409209   0.495725  -0.027127  -0.019114
    15  H    0.416082  -0.027127   0.494264  -0.019820
    16  H    0.414168  -0.019114  -0.019820   0.498359
 Mulliken charges:
               1
     1  N   -0.115953
     2  N   -0.113745
     3  C    0.518369
     4  C    0.518657
     5  O   -0.393360
     6  O   -0.393966
     7  O   -0.287162
     8  O   -0.286354
     9  C   -0.235073
    10  H    0.167465
    11  H    0.171393
    12  H    0.172759
    13  C   -0.234826
    14  H    0.171528
    15  H    0.172753
    16  H    0.167516
 Sum of Mulliken charges =   0.00000
 Mulliken charges with hydrogens summed into heavy atoms:
               1
     1  N   -0.115953
     2  N   -0.113745
     3  C    0.518369
     4  C    0.518657
     5  O   -0.393360
     6  O   -0.393966
     7  O   -0.287162
     8  O   -0.286354
     9  C    0.276544
    13  C    0.276971
 Electronic spatial extent (au):  <R**2>=           2032.5244
 Charge=              0.0000 electrons
 Dipole moment (field-independent basis, Debye):
    X=             -0.0168    Y=             -4.7649    Z=              0.0011  Tot=              4.7650
 Quadrupole moment (field-independent basis, Debye-Ang):
   XX=            -35.9539   YY=            -62.7947   ZZ=            -56.4490
   XY=             -0.0323   XZ=              2.6789   YZ=              0.0040
 Traceless Quadrupole moment (field-independent basis, Debye-Ang):
   XX=             15.7786   YY=            -11.0622   ZZ=             -4.7165
   XY=             -0.0323   XZ=              2.6789   YZ=              0.0040
 Octapole moment (field-independent basis, Debye-Ang**2):
  XXX=             -0.5459  YYY=            -17.6110  ZZZ=              0.0494  XYY=              0.0346
  XXY=            -56.7777  XXZ=             -0.0185  XZZ=              0.0031  YZZ=             -0.1615
  YYZ=             -0.0267  XYZ=             -0.0006
 Hexadecapole moment (field-independent basis, Debye-Ang**3):
 XXXX=          -1702.2091 YYYY=           -339.0141 ZZZZ=            -94.2744 XXXY=             -0.2801
 XXXZ=             28.7209 YYYX=             -0.1590 YYYZ=              0.1231 ZZZX=             -0.6031
 ZZZY=              0.0490 XXYY=           -409.7215 XXZZ=           -342.5040 YYZZ=            -73.8226
 XXYZ=             -0.2130 YYXZ=              9.3877 ZZXY=              0.0348
 N-N= 5.225707325388D+02 E-N=-2.373774702803D+03  KE= 5.639956107816D+02
 D1PCM: PCM CHGder 1st derivatives, ID1Alg=3 FixD1E=F DoIter=F DoCFld=F I1PDM=0.
 Calling FoFJK, ICntrl=      2127 FMM=F ISym2X=0 I1Cent= 0 IOpClX= 0 NMat=1 NMatS=1 NMatT=0.
 ***** Axes restored to original set *****
 -------------------------------------------------------------------
 Center     Atomic                   Forces (Hartrees/Bohr)
 Number     Number              X              Y              Z
 -------------------------------------------------------------------
      1        7          -0.004219772    0.001678475   -0.001030279
      2        7           0.004178498   -0.002006969    0.000771043
      3        6          -0.001248997    0.000706711    0.002074671
      4        6           0.001793355    0.001649175    0.000487901
      5        8          -0.004102701   -0.004816460   -0.002581150
      6        8           0.002249497   -0.002910597   -0.005881638
      7        8           0.003398666    0.003976361    0.001611732
      8        8          -0.001896873    0.002112594    0.004835418
      9        6           0.002767930    0.000107085   -0.001178347
     10        1           0.000610868    0.001075551    0.001013249
     11        1          -0.000304079    0.000513687   -0.001388740
     12        1           0.000530688   -0.001416597    0.000034450
     13        6          -0.002924909   -0.000466625    0.000763359
     14        1           0.000060487   -0.001398328    0.000406152
     15        1          -0.000800289    0.000182854   -0.001209474
     16        1          -0.000092369    0.001013085    0.001271652
 -------------------------------------------------------------------
 Cartesian Forces:  Max     0.005881638 RMS     0.002259179

 GradGradGradGradGradGradGradGradGradGradGradGradGradGradGradGradGradGrad
 Berny optimization.
 FormGI is forming the generalized inverse of G from B-inverse, IUseBI=4.
 Internal  Forces:  Max     0.006931453 RMS     0.002044349
 Search for a local minimum.
 Step number   1 out of a maximum of   62
 All quantities printed in internal units (Hartrees-Bohrs-Radians)
 Mixed Optimization -- RFO/linear search
 Second derivative matrix not updated -- first step.
 ITU=  0
     Eigenvalues ---    0.01060   0.01060   0.01099   0.01100   0.02028
     Eigenvalues ---    0.02030   0.02789   0.02791   0.03577   0.10212
     Eigenvalues ---    0.10215   0.10673   0.10673   0.16000   0.16000
     Eigenvalues ---    0.16000   0.16000   0.16000   0.16000   0.24972
     Eigenvalues ---    0.24973   0.25000   0.25000   0.25000   0.25000
     Eigenvalues ---    0.25000   0.25000   0.34674   0.34675   0.34685
     Eigenvalues ---    0.34694   0.35013   0.35016   0.38539   0.38541
     Eigenvalues ---    0.38933   0.38942   0.62667   0.62710   0.92135
     Eigenvalues ---    1.06598   1.06630
 RFO step:  Lambda=-4.89066364D-04 EMin= 1.05988021D-02
 Linear search not attempted -- first point.
 Iteration  1 RMS(Cart)=  0.02977356 RMS(Int)=  0.00029810
 Iteration  2 RMS(Cart)=  0.00087035 RMS(Int)=  0.00005687
 Iteration  3 RMS(Cart)=  0.00000036 RMS(Int)=  0.00005687
 Variable       Old X    -DE/DX   Delta X   Delta X   Delta X     New X
                                 (Linear)    (Quad)   (Total)
    R1        2.31964  -0.00232   0.00000  -0.00252  -0.00252   2.31712
    R2        2.73589  -0.00271   0.00000  -0.00701  -0.00701   2.72887
    R3        2.73585  -0.00271   0.00000  -0.00703  -0.00703   2.72882
    R4        2.26107  -0.00693   0.00000  -0.00650  -0.00650   2.25457
    R5        2.48891  -0.00432   0.00000  -0.00689  -0.00689   2.48202
    R6        2.26095  -0.00683   0.00000  -0.00640  -0.00640   2.25455
    R7        2.48858  -0.00428   0.00000  -0.00682  -0.00682   2.48176
    R8        2.73029  -0.00398   0.00000  -0.01020  -0.01020   2.72009
    R9        2.73017  -0.00387   0.00000  -0.00993  -0.00993   2.72024
   R10        2.05649  -0.00159   0.00000  -0.00455  -0.00455   2.05195
   R11        2.06207  -0.00149   0.00000  -0.00428  -0.00428   2.05778
   R12        2.06189  -0.00147   0.00000  -0.00424  -0.00424   2.05766
   R13        2.06205  -0.00144   0.00000  -0.00416  -0.00416   2.05789
   R14        2.06174  -0.00142   0.00000  -0.00408  -0.00408   2.05766
   R15        2.05654  -0.00162   0.00000  -0.00462  -0.00462   2.05192
    A1        1.96182   0.00197   0.00000   0.00788   0.00788   1.96970
    A2        1.96197   0.00198   0.00000   0.00792   0.00792   1.96989
    A3        2.12197  -0.00032   0.00000  -0.00192  -0.00210   2.11987
    A4        1.91793   0.00002   0.00000  -0.00057  -0.00074   1.91718
    A5        2.24107   0.00026   0.00000   0.00033   0.00016   2.24122
    A6        2.12286  -0.00026   0.00000  -0.00166  -0.00182   2.12105
    A7        1.91652   0.00005   0.00000  -0.00044  -0.00059   1.91592
    A8        2.24155   0.00017   0.00000   0.00003  -0.00013   2.24142
    A9        2.01294   0.00203   0.00000   0.00811   0.00811   2.02106
   A10        2.01146   0.00234   0.00000   0.00936   0.00936   2.02082
   A11        1.83939  -0.00029   0.00000  -0.00213  -0.00213   1.83727
   A12        1.91874   0.00040   0.00000   0.00271   0.00271   1.92145
   A13        1.91839   0.00047   0.00000   0.00308   0.00307   1.92146
   A14        1.93201  -0.00015   0.00000  -0.00125  -0.00125   1.93077
   A15        1.93039  -0.00021   0.00000  -0.00173  -0.00173   1.92866
   A16        1.92335  -0.00021   0.00000  -0.00064  -0.00064   1.92270
   A17        1.91842   0.00038   0.00000   0.00264   0.00264   1.92106
   A18        1.91924   0.00042   0.00000   0.00271   0.00271   1.92195
   A19        1.83921  -0.00029   0.00000  -0.00221  -0.00221   1.83700
   A20        1.92334  -0.00016   0.00000  -0.00027  -0.00027   1.92307
   A21        1.93133  -0.00008   0.00000  -0.00071  -0.00071   1.93062
   A22        1.93074  -0.00025   0.00000  -0.00215  -0.00215   1.92859
    D1        3.07703  -0.00080   0.00000  -0.02207  -0.02207   3.05496
    D2       -1.71206  -0.00005   0.00000   0.00861   0.00863  -1.70342
    D3        1.49547   0.00060   0.00000   0.04056   0.04054   1.53602
    D4       -1.68976  -0.00010   0.00000   0.00346   0.00348  -1.68628
    D5        1.51818   0.00052   0.00000   0.03384   0.03383   1.55201
    D6        3.07423  -0.00072   0.00000  -0.02980  -0.02981   3.04442
    D7        0.00433   0.00002   0.00000   0.00505   0.00505   0.00938
    D8        3.06870  -0.00058   0.00000  -0.02474  -0.02474   3.04396
    D9       -0.00078   0.00012   0.00000   0.00837   0.00837   0.00760
   D10       -1.04938  -0.00021   0.00000  -0.00829  -0.00829  -1.05767
   D11        1.07104   0.00011   0.00000  -0.00516  -0.00515   1.06589
   D12       -3.13090  -0.00014   0.00000  -0.00756  -0.00756  -3.13846
   D13       -3.11966  -0.00012   0.00000  -0.00940  -0.00940  -3.12906
   D14       -1.03705  -0.00025   0.00000  -0.01068  -0.01069  -1.04774
   D15        1.08303   0.00005   0.00000  -0.00773  -0.00773   1.07530
         Item               Value     Threshold  Converged?
 Maximum Force            0.006931     0.000450     NO 
 RMS     Force            0.002044     0.000300     NO 
 Maximum Displacement     0.067660     0.001800     NO 
 RMS     Displacement     0.029699     0.001200     NO 
 Predicted change in Energy=-2.458850D-04
 GradGradGradGradGradGradGradGradGradGradGradGradGradGradGradGradGradGrad

                          Input orientation:                          
 ---------------------------------------------------------------------
 Center     Atomic      Atomic             Coordinates (Angstroms)
 Number     Number       Type             X           Y           Z
 ---------------------------------------------------------------------
      1          7           0        0.310871   -1.012846    0.735972
      2          7           0        0.435145   -0.140528   -0.116735
      3          6           0       -1.040973   -1.124453    1.231313
      4          6           0        1.805802    0.049353   -0.529613
      5          8           0        2.486688    0.907269   -0.056582
      6          8           0       -1.377266   -0.597476    2.247489
      7          8           0        2.084130   -0.755192   -1.529601
      8          8           0       -1.725590   -1.952841    0.476224
      9          6           0       -3.058333   -2.255940    0.927944
     10          1           0       -3.456273   -2.953426    0.197045
     11          1           0       -3.023584   -2.713470    1.915483
     12          1           0       -3.659329   -1.348383    0.955712
     13          6           0        3.382621   -0.585770   -2.127198
     14          1           0        3.480026    0.421235   -2.530129
     15          1           0        4.161605   -0.772272   -1.389613
     16          1           0        3.428841   -1.322370   -2.923631
 ---------------------------------------------------------------------
                    Distance matrix (angstroms):
                    1          2          3          4          5
     1  N    0.000000
     2  N    1.226169   0.000000
     3  C    1.444058   2.228064   0.000000
     4  C    2.228181   1.444031   3.547226   0.000000
     5  O    3.008183   2.304414   4.269773   1.193056   0.000000
     6  O    2.303697   3.013833   1.193067   4.273477   4.743747
     7  O    2.888538   2.256801   4.186320   1.313292   2.257347
     8  O    2.257927   2.881815   1.313426   4.182251   5.119317
     9  C    3.596342   4.215532   2.332817   5.576617   6.459291
    10  H    4.271729   4.811859   3.201332   6.101979   7.091408
    11  H    3.924533   4.765790   2.631314   6.077389   6.881998
    12  H    3.990408   4.401565   2.642326   5.833311   6.624668
    13  C    4.220874   3.595527   5.580140   2.332813   2.705422
    14  H    4.771535   3.925729   6.080874   2.635030   2.709499
    15  H    4.405013   3.988210   5.836104   2.639029   2.720878
    16  H    4.817700   4.270554   6.105897   3.201125   3.752188
                    6          7          8          9         10
     6  O    0.000000
     7  O    5.125675   0.000000
     8  O    2.257371   4.468967   0.000000
     9  C    2.705123   5.893785   1.439487   0.000000
    10  H    3.751945   6.205610   2.018507   1.085843   0.000000
    11  H    2.701485   6.464689   2.082021   1.088933   1.788247
    12  H    2.727702   6.286173   2.081976   1.088865   1.786888
    13  C    6.464870   1.439411   5.894108   7.321834   7.601208
    14  H    6.888881   2.081721   6.463191   7.866109   8.181568
    15  H    6.628586   2.082256   6.287619   7.726567   8.081273
    16  H    7.096803   2.018231   6.206824   7.601947   7.733288
                   11         12         13         14         15
    11  H    0.000000
    12  H    1.785719   0.000000
    13  C    7.868281   7.724957   0.000000
    14  H    8.478607   8.139596   1.088990   0.000000
    15  H    8.143639   8.185319   1.088866   1.785997   0.000000
    16  H    8.184496   8.080354   1.085828   1.788190   1.786830
                   16
    16  H    0.000000
 Stoichiometry    C4H6N2O4
 Framework group  C1[X(C4H6N2O4)]
 Deg. of freedom    42
 Full point group                 C1      NOp   1
 Largest Abelian subgroup         C1      NOp   1
 Largest concise Abelian subgroup C1      NOp   1
                         Standard orientation:                         
 ---------------------------------------------------------------------
 Center     Atomic      Atomic             Coordinates (Angstroms)
 Number     Number       Type             X           Y           Z
 ---------------------------------------------------------------------
      1          7           0        0.358917    0.311157   -0.497752
      2          7           0       -0.357876    0.302342    0.497045
      3          6           0        1.765434    0.365394   -0.175150
      4          6           0       -1.764391    0.363341    0.175769
      5          8           0       -2.362424    1.395638    0.185890
      6          8           0        2.366914    1.395715   -0.183577
      7          8           0       -2.235777   -0.851419    0.011788
      8          8           0        2.233117   -0.851270   -0.013631
      9          6           0        3.654419   -0.953835    0.190096
     10          1           0        3.853126   -2.016747    0.289033
     11          1           0        4.185774   -0.542409   -0.666739
     12          1           0        3.941156   -0.426062    1.098316
     13          6           0       -3.657515   -0.949653   -0.190489
     14          1           0       -4.186383   -0.547993    0.672568
     15          1           0       -3.945701   -0.410977   -1.091825
     16          1           0       -3.857579   -2.011101   -0.301509
 ---------------------------------------------------------------------
 Rotational constants (GHZ):      3.7422510      0.5963233      0.5284486
 Basis read from rwf:  (5D, 7F)
 There are   436 symmetry adapted cartesian basis functions of A   symmetry.
 There are   386 symmetry adapted basis functions of A   symmetry.
   386 basis functions,   598 primitive gaussians,   436 cartesian basis functions
    38 alpha electrons       38 beta electrons
       nuclear repulsion energy       523.0194780297 Hartrees.
 NAtoms=   16 NActive=   16 NUniq=   16 SFac= 1.00D+00 NAtFMM=   60 NAOKFM=F Big=F
 Integral buffers will be    131072 words long.
 Raffenetti 2 integral format.
 Two-electron integral symmetry is turned on.
 Nuclear repulsion after empirical dispersion term =      523.0142707379 Hartrees.
 ------------------------------------------------------------------------------
 Polarizable Continuum Model (PCM)
 =================================
 Model                : PCM (using non-symmetric T matrix).
 Atomic radii         : SMD-Coulomb.
 Polarization charges : Total charges.
 Charge compensation  : None.
 Solution method      : On-the-fly selection.
 Cavity type          : VdW (van der Waals Surface) (Alpha=1.000).
 Cavity algorithm     : GePol (No added spheres)
                        Default sphere list used, NSphG=   16.
                        Lebedev-Laikov grids with approx.  5.0 points / Ang**2.
                        Smoothing algorithm: Karplus/York (Gamma=1.0000).
                        Polarization charges: spherical gaussians, with
                                              point-specific exponents (IZeta= 3).
                        Self-potential: point-specific (ISelfS= 7).
                        Self-field    : sphere-specific E.n sum rule (ISelfD= 2).
 1st derivatives      : Analytical E(r).r(x)/FMM algorithm (CHGder, D1EAlg=3).
                        Cavity 1st derivative terms included.
 Solvent              : Toluene, Eps=   2.374100 Eps(inf)=   2.238315
 ------------------------------------------------------------------------------
 Spheres list:
 ISph  on   Nord     Re0    Alpha      Xe            Ye            Ze
    1   N      1    1.8900  1.000      0.358917      0.311157     -0.497752
    2   N      2    1.8900  1.000     -0.357876      0.302342      0.497045
    3   C      3    1.8500  1.000      1.765434      0.365394     -0.175150
    4   C      4    1.8500  1.000     -1.764391      0.363341      0.175769
    5   O      5    2.2940  1.000     -2.362424      1.395638      0.185890
    6   O      6    2.2940  1.000      2.366914      1.395715     -0.183577
    7   O      7    2.2940  1.000     -2.235777     -0.851419      0.011788
    8   O      8    2.2940  1.000      2.233117     -0.851270     -0.013631
    9   C      9    1.8500  1.000      3.654419     -0.953835      0.190096
   10   H     10    1.2000  1.000      3.853126     -2.016747      0.289033
   11   H     11    1.2000  1.000      4.185774     -0.542409     -0.666739
   12   H     12    1.2000  1.000      3.941156     -0.426062      1.098316
   13   C     13    1.8500  1.000     -3.657515     -0.949653     -0.190489
   14   H     14    1.2000  1.000     -4.186383     -0.547993      0.672568
   15   H     15    1.2000  1.000     -3.945701     -0.410977     -1.091825
   16   H     16    1.2000  1.000     -3.857579     -2.011101     -0.301509
 ------------------------------------------------------------------------------
 ------------------------------------------------------------------------------
 Atomic radii for non-electrostatic terms: SMD-CDS.
 ------------------------------------------------------------------------------
 Nuclear repulsion after PCM non-electrostatic terms =      523.0140604923 Hartrees.
 One-electron integrals computed using PRISM.
 NBasis=   386 RedAO= T EigKep=  1.12D-05  NBF=   386
 NBsUse=   386 1.00D-06 EigRej= -1.00D+00 NBFU=   386
 Initial guess from the checkpoint file:  ""dmad_ma.chk""
 B after Tr=     0.000000    0.000000    0.000000
         Rot=    1.000000    0.000358   -0.000131   -0.000140 Ang=   0.05 deg.
 ExpMin= 3.17D-02 ExpMax= 2.70D+04 ExpMxC= 9.22D+02 IAcc=3 IRadAn=         5 AccDes= 0.00D+00
 Harris functional with IExCor= 4639 and IRadAn=       5 diagonalized for initial guess.
 HarFok:  IExCor= 4639 AccDes= 0.00D+00 IRadAn=         5 IDoV= 1 UseB2=F ITyADJ=14
 ICtDFT=  3500011 ScaDFX=  1.000000  1.000000  1.000000  1.000000
 FoFCou: FMM=F IPFlag=           0 FMFlag=      100000 FMFlg1=           0
         NFxFlg=           0 DoJE=T BraDBF=F KetDBF=T FulRan=T
         wScrn=  0.000000 ICntrl=     500 IOpCl=  0 I1Cent=   200000004 NGrid=           0
         NMat0=    1 NMatS0=      1 NMatT0=    0 NMatD0=    1 NMtDS0=    0 NMtDT0=    0
 Petite list used in FoFCou.
 Requested convergence on RMS density matrix=1.00D-08 within 128 cycles.
 Requested convergence on MAX density matrix=1.00D-06.
 Requested convergence on             energy=1.00D-06.
 No special actions if energy rises.
 Inv3:  Mode=1 IEnd=     7805307.
 Iteration    1 A*A^-1 deviation from unit magnitude is 4.22D-15 for   1597.
 Iteration    1 A*A^-1 deviation from orthogonality  is 1.45D-15 for   1487      3.
 Iteration    1 A^-1*A deviation from unit magnitude is 4.44D-15 for    302.
 Iteration    1 A^-1*A deviation from orthogonality  is 1.23D-15 for   1612    594.
 Error on total polarization charges =  0.01081
 SCF Done:  E(RwB97XD) =  -566.434810683     A.U. after   12 cycles
            NFock= 12  Conv=0.66D-08     -V/T= 2.0041
 SMD-CDS (non-electrostatic) energy       (kcal/mol) =      -0.13
 (included in total energy above)
 D1PCM: PCM CHGder 1st derivatives, ID1Alg=3 FixD1E=F DoIter=F DoCFld=F I1PDM=0.
 Calling FoFJK, ICntrl=      2127 FMM=F ISym2X=0 I1Cent= 0 IOpClX= 0 NMat=1 NMatS=1 NMatT=0.
 ***** Axes restored to original set *****
 -------------------------------------------------------------------
 Center     Atomic                   Forces (Hartrees/Bohr)
 Number     Number              X              Y              Z
 -------------------------------------------------------------------
      1        7          -0.002290523    0.002270668   -0.000549137
      2        7           0.002545594   -0.001073836    0.001720109
      3        6           0.001629126   -0.004159733    0.001399494
      4        6          -0.002123985    0.001949865   -0.003376358
      5        8           0.000220620   -0.001099080    0.001143448
      6        8          -0.000235347    0.001364316   -0.001031258
      7        8           0.001956866    0.000169829    0.000556037
      8        8          -0.001635074    0.001051687    0.000674470
      9        6           0.001789399    0.000258104   -0.001086721
     10        1          -0.000324429   -0.000065467    0.000042759
     11        1          -0.000113219   -0.000128031    0.000150862
     12        1          -0.000257042   -0.000032338    0.000130979
     13        6          -0.001884521   -0.000647334    0.000589974
     14        1           0.000136200    0.000110857   -0.000114512
     15        1           0.000261794    0.000056989   -0.000098212
     16        1           0.000324542   -0.000026495   -0.000151935
 -------------------------------------------------------------------
 Cartesian Forces:  Max     0.004159733 RMS     0.001339631

 GradGradGradGradGradGradGradGradGradGradGradGradGradGradGradGradGradGrad
 Berny optimization.
 Using GEDIIS/GDIIS optimizer.
 FormGI is forming the generalized inverse of G from B-inverse, IUseBI=4.
 Internal  Forces:  Max     0.001798515 RMS     0.000765842
 Search for a local minimum.
 Step number   2 out of a maximum of   62
 All quantities printed in internal units (Hartrees-Bohrs-Radians)
 Mixed Optimization -- En-DIIS/RFO-DIIS
 Update second derivatives using D2CorX and points    1    2
 DE= -2.03D-04 DEPred=-2.46D-04 R= 8.24D-01
 TightC=F SS=  1.41D+00  RLast= 7.94D-02 DXNew= 5.0454D-01 2.3826D-01
 Trust test= 8.24D-01 RLast= 7.94D-02 DXMaxT set to 3.00D-01
 ITU=  1  0
 Use linear search instead of GDIIS.
     Eigenvalues ---    0.00914   0.01060   0.01094   0.01099   0.02068
     Eigenvalues ---    0.02593   0.02790   0.03152   0.05241   0.10183
     Eigenvalues ---    0.10222   0.10675   0.10681   0.15307   0.16000
     Eigenvalues ---    0.16000   0.16000   0.16000   0.16133   0.19219
     Eigenvalues ---    0.24941   0.24943   0.25000   0.25000   0.25000
     Eigenvalues ---    0.25000   0.25220   0.34665   0.34677   0.34690
     Eigenvalues ---    0.34818   0.34955   0.35015   0.35952   0.38540
     Eigenvalues ---    0.38701   0.38940   0.61595   0.62701   0.91630
     Eigenvalues ---    1.04032   1.06614
 RFO step:  Lambda=-5.69705363D-04 EMin= 9.14258064D-03
 Quartic linear search produced a step of -0.15167.
 Iteration  1 RMS(Cart)=  0.02830497 RMS(Int)=  0.00092149
 Iteration  2 RMS(Cart)=  0.00165263 RMS(Int)=  0.00026078
 Iteration  3 RMS(Cart)=  0.00000120 RMS(Int)=  0.00026078
 Iteration  4 RMS(Cart)=  0.00000000 RMS(Int)=  0.00026078
 Variable       Old X    -DE/DX   Delta X   Delta X   Delta X     New X
                                 (Linear)    (Quad)   (Total)
    R1        2.31712  -0.00046   0.00038  -0.00374  -0.00335   2.31377
    R2        2.72887  -0.00057   0.00106  -0.01046  -0.00940   2.71947
    R3        2.72882  -0.00056   0.00107  -0.01048  -0.00942   2.71941
    R4        2.25457  -0.00021   0.00099  -0.00872  -0.00773   2.24684
    R5        2.48202  -0.00035   0.00104  -0.00953  -0.00849   2.47353
    R6        2.25455  -0.00021   0.00097  -0.00859  -0.00762   2.24693
    R7        2.48176  -0.00022   0.00103  -0.00926  -0.00823   2.47353
    R8        2.72009  -0.00120   0.00155  -0.01602  -0.01447   2.70562
    R9        2.72024  -0.00126   0.00151  -0.01579  -0.01429   2.70595
   R10        2.05195   0.00013   0.00069  -0.00566  -0.00497   2.04698
   R11        2.05778   0.00018   0.00065  -0.00518  -0.00453   2.05325
   R12        2.05766   0.00012   0.00064  -0.00528  -0.00463   2.05302
   R13        2.05789   0.00015   0.00063  -0.00510  -0.00447   2.05343
   R14        2.05766   0.00012   0.00062  -0.00509  -0.00447   2.05319
   R15        2.05192   0.00014   0.00070  -0.00573  -0.00503   2.04689
    A1        1.96970   0.00180  -0.00120   0.01644   0.01524   1.98494
    A2        1.96989   0.00172  -0.00120   0.01622   0.01502   1.98491
    A3        2.11987  -0.00039   0.00032  -0.00115  -0.00164   2.11823
    A4        1.91718   0.00047   0.00011   0.00364   0.00295   1.92013
    A5        2.24122   0.00018  -0.00002   0.00402   0.00319   2.24441
    A6        2.12105  -0.00046   0.00028  -0.00121  -0.00166   2.11939
    A7        1.91592   0.00056   0.00009   0.00396   0.00333   1.91926
    A8        2.24142   0.00015   0.00002   0.00333   0.00263   2.24405
    A9        2.02106   0.00098  -0.00123   0.01397   0.01274   2.03380
   A10        2.02082   0.00096  -0.00142   0.01555   0.01413   2.03495
   A11        1.83727   0.00039   0.00032  -0.00069  -0.00037   1.83689
   A12        1.92145   0.00004  -0.00041   0.00372   0.00330   1.92475
   A13        1.92146   0.00030  -0.00047   0.00565   0.00517   1.92663
   A14        1.93077  -0.00022   0.00019  -0.00284  -0.00265   1.92811
   A15        1.92866  -0.00026   0.00026  -0.00352  -0.00326   1.92540
   A16        1.92270  -0.00022   0.00010  -0.00212  -0.00203   1.92067
   A17        1.92106   0.00007  -0.00040   0.00377   0.00336   1.92442
   A18        1.92195   0.00028  -0.00041   0.00503   0.00461   1.92656
   A19        1.83700   0.00043   0.00033  -0.00058  -0.00025   1.83675
   A20        1.92307  -0.00024   0.00004  -0.00175  -0.00172   1.92135
   A21        1.93062  -0.00022   0.00011  -0.00207  -0.00196   1.92865
   A22        1.92859  -0.00029   0.00033  -0.00423  -0.00391   1.92468
    D1        3.05496   0.00117   0.00335  -0.00149   0.00186   3.05682
    D2       -1.70342   0.00161  -0.00131   0.08450   0.08314  -1.62028
    D3        1.53602  -0.00107  -0.00615   0.01948   0.01338   1.54940
    D4       -1.68628   0.00148  -0.00053   0.07096   0.07039  -1.61588
    D5        1.55201  -0.00106  -0.00513   0.00960   0.00451   1.55652
    D6        3.04442   0.00134   0.00452   0.01607   0.02066   3.06508
    D7        0.00938  -0.00154  -0.00077  -0.05436  -0.05520  -0.04582
    D8        3.04396   0.00131   0.00375   0.02089   0.02470   3.06866
    D9        0.00760  -0.00142  -0.00127  -0.04557  -0.04690  -0.03930
   D10       -1.05767  -0.00003   0.00126  -0.01496  -0.01370  -1.07138
   D11        1.06589  -0.00010   0.00078  -0.01138  -0.01059   1.05530
   D12       -3.13846  -0.00005   0.00115  -0.01412  -0.01298   3.13175
   D13       -3.12906  -0.00005   0.00143  -0.01799  -0.01656   3.13757
   D14       -1.04774  -0.00007   0.00162  -0.01982  -0.01821  -1.06595
   D15        1.07530  -0.00012   0.00117  -0.01634  -0.01516   1.06014
         Item               Value     Threshold  Converged?
 Maximum Force            0.001799     0.000450     NO 
 RMS     Force            0.000766     0.000300     NO 
 Maximum Displacement     0.104393     0.001800     NO 
 RMS     Displacement     0.028767     0.001200     NO 
 Predicted change in Energy=-2.997937D-04
 GradGradGradGradGradGradGradGradGradGradGradGradGradGradGradGradGradGrad

                          Input orientation:                          
 ---------------------------------------------------------------------
 Center     Atomic      Atomic             Coordinates (Angstroms)
 Number     Number       Type             X           Y           Z
 ---------------------------------------------------------------------
      1          7           0        0.307443   -1.007401    0.737014
      2          7           0        0.440251   -0.134767   -0.111522
      3          6           0       -1.036080   -1.127931    1.238391
      4          6           0        1.802339    0.061004   -0.532527
      5          8           0        2.502096    0.869303   -0.012169
      6          8           0       -1.388448   -0.542233    2.211254
      7          8           0        2.077111   -0.729606   -1.538883
      8          8           0       -1.717576   -1.964202    0.497094
      9          6           0       -3.049589   -2.264385    0.928424
     10          1           0       -3.437836   -2.957899    0.192454
     11          1           0       -3.032039   -2.724855    1.912402
     12          1           0       -3.652815   -1.361105    0.950679
     13          6           0        3.372591   -0.584416   -2.130973
     14          1           0        3.491234    0.416993   -2.535768
     15          1           0        4.148584   -0.784678   -1.397341
     16          1           0        3.407115   -1.320931   -2.924448
 ---------------------------------------------------------------------
                    Distance matrix (angstroms):
                    1          2          3          4          5
     1  N    0.000000
     2  N    1.224394   0.000000
     3  C    1.439083   2.233426   0.000000
     4  C    2.233369   1.439047   3.550541   0.000000
     5  O    2.983252   2.295481   4.251062   1.189025   0.000000
     6  O    2.294736   2.984201   1.188977   4.251277   4.698125
     7  O    2.896309   2.251778   4.190927   1.308937   2.251217
     8  O    2.252495   2.893694   1.308934   4.189438   5.108203
     9  C    3.589751   4.218500   2.332773   5.575215   6.444061
    10  H    4.257712   4.806457   3.195498   6.090880   7.069098
    11  H    3.934887   4.781383   2.643542   6.091791   6.873762
    12  H    3.981759   4.402881   2.642812   5.829323   6.617003
    13  C    4.218934   3.588731   5.575339   2.331799   2.713005
    14  H    4.782941   3.935722   6.093245   2.644251   2.748004
    15  H    4.399936   3.978373   5.826289   2.639686   2.713904
    16  H    4.807553   4.256973   6.091671   3.194735   3.754671
                    6          7          8          9         10
     6  O    0.000000
     7  O    5.109671   0.000000
     8  O    2.251369   4.479853   0.000000
     9  C    2.714930   5.892894   1.431926   0.000000
    10  H    3.756459   6.194955   2.009859   1.083213   0.000000
    11  H    2.748553   6.480418   2.075934   1.086533   1.782471
    12  H    2.717895   6.279233   2.077165   1.086412   1.780695
    13  C    6.443928   1.431754   5.892398   7.309350   7.577180
    14  H    6.875000   2.075623   6.480744   7.872279   8.175885
    15  H    6.613581   2.077033   6.276304   7.707944   8.050099
    16  H    7.069599   2.009568   6.195418   7.577846   7.697278
                   11         12         13         14         15
    11  H    0.000000
    12  H    1.780475   0.000000
    13  C    7.870811   7.710782   0.000000
    14  H    8.497678   8.145819   1.086626   0.000000
    15  H    8.141255   8.167453   1.086502   1.781050   0.000000
    16  H    8.174890   8.053622   1.083165   1.782843   1.780280
                   16
    16  H    0.000000
 Stoichiometry    C4H6N2O4
 Framework group  C1[X(C4H6N2O4)]
 Deg. of freedom    42
 Full point group                 C1      NOp   1
 Largest Abelian subgroup         C1      NOp   1
 Largest concise Abelian subgroup C1      NOp   1
                         Standard orientation:                         
 ---------------------------------------------------------------------
 Center     Atomic      Atomic             Coordinates (Angstroms)
 Number     Number       Type             X           Y           Z
 ---------------------------------------------------------------------
      1          7           0        0.360562    0.309845   -0.495015
      2          7           0       -0.360332    0.307163    0.494655
      3          6           0        1.765433    0.364826   -0.187976
      4          6           0       -1.765158    0.363831    0.187877
      5          8           0       -2.345541    1.399879    0.128386
      6          8           0        2.345609    1.400881   -0.127535
      7          8           0       -2.239851   -0.847174    0.041420
      8          8           0        2.239274   -0.846246   -0.039350
      9          6           0        3.650436   -0.960631    0.175007
     10          1           0        3.838023   -2.022669    0.276185
     11          1           0        4.194343   -0.557939   -0.675028
     12          1           0        3.938892   -0.438435    1.082969
     13          6           0       -3.650440   -0.959031   -0.176863
     14          1           0       -4.195731   -0.557599    0.672999
     15          1           0       -3.935664   -0.434596   -1.084663
     16          1           0       -3.839020   -2.020502   -0.281570
 ---------------------------------------------------------------------
 Rotational constants (GHZ):      3.7416683      0.5990907      0.5298715
 Basis read from rwf:  (5D, 7F)
 There are   436 symmetry adapted cartesian basis functions of A   symmetry.
 There are   386 symmetry adapted basis functions of A   symmetry.
   386 basis functions,   598 primitive gaussians,   436 cartesian basis functions
    38 alpha electrons       38 beta electrons
       nuclear repulsion energy       524.1011289498 Hartrees.
 NAtoms=   16 NActive=   16 NUniq=   16 SFac= 1.00D+00 NAtFMM=   60 NAOKFM=F Big=F
 Integral buffers will be    131072 words long.
 Raffenetti 2 integral format.
 Two-electron integral symmetry is turned on.
 Nuclear repulsion after empirical dispersion term =      524.0959265964 Hartrees.
 ------------------------------------------------------------------------------
 Polarizable Continuum Model (PCM)
 =================================
 Model                : PCM (using non-symmetric T matrix).
 Atomic radii         : SMD-Coulomb.
 Polarization charges : Total charges.
 Charge compensation  : None.
 Solution method      : On-the-fly selection.
 Cavity type          : VdW (van der Waals Surface) (Alpha=1.000).
 Cavity algorithm     : GePol (No added spheres)
                        Default sphere list used, NSphG=   16.
                        Lebedev-Laikov grids with approx.  5.0 points / Ang**2.
                        Smoothing algorithm: Karplus/York (Gamma=1.0000).
                        Polarization charges: spherical gaussians, with
                                              point-specific exponents (IZeta= 3).
                        Self-potential: point-specific (ISelfS= 7).
                        Self-field    : sphere-specific E.n sum rule (ISelfD= 2).
 1st derivatives      : Analytical E(r).r(x)/FMM algorithm (CHGder, D1EAlg=3).
                        Cavity 1st derivative terms included.
 Solvent              : Toluene, Eps=   2.374100 Eps(inf)=   2.238315
 ------------------------------------------------------------------------------
 Spheres list:
 ISph  on   Nord     Re0    Alpha      Xe            Ye            Ze
    1   N      1    1.8900  1.000      0.360562      0.309845     -0.495015
    2   N      2    1.8900  1.000     -0.360332      0.307163      0.494655
    3   C      3    1.8500  1.000      1.765433      0.364826     -0.187976
    4   C      4    1.8500  1.000     -1.765158      0.363831      0.187877
    5   O      5    2.2940  1.000     -2.345541      1.399879      0.128386
    6   O      6    2.2940  1.000      2.345609      1.400881     -0.127535
    7   O      7    2.2940  1.000     -2.239851     -0.847174      0.041420
    8   O      8    2.2940  1.000      2.239274     -0.846246     -0.039350
    9   C      9    1.8500  1.000      3.650436     -0.960631      0.175007
   10   H     10    1.2000  1.000      3.838023     -2.022669      0.276185
   11   H     11    1.2000  1.000      4.194343     -0.557939     -0.675028
   12   H     12    1.2000  1.000      3.938892     -0.438435      1.082969
   13   C     13    1.8500  1.000     -3.650440     -0.959031     -0.176863
   14   H     14    1.2000  1.000     -4.195731     -0.557599      0.672999
   15   H     15    1.2000  1.000     -3.935664     -0.434596     -1.084663
   16   H     16    1.2000  1.000     -3.839020     -2.020502     -0.281570
 ------------------------------------------------------------------------------
 ------------------------------------------------------------------------------
 Atomic radii for non-electrostatic terms: SMD-CDS.
 ------------------------------------------------------------------------------
 Nuclear repulsion after PCM non-electrostatic terms =      524.0956902339 Hartrees.
 One-electron integrals computed using PRISM.
 NBasis=   386 RedAO= T EigKep=  1.06D-05  NBF=   386
 NBsUse=   386 1.00D-06 EigRej= -1.00D+00 NBFU=   386
 Initial guess from the checkpoint file:  ""dmad_ma.chk""
 B after Tr=     0.000000    0.000000    0.000000
         Rot=    1.000000    0.000559    0.000036   -0.000178 Ang=   0.07 deg.
 ExpMin= 3.17D-02 ExpMax= 2.70D+04 ExpMxC= 9.22D+02 IAcc=3 IRadAn=         5 AccDes= 0.00D+00
 Harris functional with IExCor= 4639 and IRadAn=       5 diagonalized for initial guess.
 HarFok:  IExCor= 4639 AccDes= 0.00D+00 IRadAn=         5 IDoV= 1 UseB2=F ITyADJ=14
 ICtDFT=  3500011 ScaDFX=  1.000000  1.000000  1.000000  1.000000
 FoFCou: FMM=F IPFlag=           0 FMFlag=      100000 FMFlg1=           0
         NFxFlg=           0 DoJE=T BraDBF=F KetDBF=T FulRan=T
         wScrn=  0.000000 ICntrl=     500 IOpCl=  0 I1Cent=   200000004 NGrid=           0
         NMat0=    1 NMatS0=      1 NMatT0=    0 NMatD0=    1 NMtDS0=    0 NMtDT0=    0
 Petite list used in FoFCou.
 Requested convergence on RMS density matrix=1.00D-08 within 128 cycles.
 Requested convergence on MAX density matrix=1.00D-06.
 Requested convergence on             energy=1.00D-06.
 No special actions if energy rises.
 Inv3:  Mode=1 IEnd=     7766643.
 Iteration    1 A*A^-1 deviation from unit magnitude is 3.55D-15 for   1574.
 Iteration    1 A*A^-1 deviation from orthogonality  is 2.54D-15 for   1346    710.
 Iteration    1 A^-1*A deviation from unit magnitude is 3.77D-15 for   1574.
 Iteration    1 A^-1*A deviation from orthogonality  is 1.88D-15 for   1608    832.
 Error on total polarization charges =  0.01088
 SCF Done:  E(RwB97XD) =  -566.434470282     A.U. after   13 cycles
            NFock= 13  Conv=0.56D-08     -V/T= 2.0040
 SMD-CDS (non-electrostatic) energy       (kcal/mol) =      -0.15
 (included in total energy above)
 D1PCM: PCM CHGder 1st derivatives, ID1Alg=3 FixD1E=F DoIter=F DoCFld=F I1PDM=0.
 Calling FoFJK, ICntrl=      2127 FMM=F ISym2X=0 I1Cent= 0 IOpClX= 0 NMat=1 NMatS=1 NMatT=0.
 ***** Axes restored to original set *****
 -------------------------------------------------------------------
 Center     Atomic                   Forces (Hartrees/Bohr)
 Number     Number              X              Y              Z
 -------------------------------------------------------------------
      1        7           0.005056493   -0.002603621    0.000376561
      2        7          -0.005252381    0.001769828   -0.001150334
      3        6           0.000207027    0.005524722   -0.008358318
      4        6          -0.001125849   -0.008263379    0.004808884
      5        8           0.003938340    0.007301310    0.001410963
      6        8          -0.001805534    0.001424544    0.008277920
      7        8          -0.002905372   -0.001172441   -0.003243172
      8        8           0.001779658   -0.003911504   -0.001878881
      9        6          -0.000162386    0.000103717   -0.000079514
     10        1          -0.001183071   -0.001390788   -0.001072358
     11        1           0.000060946   -0.000803460    0.001822076
     12        1          -0.000956274    0.001705779    0.000163788
     13        6           0.000230743   -0.000166189   -0.000028531
     14        1           0.000266959    0.001770884   -0.000680303
     15        1           0.001302065   -0.000138541    0.001386888
     16        1           0.000548637   -0.001150860   -0.001755668
 -------------------------------------------------------------------
 Cartesian Forces:  Max     0.008358318 RMS     0.003125950

 GradGradGradGradGradGradGradGradGradGradGradGradGradGradGradGradGradGrad
 Berny optimization.
 Using GEDIIS/GDIIS optimizer.
 FormGI is forming the generalized inverse of G from B-inverse, IUseBI=4.
 Internal  Forces:  Max     0.008010357 RMS     0.002335719
 Search for a local minimum.
 Step number   3 out of a maximum of   62
 All quantities printed in internal units (Hartrees-Bohrs-Radians)
 Mixed Optimization -- RFO/linear search
 Update second derivatives using D2CorX and points    1    3    2
 DE=  3.40D-04 DEPred=-3.00D-04 R=-1.14D+00
 Trust test=-1.14D+00 RLast= 1.47D-01 DXMaxT set to 1.50D-01
 ITU= -1  1  0
 Use linear search instead of GDIIS.
 Energy rises -- skip Quadratic/GDIIS search.
 Quartic linear search produced a step of -0.68430.
 Iteration  1 RMS(Cart)=  0.02003455 RMS(Int)=  0.00041701
 Iteration  2 RMS(Cart)=  0.00076658 RMS(Int)=  0.00005810
 Iteration  3 RMS(Cart)=  0.00000027 RMS(Int)=  0.00005810
 Variable       Old X    -DE/DX   Delta X   Delta X   Delta X     New X
                                 (Linear)    (Quad)   (Total)
    R1        2.31377  -0.00091   0.00230   0.00000   0.00230   2.31607
    R2        2.71947   0.00131   0.00643   0.00000   0.00643   2.72591
    R3        2.71941   0.00134   0.00644   0.00000   0.00644   2.72585
    R4        2.24684   0.00801   0.00529   0.00000   0.00529   2.25213
    R5        2.47353   0.00358   0.00581   0.00000   0.00581   2.47934
    R6        2.24693   0.00790   0.00521   0.00000   0.00521   2.25214
    R7        2.47353   0.00373   0.00563   0.00000   0.00563   2.47916
    R8        2.70562   0.00260   0.00990   0.00000   0.00990   2.71552
    R9        2.70595   0.00242   0.00978   0.00000   0.00978   2.71573
   R10        2.04698   0.00204   0.00340   0.00000   0.00340   2.05038
   R11        2.05325   0.00199   0.00310   0.00000   0.00310   2.05635
   R12        2.05302   0.00196   0.00317   0.00000   0.00317   2.05619
   R13        2.05343   0.00191   0.00306   0.00000   0.00306   2.05648
   R14        2.05319   0.00190   0.00306   0.00000   0.00306   2.05625
   R15        2.04689   0.00209   0.00344   0.00000   0.00344   2.05033
    A1        1.98494  -0.00341  -0.01043   0.00000  -0.01043   1.97451
    A2        1.98491  -0.00340  -0.01027   0.00000  -0.01027   1.97463
    A3        2.11823   0.00059   0.00112   0.00000   0.00130   2.11953
    A4        1.92013  -0.00047  -0.00202   0.00000  -0.00184   1.91830
    A5        2.24441  -0.00028  -0.00218   0.00000  -0.00200   2.24241
    A6        2.11939   0.00042   0.00113   0.00000   0.00129   2.12069
    A7        1.91926  -0.00036  -0.00228   0.00000  -0.00212   1.91714
    A8        2.24405  -0.00021  -0.00180   0.00000  -0.00164   2.24241
    A9        2.03380  -0.00148  -0.00872   0.00000  -0.00872   2.02508
   A10        2.03495  -0.00182  -0.00967   0.00000  -0.00967   2.02528
   A11        1.83689   0.00098   0.00025   0.00000   0.00026   1.83715
   A12        1.92475  -0.00022  -0.00226   0.00000  -0.00226   1.92249
   A13        1.92663  -0.00031  -0.00354   0.00000  -0.00354   1.92309
   A14        1.92811  -0.00023   0.00182   0.00000   0.00182   1.92993
   A15        1.92540  -0.00008   0.00223   0.00000   0.00223   1.92763
   A16        1.92067  -0.00011   0.00139   0.00000   0.00139   1.92206
   A17        1.92442  -0.00014  -0.00230   0.00000  -0.00230   1.92212
   A18        1.92656  -0.00028  -0.00316   0.00000  -0.00316   1.92341
   A19        1.83675   0.00101   0.00017   0.00000   0.00017   1.83692
   A20        1.92135  -0.00020   0.00118   0.00000   0.00118   1.92253
   A21        1.92865  -0.00031   0.00134   0.00000   0.00134   1.93000
   A22        1.92468  -0.00005   0.00267   0.00000   0.00267   1.92735
    D1        3.05682  -0.00026  -0.00127   0.00000  -0.00127   3.05554
    D2       -1.62028  -0.00270  -0.05689   0.00000  -0.05688  -1.67717
    D3        1.54940   0.00256  -0.00916   0.00000  -0.00917   1.54024
    D4       -1.61588  -0.00257  -0.04817   0.00000  -0.04817  -1.66405
    D5        1.55652   0.00241  -0.00309   0.00000  -0.00309   1.55343
    D6        3.06508  -0.00279  -0.01414   0.00000  -0.01416   3.05093
    D7       -0.04582   0.00294   0.03777   0.00000   0.03779  -0.00803
    D8        3.06866  -0.00272  -0.01691   0.00000  -0.01692   3.05174
    D9       -0.03930   0.00271   0.03209   0.00000   0.03211  -0.00719
   D10       -1.07138   0.00021   0.00938   0.00000   0.00938  -1.06200
   D11        1.05530  -0.00032   0.00724   0.00000   0.00724   1.06254
   D12        3.13175   0.00006   0.00888   0.00000   0.00888   3.14063
   D13        3.13757   0.00001   0.01133   0.00000   0.01133  -3.13428
   D14       -1.06595   0.00019   0.01246   0.00000   0.01246  -1.05348
   D15        1.06014  -0.00029   0.01038   0.00000   0.01037   1.07051
         Item               Value     Threshold  Converged?
 Maximum Force            0.008010     0.000450     NO 
 RMS     Force            0.002336     0.000300     NO 
 Maximum Displacement     0.071203     0.001800     NO 
 RMS     Displacement     0.019796     0.001200     NO 
 Predicted change in Energy=-9.232348D-05
 GradGradGradGradGradGradGradGradGradGradGradGradGradGradGradGradGradGrad

                          Input orientation:                          
 ---------------------------------------------------------------------
[...]
     16          1           0        3.419426   -1.317840   -2.932609
 ---------------------------------------------------------------------
                    Distance matrix (angstroms):
                    1          2          3          4          5
     1  N    0.000000
     2  N    1.225060   0.000000
     3  C    1.442016   2.229637   0.000000
     4  C    2.229644   1.442017   3.548115   0.000000
     5  O    2.996058   2.302609   4.262759   1.193082   0.000000
     6  O    2.302613   2.996035   1.193082   4.262749   4.723931
     7  O    2.898112   2.255595   4.190848   1.312736   2.257275
     8  O    2.255590   2.898150   1.312736   4.190875   5.122059
     9  C    3.593140   4.225744   2.332962   5.580994   6.460229
    10  H    4.270017   4.823141   3.202503   6.106598   7.093675
    11  H    3.932212   4.783135   2.644907   6.089371   6.884592
    12  H    3.982983   4.408364   2.634774   5.836505   6.630732
    13  C    4.225707   3.593146   5.580965   2.332962   2.709382
    14  H    4.783223   3.932306   6.089432   2.645067   2.735148
    15  H    4.408312   3.982892   5.836463   2.634624   2.707944
    16  H    4.822999   4.270037   6.106496   3.202503   3.756531
                    6          7          8          9         10
     6  O    0.000000
     7  O    5.122027   0.000000
     8  O    2.257273   4.478666   0.000000
     9  C    2.709375   5.897486   1.436289   0.000000
    10  H    3.756529   6.208960   2.018359   1.086088   0.000000
    11  H    2.734824   6.479417   2.080086   1.089411   1.787250
    12  H    2.708238   6.285056   2.081932   1.089131   1.786004
    13  C    6.460198   1.436288   5.897478   7.320013   7.598141
    14  H    6.884704   2.080072   6.479416   7.876256   8.190569
    15  H    6.630634   2.081943   6.285101   7.721127   8.074133
    16  H    7.093573   2.018361   6.208888   7.598090   7.727905
                   11         12         13         14         15
    11  H    0.000000
    12  H    1.784728   0.000000
    13  C    7.876255   7.721080   0.000000
    14  H    8.497087   8.148287   1.089411   0.000000
    15  H    8.148335   8.179224   1.089130   1.784736   0.000000
    16  H    8.190522   8.074040   1.086088   1.787247   1.785997
                   16
    16  H    0.000000
 Stoichiometry    C4H6N2O4
 Framework group  C1[X(C4H6N2O4)]
 Deg. of freedom    42
 Full point group                 C1      NOp   1
 Largest Abelian subgroup         C1      NOp   1
 Largest concise Abelian subgroup C1      NOp   1
                         Standard orientation:                         
 ---------------------------------------------------------------------
 Center     Atomic      Atomic             Coordinates (Angstroms)
 Number     Number       Type             X           Y           Z
 ---------------------------------------------------------------------
      1          7           0        0.361561    0.311381   -0.494426
      2          7           0       -0.361570    0.311432    0.494439
      3          6           0        1.765797    0.365076   -0.170930
      4          6           0       -1.765809    0.365089    0.170949
      5          8           0       -2.358209    1.400024    0.133322
      6          8           0        2.358189    1.400018   -0.133350
      7          8           0       -2.239021   -0.852046    0.037047
      8          8           0        2.239033   -0.852049   -0.037024
      9          6           0        3.655945   -0.958571    0.172595
     10          1           0        3.854158   -2.021455    0.275437
     11          1           0        4.193217   -0.551758   -0.683359
     12          1           0        3.944515   -0.429354    1.079712
     13          6           0       -3.655924   -0.958597   -0.172610
     14          1           0       -4.193208   -0.552178    0.683524
     15          1           0       -3.944557   -0.429046   -1.079511
     16          1           0       -3.854056   -2.021455   -0.275879
 ---------------------------------------------------------------------
 Rotational constants (GHZ):      3.7390149      0.5969441      0.5279803

 **********************************************************************

            Population analysis using the SCF density.

 **********************************************************************

 Orbital symmetries:
       Occupied  (A) (A) (A) (A) (A) (A) (A) (A) (A) (A) (A) (A)
                 (A) (A) (A) (A) (A) (A) (A) (A) (A) (A) (A) (A)
                 (A) (A) (A) (A) (A) (A) (A) (A) (A) (A) (A) (A)
                 (A) (A)
       Virtual   (A) (A) (A) (A) (A) (A) (A) (A) (A) (A) (A) (A)
                 (A) (A) (A) (A) (A) (A) (A) (A) (A) (A) (A) (A)
                 (A) (A) (A) (A) (A) (A) (A) (A) (A) (A) (A) (A)
                 (A) (A) (A) (A) (A) (A) (A) (A) (A) (A) (A) (A)
                 (A) (A) (A) (A) (A) (A) (A) (A) (A) (A) (A) (A)
                 (A) (A) (A) (A) (A) (A) (A) (A) (A) (A) (A) (A)
                 (A) (A) (A) (A) (A) (A) (A) (A) (A) (A) (A) (A)
                 (A) (A) (A) (A) (A) (A) (A) (A) (A) (A) (A) (A)
                 (A) (A) (A) (A) (A) (A) (A) (A) (A) (A) (A) (A)
                 (A) (A) (A) (A) (A) (A) (A) (A) (A) (A) (A) (A)
                 (A) (A) (A) (A) (A) (A) (A) (A) (A) (A) (A) (A)
                 (A) (A) (A) (A) (A) (A) (A) (A) (A) (A) (A) (A)
                 (A) (A) (A) (A) (A) (A) (A) (A) (A) (A) (A) (A)
                 (A) (A) (A) (A) (A) (A) (A) (A) (A) (A) (A) (A)
                 (A) (A) (A) (A) (A) (A) (A) (A) (A) (A) (A) (A)
                 (A) (A) (A) (A) (A) (A) (A) (A) (A) (A) (A) (A)
                 (A) (A) (A) (A) (A) (A) (A) (A) (A) (A) (A) (A)
                 (A) (A) (A) (A) (A) (A) (A) (A) (A) (A) (A) (A)
                 (A) (A) (A) (A) (A) (A) (A) (A) (A) (A) (A) (A)
                 (A) (A) (A) (A) (A) (A) (A) (A) (A) (A) (A) (A)
                 (A) (A) (A) (A) (A) (A) (A) (A) (A) (A) (A) (A)
                 (A) (A) (A) (A) (A) (A) (A) (A) (A) (A) (A) (A)
                 (A) (A) (A) (A) (A) (A) (A) (A) (A) (A) (A) (A)
                 (A) (A) (A) (A) (A) (A) (A) (A) (A) (A) (A) (A)
                 (A) (A) (A) (A) (A) (A) (A) (A) (A) (A) (A) (A)
                 (A) (A) (A) (A) (A) (A) (A) (A) (A) (A) (A) (A)
                 (A) (A) (A) (A) (A) (A) (A) (A) (A) (A) (A) (A)
                 (A) (A) (A) (A) (A) (A) (A) (A) (A) (A) (A) (A)
                 (A) (A) (A) (A) (A) (A) (A) (A) (A) (A) (A) (A)
 The electronic state is 1-A.
 Alpha  occ. eigenvalues --  -19.32686 -19.32686 -19.26266 -19.26265 -14.53544
 Alpha  occ. eigenvalues --  -14.53482 -10.45754 -10.45754 -10.34808 -10.34808
 Alpha  occ. eigenvalues --   -1.26272  -1.24944  -1.18191  -1.15755  -1.15328
 Alpha  occ. eigenvalues --   -0.91902  -0.85367  -0.81217  -0.71328  -0.67224
 Alpha  occ. eigenvalues --   -0.66287  -0.62914  -0.60330  -0.59766  -0.59155
 Alpha  occ. eigenvalues --   -0.57027  -0.54079  -0.54043  -0.51975  -0.49564
 Alpha  occ. eigenvalues --   -0.48903  -0.47133  -0.46960  -0.41727  -0.41663
 Alpha  occ. eigenvalues --   -0.41379  -0.41257  -0.34695
 Alpha virt. eigenvalues --   -0.01464   0.04659   0.05502   0.06348   0.06626
 Alpha virt. eigenvalues --    0.06882   0.07358   0.07742   0.08424   0.08488
 Alpha virt. eigenvalues --    0.08844   0.10160   0.10207   0.11910   0.12231
 Alpha virt. eigenvalues --    0.12735   0.13959   0.15051   0.16031   0.16139
 Alpha virt. eigenvalues --    0.17073   0.17688   0.18207   0.20161   0.20890
 Alpha virt. eigenvalues --    0.21053   0.21312   0.21570   0.21987   0.22063
 Alpha virt. eigenvalues --    0.22336   0.23058   0.23731   0.24205   0.24613
 Alpha virt. eigenvalues --    0.25246   0.25420   0.26062   0.26327   0.27244
 Alpha virt. eigenvalues --    0.27831   0.28745   0.29122   0.29872   0.30157
 Alpha virt. eigenvalues --    0.30328   0.30744   0.33072   0.35476   0.36578
 Alpha virt. eigenvalues --    0.37776   0.38593   0.39744   0.41076   0.41143
 Alpha virt. eigenvalues --    0.42434   0.42552   0.44169   0.44475   0.45582
 Alpha virt. eigenvalues --    0.46823   0.47152   0.47829   0.48491   0.50052
 Alpha virt. eigenvalues --    0.52537   0.52733   0.54754   0.55829   0.56306
 Alpha virt. eigenvalues --    0.56439   0.56666   0.57795   0.58006   0.59012
 Alpha virt. eigenvalues --    0.59724   0.60932   0.62260   0.62553   0.64953
 Alpha virt. eigenvalues --    0.65117   0.66641   0.68183   0.70806   0.72101
 Alpha virt. eigenvalues --    0.72424   0.73703   0.74046   0.74506   0.75321
 Alpha virt. eigenvalues --    0.76744   0.77244   0.78424   0.80198   0.81031
 Alpha virt. eigenvalues --    0.81516   0.82958   0.83041   0.87474   0.88113
 Alpha virt. eigenvalues --    0.88379   0.90260   0.92279   0.97445   0.97733
 Alpha virt. eigenvalues --    0.99436   1.00076   1.04014   1.04796   1.05119
 Alpha virt. eigenvalues --    1.09032   1.11434   1.12142   1.12953   1.15146
 Alpha virt. eigenvalues --    1.15655   1.17666   1.18857   1.21827   1.22244
 Alpha virt. eigenvalues --    1.24821   1.25609   1.31749   1.37910   1.38771
 Alpha virt. eigenvalues --    1.42998   1.46217   1.52102   1.55230   1.55638
 Alpha virt. eigenvalues --    1.56824   1.57579   1.58203   1.59320   1.59571
 Alpha virt. eigenvalues --    1.60752   1.61362   1.62629   1.63440   1.64764
 Alpha virt. eigenvalues --    1.66014   1.67326   1.69839   1.71744   1.72310
 Alpha virt. eigenvalues --    1.73398   1.73666   1.77853   1.84231   1.84590
 Alpha virt. eigenvalues --    1.86032   1.89291   1.90461   1.92664   1.97905
 Alpha virt. eigenvalues --    1.98236   2.01636   2.03779   2.07108   2.07724
 Alpha virt. eigenvalues --    2.08707   2.10620   2.10628   2.13094   2.13873
 Alpha virt. eigenvalues --    2.17039   2.18897   2.19397   2.19944   2.22058
 Alpha virt. eigenvalues --    2.22669   2.25416   2.26396   2.32776   2.36130
 Alpha virt. eigenvalues --    2.38197   2.38319   2.39931   2.42170   2.43506
 Alpha virt. eigenvalues --    2.44415   2.44786   2.46664   2.47461   2.49442
 Alpha virt. eigenvalues --    2.51942   2.55250   2.56258   2.61596   2.63701
 Alpha virt. eigenvalues --    2.65103   2.66001   2.66432   2.68649   2.71961
 Alpha virt. eigenvalues --    2.76337   2.79468   2.81019   2.82544   2.85715
 Alpha virt. eigenvalues --    2.88345   2.89469   2.90332   2.93245   2.97172
 Alpha virt. eigenvalues --    2.98538   3.01958   3.02056   3.06381   3.08107
 Alpha virt. eigenvalues --    3.09335   3.10251   3.13659   3.16154   3.17315
 Alpha virt. eigenvalues --    3.17913   3.21610   3.24479   3.24793   3.26332
 Alpha virt. eigenvalues --    3.29429   3.30024   3.30662   3.35729   3.35952
 Alpha virt. eigenvalues --    3.37128   3.37149   3.37824   3.40002   3.41490
 Alpha virt. eigenvalues --    3.44430   3.45168   3.46301   3.46352   3.47440
 Alpha virt. eigenvalues --    3.48133   3.55424   3.55841   3.57422   3.57650
 Alpha virt. eigenvalues --    3.62072   3.62113   3.66375   3.66611   3.68539
 Alpha virt. eigenvalues --    3.69237   3.69679   3.72540   3.78106   3.84701
 Alpha virt. eigenvalues --    3.88421   3.95843   3.96475   4.00367   4.02073
 Alpha virt. eigenvalues --    4.05838   4.12136   4.22624   4.27173   4.28090
 Alpha virt. eigenvalues --    4.29042   4.37612   4.37893   4.42732   4.47032
 Alpha virt. eigenvalues --    4.50476   4.53762   4.59654   4.61448   4.65009
 Alpha virt. eigenvalues --    4.70110   4.74306   4.78203   4.86684   4.88781
 Alpha virt. eigenvalues --    4.92247   4.95232   4.97049   4.99287   5.00898
 Alpha virt. eigenvalues --    5.05256   5.10681   5.12615   5.22062   5.23721
 Alpha virt. eigenvalues --    5.25893   5.26782   5.30574   5.37990   5.40881
 Alpha virt. eigenvalues --    5.47271   5.53549   5.55412   5.56154   5.62989
 Alpha virt. eigenvalues --    5.69129   5.71959   5.75069   5.76674   5.78379
 Alpha virt. eigenvalues --    5.92368   5.94343   5.99039   6.04861   6.11285
 Alpha virt. eigenvalues --    6.13656   6.19808   6.21054   6.25707   6.26151
 Alpha virt. eigenvalues --    6.26186   6.33673   6.39706   6.42968   6.43832
 Alpha virt. eigenvalues --    6.55859   6.57769   6.58981   6.60759   6.71716
 Alpha virt. eigenvalues --    6.72621   6.77529   6.78750   6.81640   6.84477
 Alpha virt. eigenvalues --    6.91955   6.98302   6.99005   7.00013   7.01124
 Alpha virt. eigenvalues --    7.10362   7.12690   7.28201   7.28614   7.40756
 Alpha virt. eigenvalues --    7.41701   7.47703   7.51652  22.48746  22.50591
 Alpha virt. eigenvalues --   23.46745  23.59151  32.32957  32.56482  44.04079
 Alpha virt. eigenvalues --   44.08405  44.22889  44.26808
          Condensed to atoms (all electrons):
               1          2          3          4          5          6
     1  N    6.850127   0.127019   0.167037  -0.031782   0.000566  -0.007017
     2  N    0.127019   6.850112  -0.031799   0.167016  -0.007021   0.000561
     3  C    0.167037  -0.031799   4.682951  -0.016656  -0.007645   0.463475
     4  C   -0.031782   0.167016  -0.016656   4.682944   0.463473  -0.007645
     5  O    0.000566  -0.007021  -0.007645   0.463473   8.067878   0.001025
     6  O   -0.007017   0.000561   0.463475  -0.007645   0.001025   8.067876
     7  O    0.031194  -0.018426  -0.010189   0.269530  -0.122784  -0.001193
     8  O   -0.018447   0.031216   0.269521  -0.010189  -0.001192  -0.122783
     9  C   -0.006399   0.004011  -0.024582  -0.003396   0.000123   0.002386
    10  H    0.003512  -0.001379   0.005507   0.000114   0.000002   0.003870
    11  H    0.007192  -0.005405  -0.003060   0.000389  -0.000005  -0.005654
    12  H   -0.010319   0.008605  -0.011948  -0.000539   0.000010  -0.003397
    13  C    0.004002  -0.006386  -0.003395  -0.024578   0.002386   0.000123
    14  H   -0.005405   0.007186   0.000388  -0.003074  -0.005654  -0.000005
    15  H    0.008607  -0.010313  -0.000539  -0.011934  -0.003396   0.000010
    16  H   -0.001379   0.003511   0.000115   0.005506   0.003870   0.000002
               7          8          9         10         11         12
     1  N    0.031194  -0.018447  -0.006399   0.003512   0.007192  -0.010319
     2  N   -0.018426   0.031216   0.004011  -0.001379  -0.005405   0.008605
     3  C   -0.010189   0.269521  -0.024582   0.005507  -0.003060  -0.011948
     4  C    0.269530  -0.010189  -0.003396   0.000114   0.000389  -0.000539
     5  O   -0.122784  -0.001192   0.000123   0.000002  -0.000005   0.000010
     6  O   -0.001193  -0.122783   0.002386   0.003870  -0.005654  -0.003397
     7  O    8.079937   0.007210  -0.000661  -0.000042   0.000066  -0.000039
     8  O    0.007210   8.079938   0.148434  -0.053851  -0.025108  -0.017602
     9  C   -0.000661   0.148434   4.872730   0.415283   0.411138   0.415272
    10  H   -0.000042  -0.053851   0.415283   0.499493  -0.019230  -0.020294
    11  H    0.000066  -0.025108   0.411138  -0.019230   0.496035  -0.027425
    12  H   -0.000039  -0.017602   0.415272  -0.020294  -0.027425   0.495802
    13  C    0.148427  -0.000660  -0.000156  -0.000009   0.000024  -0.000026
    14  H   -0.025104   0.000066   0.000024   0.000000   0.000000   0.000000
    15  H   -0.017609  -0.000039  -0.000026   0.000000   0.000000   0.000000
    16  H   -0.053849  -0.000042  -0.000009   0.000000   0.000000   0.000000
              13         14         15         16
     1  N    0.004002  -0.005405   0.008607  -0.001379
     2  N   -0.006386   0.007186  -0.010313   0.003511
     3  C   -0.003395   0.000388  -0.000539   0.000115
     4  C   -0.024578  -0.003074  -0.011934   0.005506
     5  O    0.002386  -0.005654  -0.003396   0.003870
     6  O    0.000123  -0.000005   0.000010   0.000002
     7  O    0.148427  -0.025104  -0.017609  -0.053849
     8  O   -0.000660   0.000066  -0.000039  -0.000042
     9  C   -0.000156   0.000024  -0.000026  -0.000009
    10  H   -0.000009   0.000000   0.000000   0.000000
    11  H    0.000024   0.000000   0.000000   0.000000
    12  H   -0.000026   0.000000   0.000000   0.000000
    13  C    4.872733   0.411157   0.415254   0.415283
    14  H    0.411157   0.496029  -0.027424  -0.019228
    15  H    0.415254  -0.027424   0.495803  -0.020296
    16  H    0.415283  -0.019228  -0.020296   0.499494
 Mulliken charges:
               1
     1  N   -0.118507
     2  N   -0.118507
     3  C    0.520819
     4  C    0.520822
     5  O   -0.391637
     6  O   -0.391636
     7  O   -0.286469
     8  O   -0.286471
     9  C   -0.234172
    10  H    0.167023
    11  H    0.171043
    12  H    0.171901
    13  C   -0.234179
    14  H    0.171044
    15  H    0.171904
    16  H    0.167022
 Sum of Mulliken charges =   0.00000
 Mulliken charges with hydrogens summed into heavy atoms:
               1
     1  N   -0.118507
     2  N   -0.118507
     3  C    0.520819
     4  C    0.520822
     5  O   -0.391637
     6  O   -0.391636
     7  O   -0.286469
     8  O   -0.286471
     9  C    0.275795
    13  C    0.275791
 Electronic spatial extent (au):  <R**2>=           2039.1515
 Charge=              0.0000 electrons
 Dipole moment (field-independent basis, Debye):
    X=              0.0000    Y=             -4.7928    Z=              0.0000  Tot=              4.7928
 Quadrupole moment (field-independent basis, Debye-Ang):
   XX=            -35.5716   YY=            -62.8661   ZZ=            -56.3974
   XY=              0.0002   XZ=              1.8407   YZ=              0.0001
 Traceless Quadrupole moment (field-independent basis, Debye-Ang):
   XX=             16.0401   YY=            -11.2544   ZZ=             -4.7857
   XY=              0.0002   XZ=              1.8407   YZ=              0.0001
 Octapole moment (field-independent basis, Debye-Ang**2):
  XXX=              0.0015  YYY=            -17.7686  ZZZ=              0.0008  XYY=              0.0000
  XXY=            -56.4847  XXZ=             -0.0003  XZZ=             -0.0004  YZZ=              0.1641
  YYZ=             -0.0011  XYZ=             -0.9618
 Hexadecapole moment (field-independent basis, Debye-Ang**3):
 XXXX=          -1704.4951 YYYY=           -340.0811 ZZZZ=            -89.4860 XXXY=              0.0025
 XXXZ=             19.6001 YYYX=             -0.0008 YYYZ=              0.0032 ZZZX=             -0.4117
 ZZZY=             -0.0011 XXYY=           -411.7427 XXZZ=           -343.7738 YYZZ=            -72.9536
 XXYZ=              0.0001 YYXZ=              6.8353 ZZXY=              0.0009
 N-N= 5.231372469918D+02 E-N=-2.374963058376D+03  KE= 5.641061202344D+02
 1\1\GINC-D8S4B1\FOpt\RwB97XD\Gen\C4H6N2O4\PMMASS\09-Feb-2022\0\\#n wB9
 7XD/Gen scrf(smd,solvent=toluene) opt\\dmad cycloaddition toluene - op
 t\\0,1\N,0.3057124321,-1.0069671353,0.7374680369\N,0.4422119919,-0.133
 1417198,-0.1102164096\C,-1.045988212,-1.1161735835,1.2277636318\C,1.81
 18697749,0.0483090154,-0.5231643656\O,2.5107451638,0.8744022824,-0.020
 5833855\O,-1.3986019859,-0.5494277146,2.2166558845\O,2.0789651925,-0.7
 389604888,-1.539108472\O,-1.7202882478,-1.9669786552,0.4897075873\C,-3
 .054039337,-2.2660708558,0.9308181642\H,-3.4518160229,-2.9622889278,0.
 1982599568\H,-3.028196204,-2.7253630693,1.9183394597\H,-3.6556227004,-
 1.3585487875,0.9573975694\C,3.3770862538,-0.5832797515,-2.133725228\H,
 3.4871957577,0.4233843561,-2.5353721814\H,4.1557202747,-0.7781647015,-
 1.3975508821\H,3.4194258687,-1.3178402631,-2.9326093663\\Version=ES64L
 -G09RevD.01\State=1-A\HF=-566.4349309\RMSD=5.367e-09\RMSF=7.926e-06\Di
 pole=-0.3154222,-1.2688969,-1.3587094\Quadrupole=8.8103991,-5.1638926,
 -3.6465066,2.3087243,-6.144052,-3.5276894\PG=C01 [X(C4H6N2O4)]\\@


 KEEP CLOSE TO NATURES HEART, YOURSELF;
 AND BREAK CLEAR AWAY, ONCE IN A WHILE, AND
 CLIMB A MOUNTAIN OR SPEND A WEEK IN THE
 WOODS.  WASH YOUR SPIRIT CLEAN...
                                         -- JOHN MUIR
 Job cpu time:       0 days  4 hours 24 minutes 16.6 seconds.
 File lengths (MBytes):  RWF=    133 Int=      0 D2E=      0 Chk=     12 Scr=      1
 Normal termination of Gaussian 09 at Wed Feb  9 13:27:03 2022.
