 Entering Gaussian System, Link 0=g09
 Input=prod_cyclo_ma.com
 Output=prod_cyclo_ma.log
 Initial command:
 /apps/applications/gaussian/G09.D01/2/default/g09/l1.exe "/nobackup/pmmass/Temp/Gau-69237.inp" -scrdir="/nobackup/pmmass/Temp/"
 Entering Link 1 = /apps/applications/gaussian/G09.D01/2/default/g09/l1.exe PID=     69238.
  
 Copyright (c) 1988,1990,1992,1993,1995,1998,2003,2009,2013,
            Gaussian, Inc.  All Rights Reserved.
  
 This is part of the Gaussian(R) 09 program.  It is based on
 the Gaussian(R) 03 system (copyright 2003, Gaussian, Inc.),
 the Gaussian(R) 98 system (copyright 1998, Gaussian, Inc.),
 the Gaussian(R) 94 system (copyright 1995, Gaussian, Inc.),
 the Gaussian 92(TM) system (copyright 1992, Gaussian, Inc.),
 the Gaussian 90(TM) system (copyright 1990, Gaussian, Inc.),
 the Gaussian 88(TM) system (copyright 1988, Gaussian, Inc.),
 the Gaussian 86(TM) system (copyright 1986, Carnegie Mellon
 University), and the Gaussian 82(TM) system (copyright 1983,
 Carnegie Mellon University). Gaussian is a federally registered
 trademark of Gaussian, Inc.
  
 This software contains proprietary and confidential information,
 including trade secrets, belonging to Gaussian, Inc.
  
 This software is provided under written license and may be
 used, copied, transmitted, or stored only in accord with that
 written license.
  
 The following legend is applicable only to US Government
 contracts under FAR:
  
                    RESTRICTED RIGHTS LEGEND
  
 Use, reproduction and disclosure by the US Government is
 subject to restrictions as set forth in subparagraphs (a)
 and (c) of the Commercial Computer Software - Restricted
 Rights clause in FAR 52.227-19.
  
 Gaussian, Inc.
 340 Quinnipiac St., Bldg. 40, Wallingford CT 06492
  
  
 ---------------------------------------------------------------
 Warning -- This program may not be used in any manner that
 competes with the business of Gaussian, Inc. or will provide
 assistance to any competitor of Gaussian, Inc.  The licensee
 of this program is prohibited from giving any competitor of
 Gaussian, Inc. access to this program.  By using this program,
 the user acknowledges that Gaussian, Inc. is engaged in the
 business of creating and licensing software in the field of
 computational chemistry and represents and warrants to the
 licensee that it is not a competitor of Gaussian, Inc. and that
 it will not use this program in any manner prohibited above.
 ---------------------------------------------------------------
  

 Cite this work as:
 Gaussian 09, Revision D.01,
 M. J. Frisch, G. W. Trucks, H. B. Schlegel, G. E. Scuseria, 
 M. A. Robb, J. R. Cheeseman, G. Scalmani, V. Barone, B. Mennucci, 
 G. A. Petersson, H. Nakatsuji, M. Caricato, X. Li, H. P. Hratchian, 
 A. F. Izmaylov, J. Bloino, G. Zheng, J. L. Sonnenberg, M. Hada, 
 M. Ehara, K. Toyota, R. Fukuda, J. Hasegawa, M. Ishida, T. Nakajima, 
 Y. Honda, O. Kitao, H. Nakai, T. Vreven, J. A. Montgomery, Jr., 
 J. E. Peralta, F. Ogliaro, M. Bearpark, J. J. Heyd, E. Brothers, 
 K. N. Kudin, V. N. Staroverov, T. Keith, R. Kobayashi, J. Normand, 
 K. Raghavachari, A. Rendell, J. C. Burant, S. S. Iyengar, J. Tomasi, 
 M. Cossi, N. Rega, J. M. Millam, M. Klene, J. E. Knox, J. B. Cross, 
 V. Bakken, C. Adamo, J. Jaramillo, R. Gomperts, R. E. Stratmann, 
 O. Yazyev, A. J. Austin, R. Cammi, C. Pomelli, J. W. Ochterski, 
 R. L. Martin, K. Morokuma, V. G. Zakrzewski, G. A. Voth, 
 P. Salvador, J. J. Dannenberg, S. Dapprich, A. D. Daniels, 
 O. Farkas, J. B. Foresman, J. V. Ortiz, J. Cioslowski, 
 and D. J. Fox, Gaussian, Inc., Wallingford CT, 2013.
 
 ******************************************
 Gaussian 09:  ES64L-G09RevD.01 24-Apr-2013
                 9-Feb-2022 
 ******************************************
 %nprocshared=8
 Will use up to    8 processors via shared memory.
 %mem=4GB
 %NoSave
 %chk="prod_cyclo_ma.chk"
 -------------------------------------------
 #n wB97XD/Gen scrf(smd,solvent=toluene) opt
 -------------------------------------------
 1/14=-1,18=20,19=15,26=3,38=1/1,3;
 2/9=110,12=2,17=6,18=5,40=1/2;
 3/5=7,11=2,16=1,25=1,30=1,70=32201,71=1,72=13,74=-58/1,2,3;
 4//1;
 5/5=2,38=5,53=13/2;
 6/7=2,8=2,9=2,10=2,28=1/1;
 7//1,2,3,16;
 1/14=-1,18=20,19=15,26=3/3(2);
 2/9=110/2;
 99//99;
 2/9=110/2;
 3/5=7,6=1,11=2,16=1,25=1,30=1,70=32205,71=1,72=13,74=-58,82=7/1,2,3;
 4/5=5,16=3,69=1/1;
 5/5=2,38=5,53=13/2;
 7//1,2,3,16;
 1/14=-1,18=20,19=15,26=3/3(-5);
 2/9=110/2;
 6/7=2,8=2,9=2,10=2,19=2,28=1/1;
 99/9=1/99;
 --------------------------------------
 Cycloaddition product in toluene - opt
 --------------------------------------
 Symbolic Z-matrix:
 Charge =  0 Multiplicity = 3
 C                     0.27362   0.72618  -0.55375 
 C                     0.73837   1.91495   0.34266 
 C                    -1.5475    1.85494   0.61369 
 C                    -1.1887    1.12891  -0.64938 
 H                     0.76964   0.73529  -1.52398 
 H                    -1.91208   0.60082  -1.25234 
 C                    -0.30178   1.86413   1.49246 
 H                    -0.24033   2.75298   2.1265 
 H                    -0.21401   0.97198   2.12061 
 C                     0.21646   3.06425  -0.47599 
 H                     0.60298   4.07599  -0.48476 
 C                    -1.18654   2.6564   -0.64203 
 H                    -1.93371   3.21041  -1.19396 
 H                     1.78916   1.91851   0.62192 
 H                    -2.55593   1.83728   1.00672 
 N                    -0.28037  -1.26845   0.84693 
 N                     0.55617  -0.58765   0.08239 
 C                    -1.6024   -1.4239    0.44085 
 C                     1.90313  -1.00837   0.21392 
 O                     2.2544   -1.94155   0.88081 
 O                    -2.53532  -1.38626   1.20446 
 O                     2.70089  -0.24635  -0.53566 
 O                    -1.68859  -1.77909  -0.85307 
 C                    -3.01448  -2.07689  -1.31195 
 H                    -2.91263  -2.31396  -2.37068 
 H                    -3.42251  -2.93276  -0.77023 
 H                    -3.67382  -1.21571  -1.1773 
 C                     4.08985  -0.61749  -0.50668 
 H                     4.59422   0.09665  -1.15604 
 H                     4.4788   -0.54948   0.51096 
 H                     4.21809  -1.63348  -0.88457 
 

 GradGradGradGradGradGradGradGradGradGradGradGradGradGradGradGradGradGrad
 Berny optimization.
 Initialization pass.
                           ----------------------------
                           !    Initial Parameters    !
                           ! (Angstroms and Degrees)  !
 --------------------------                            --------------------------
 ! Name  Definition              Value          Derivative Info.                !
 --------------------------------------------------------------------------------
 ! R1    R(1,2)                  1.5597         estimate D2E/DX2                !
 ! R2    R(1,4)                  1.5198         estimate D2E/DX2                !
 ! R3    R(1,5)                  1.0897         estimate D2E/DX2                !
 ! R4    R(1,17)                 1.4868         estimate D2E/DX2                !
 ! R5    R(2,7)                  1.5513         estimate D2E/DX2                !
 ! R6    R(2,10)                 1.5045         estimate D2E/DX2                !
 ! R7    R(2,14)                 1.0873         estimate D2E/DX2                !
 ! R8    R(3,4)                  1.5004         estimate D2E/DX2                !
 ! R9    R(3,7)                  1.5245         estimate D2E/DX2                !
 ! R10   R(3,12)                 1.5328         estimate D2E/DX2                !
 ! R11   R(3,15)                 1.0825         estimate D2E/DX2                !
 ! R12   R(4,6)                  1.0797         estimate D2E/DX2                !
 ! R13   R(4,12)                 1.5275         estimate D2E/DX2                !
 ! R14   R(7,8)                  1.0935         estimate D2E/DX2                !
 ! R15   R(7,9)                  1.0946         estimate D2E/DX2                !
 ! R16   R(10,11)                1.0831         estimate D2E/DX2                !
 ! R17   R(10,12)                1.4705         estimate D2E/DX2                !
 ! R18   R(12,13)                1.0816         estimate D2E/DX2                !
 ! R19   R(16,17)                1.322          estimate D2E/DX2                !
 ! R20   R(16,18)                1.3917         estimate D2E/DX2                !
 ! R21   R(17,19)                1.4173         estimate D2E/DX2                !
 ! R22   R(18,21)                1.2062         estimate D2E/DX2                !
 ! R23   R(18,23)                1.3446         estimate D2E/DX2                !
 ! R24   R(19,20)                1.1996         estimate D2E/DX2                !
 ! R25   R(19,22)                1.3338         estimate D2E/DX2                !
 ! R26   R(22,28)                1.438          estimate D2E/DX2                !
 ! R27   R(23,24)                1.4343         estimate D2E/DX2                !
 ! R28   R(24,25)                1.0897         estimate D2E/DX2                !
 ! R29   R(24,26)                1.092          estimate D2E/DX2                !
 ! R30   R(24,27)                1.0929         estimate D2E/DX2                !
 ! R31   R(28,29)                1.0891         estimate D2E/DX2                !
 ! R32   R(28,30)                1.0916         estimate D2E/DX2                !
 ! R33   R(28,31)                1.0916         estimate D2E/DX2                !
 ! A1    A(2,1,4)               96.944          estimate D2E/DX2                !
 ! A2    A(2,1,5)              111.6976         estimate D2E/DX2                !
 ! A3    A(2,1,17)             111.7753         estimate D2E/DX2                !
 ! A4    A(4,1,5)              112.3174         estimate D2E/DX2                !
 ! A5    A(4,1,17)             116.3551         estimate D2E/DX2                !
 ! A6    A(5,1,17)             107.5673         estimate D2E/DX2                !
 ! A7    A(1,2,7)              101.6083         estimate D2E/DX2                !
 ! A8    A(1,2,10)              99.5632         estimate D2E/DX2                !
 ! A9    A(1,2,14)             115.9817         estimate D2E/DX2                !
 ! A10   A(7,2,10)             101.2877         estimate D2E/DX2                !
 ! A11   A(7,2,14)             117.2415         estimate D2E/DX2                !
 ! A12   A(10,2,14)            118.1981         estimate D2E/DX2                !
 ! A13   A(4,3,7)              107.0233         estimate D2E/DX2                !
 ! A14   A(4,3,15)             121.3688         estimate D2E/DX2                !
 ! A15   A(7,3,12)             106.0604         estimate D2E/DX2                !
 ! A16   A(7,3,15)             123.5076         estimate D2E/DX2                !
 ! A17   A(12,3,15)            121.6934         estimate D2E/DX2                !
 ! A18   A(1,4,3)              107.7794         estimate D2E/DX2                !
 ! A19   A(1,4,6)              123.3801         estimate D2E/DX2                !
 ! A20   A(1,4,12)             105.2675         estimate D2E/DX2                !
 ! A21   A(3,4,6)              123.1329         estimate D2E/DX2                !
 ! A22   A(6,4,12)             119.5211         estimate D2E/DX2                !
 ! A23   A(2,7,3)               96.9408         estimate D2E/DX2                !
 ! A24   A(2,7,8)              111.4344         estimate D2E/DX2                !
 ! A25   A(2,7,9)              113.4698         estimate D2E/DX2                !
 ! A26   A(3,7,8)              112.6457         estimate D2E/DX2                !
 ! A27   A(3,7,9)              113.0409         estimate D2E/DX2                !
 ! A28   A(8,7,9)              108.9802         estimate D2E/DX2                !
 ! A29   A(2,10,11)            126.4555         estimate D2E/DX2                !
 ! A30   A(2,10,12)            100.4016         estimate D2E/DX2                !
 ! A31   A(11,10,12)           126.774          estimate D2E/DX2                !
 ! A32   A(3,12,10)            106.0934         estimate D2E/DX2                !
 ! A33   A(3,12,13)            121.5473         estimate D2E/DX2                !
 ! A34   A(4,12,10)            106.2153         estimate D2E/DX2                !
 ! A35   A(4,12,13)            120.5829         estimate D2E/DX2                !
 ! A36   A(10,12,13)           125.076          estimate D2E/DX2                !
 ! A37   A(17,16,18)           119.3316         estimate D2E/DX2                !
 ! A38   A(1,17,16)            125.6069         estimate D2E/DX2                !
 ! A39   A(1,17,19)            118.8575         estimate D2E/DX2                !
 ! A40   A(16,17,19)           113.2559         estimate D2E/DX2                !
 ! A41   A(16,18,21)           123.1288         estimate D2E/DX2                !
 ! A42   A(16,18,23)           111.7897         estimate D2E/DX2                !
 ! A43   A(21,18,23)           124.6044         estimate D2E/DX2                !
 ! A44   A(17,19,20)           124.1136         estimate D2E/DX2                !
 ! A45   A(17,19,22)           110.2854         estimate D2E/DX2                !
 ! A46   A(20,19,22)           125.5731         estimate D2E/DX2                !
 ! A47   A(19,22,28)           114.7681         estimate D2E/DX2                !
 ! A48   A(18,23,24)           114.9603         estimate D2E/DX2                !
 ! A49   A(23,24,25)           105.6407         estimate D2E/DX2                !
 ! A50   A(23,24,26)           110.4523         estimate D2E/DX2                !
 ! A51   A(23,24,27)           110.7727         estimate D2E/DX2                !
 ! A52   A(25,24,26)           110.2666         estimate D2E/DX2                !
 ! A53   A(25,24,27)           110.3347         estimate D2E/DX2                !
 ! A54   A(26,24,27)           109.3317         estimate D2E/DX2                !
 ! A55   A(22,28,29)           105.4308         estimate D2E/DX2                !
 ! A56   A(22,28,30)           110.2969         estimate D2E/DX2                !
 ! A57   A(22,28,31)           110.2877         estimate D2E/DX2                !
 ! A58   A(29,28,30)           110.4874         estimate D2E/DX2                !
 ! A59   A(29,28,31)           110.4577         estimate D2E/DX2                !
 ! A60   A(30,28,31)           109.8088         estimate D2E/DX2                !
 ! D1    D(4,1,2,7)             50.8303         estimate D2E/DX2                !
 ! D2    D(4,1,2,10)           -52.8938         estimate D2E/DX2                !
 ! D3    D(4,1,2,14)           179.1426         estimate D2E/DX2                !
 ! D4    D(5,1,2,7)            168.2288         estimate D2E/DX2                !
 ! D5    D(5,1,2,10)            64.5047         estimate D2E/DX2                !
 ! D6    D(5,1,2,14)           -63.4589         estimate D2E/DX2                !
 ! D7    D(17,1,2,7)           -71.1906         estimate D2E/DX2                !
 ! D8    D(17,1,2,10)         -174.9147         estimate D2E/DX2                !
 ! D9    D(17,1,2,14)           57.1217         estimate D2E/DX2                !
 ! D10   D(2,1,4,3)            -30.0398         estimate D2E/DX2                !
 ! D11   D(2,1,4,6)            175.9762         estimate D2E/DX2                !
 ! D12   D(2,1,4,12)            33.6483         estimate D2E/DX2                !
 ! D13   D(5,1,4,3)           -146.9499         estimate D2E/DX2                !
 ! D14   D(5,1,4,6)             59.0661         estimate D2E/DX2                !
 ! D15   D(5,1,4,12)           -83.2617         estimate D2E/DX2                !
 ! D16   D(17,1,4,3)            88.4757         estimate D2E/DX2                !
 ! D17   D(17,1,4,6)           -65.5083         estimate D2E/DX2                !
 ! D18   D(17,1,4,12)          152.1639         estimate D2E/DX2                !
 ! D19   D(2,1,17,16)           92.4809         estimate D2E/DX2                !
 ! D20   D(2,1,17,19)          -69.1625         estimate D2E/DX2                !
 ! D21   D(4,1,17,16)          -17.5911         estimate D2E/DX2                !
 ! D22   D(4,1,17,19)         -179.2345         estimate D2E/DX2                !
 ! D23   D(5,1,17,16)         -144.5588         estimate D2E/DX2                !
 ! D24   D(5,1,17,19)           53.7978         estimate D2E/DX2                !
 ! D25   D(1,2,7,3)            -51.623          estimate D2E/DX2                !
 ! D26   D(1,2,7,8)           -169.3            estimate D2E/DX2                !
 ! D27   D(1,2,7,9)             67.2385         estimate D2E/DX2                !
 ! D28   D(10,2,7,3)            50.731          estimate D2E/DX2                !
 ! D29   D(10,2,7,8)           -66.9459         estimate D2E/DX2                !
 ! D30   D(10,2,7,9)           169.5925         estimate D2E/DX2                !
 ! D31   D(14,2,7,3)          -179.1247         estimate D2E/DX2                !
 ! D32   D(14,2,7,8)            63.1983         estimate D2E/DX2                !
 ! D33   D(14,2,7,9)           -60.2632         estimate D2E/DX2                !
 ! D34   D(1,2,10,11)         -154.3403         estimate D2E/DX2                !
 ! D35   D(1,2,10,12)           52.4892         estimate D2E/DX2                !
 ! D36   D(7,2,10,11)          101.6723         estimate D2E/DX2                !
 ! D37   D(7,2,10,12)          -51.4981         estimate D2E/DX2                !
 ! D38   D(14,2,10,11)         -27.8696         estimate D2E/DX2                !
 ! D39   D(14,2,10,12)         178.96           estimate D2E/DX2                !
 ! D40   D(7,3,4,1)             -1.241          estimate D2E/DX2                !
 ! D41   D(7,3,4,6)            152.822          estimate D2E/DX2                !
 ! D42   D(15,3,4,1)          -150.8778         estimate D2E/DX2                !
 ! D43   D(15,3,4,6)             3.1852         estimate D2E/DX2                !
 ! D44   D(4,3,7,2)             32.1292         estimate D2E/DX2                !
 ! D45   D(4,3,7,8)            148.852          estimate D2E/DX2                !
 ! D46   D(4,3,7,9)            -87.0644         estimate D2E/DX2                !
 ! D47   D(12,3,7,2)           -31.234          estimate D2E/DX2                !
 ! D48   D(12,3,7,8)            85.4887         estimate D2E/DX2                !
 ! D49   D(12,3,7,9)          -150.4276         estimate D2E/DX2                !
 ! D50   D(15,3,7,2)          -179.0433         estimate D2E/DX2                !
 ! D51   D(15,3,7,8)           -62.3205         estimate D2E/DX2                !
 ! D52   D(15,3,7,9)            61.7631         estimate D2E/DX2                !
 ! D53   D(7,3,12,10)            1.2957         estimate D2E/DX2                !
 ! D54   D(7,3,12,13)         -150.2205         estimate D2E/DX2                !
 ! D55   D(15,3,12,10)         149.8252         estimate D2E/DX2                !
 ! D56   D(15,3,12,13)          -1.691          estimate D2E/DX2                !
 ! D57   D(1,4,12,10)           -2.8573         estimate D2E/DX2                !
 ! D58   D(1,4,12,13)          147.2595         estimate D2E/DX2                !
 ! D59   D(6,4,12,10)         -146.9507         estimate D2E/DX2                !
 ! D60   D(6,4,12,13)            3.166          estimate D2E/DX2                !
 ! D61   D(2,10,12,3)           30.5824         estimate D2E/DX2                !
 ! D62   D(2,10,12,4)          -30.8024         estimate D2E/DX2                !
 ! D63   D(2,10,12,13)        -179.194          estimate D2E/DX2                !
 ! D64   D(11,10,12,3)        -122.468          estimate D2E/DX2                !
 ! D65   D(11,10,12,4)         176.1472         estimate D2E/DX2                !
 ! D66   D(11,10,12,13)         27.7556         estimate D2E/DX2                !
 ! D67   D(18,16,17,1)          46.0565         estimate D2E/DX2                !
 ! D68   D(18,16,17,19)       -151.414          estimate D2E/DX2                !
 ! D69   D(17,16,18,21)       -141.5458         estimate D2E/DX2                !
 ! D70   D(17,16,18,23)         46.0562         estimate D2E/DX2                !
 ! D71   D(1,17,19,20)         168.3765         estimate D2E/DX2                !
 ! D72   D(1,17,19,22)         -13.4525         estimate D2E/DX2                !
 ! D73   D(16,17,19,20)          4.5586         estimate D2E/DX2                !
 ! D74   D(16,17,19,22)       -177.2704         estimate D2E/DX2                !
 ! D75   D(16,18,23,24)        174.5595         estimate D2E/DX2                !
 ! D76   D(21,18,23,24)          2.2949         estimate D2E/DX2                !
 ! D77   D(17,19,22,28)       -178.1341         estimate D2E/DX2                !
 ! D78   D(20,19,22,28)          0.0042         estimate D2E/DX2                !
 ! D79   D(19,22,28,29)       -179.6976         estimate D2E/DX2                !
 ! D80   D(19,22,28,30)        -60.4086         estimate D2E/DX2                !
 ! D81   D(19,22,28,31)         61.0535         estimate D2E/DX2                !
 ! D82   D(18,23,24,25)        178.3933         estimate D2E/DX2                !
 ! D83   D(18,23,24,26)        -62.3765         estimate D2E/DX2                !
 ! D84   D(18,23,24,27)         58.9111         estimate D2E/DX2                !
 --------------------------------------------------------------------------------
 Trust Radius=3.00D-01 FncErr=1.00D-07 GrdErr=1.00D-06
 Number of steps in this run=    186 maximum allowed number of steps=    186.
 GradGradGradGradGradGradGradGradGradGradGradGradGradGradGradGradGradGrad

                          Input orientation:                          
 ---------------------------------------------------------------------
 Center     Atomic      Atomic             Coordinates (Angstroms)
 Number     Number       Type             X           Y           Z
 ---------------------------------------------------------------------
      1          6           0        0.273620    0.726180   -0.553750
      2          6           0        0.738370    1.914950    0.342660
      3          6           0       -1.547500    1.854940    0.613690
      4          6           0       -1.188700    1.128910   -0.649380
      5          1           0        0.769640    0.735290   -1.523980
      6          1           0       -1.912080    0.600820   -1.252340
      7          6           0       -0.301780    1.864130    1.492460
      8          1           0       -0.240330    2.752980    2.126500
      9          1           0       -0.214010    0.971980    2.120610
     10          6           0        0.216460    3.064250   -0.475990
     11          1           0        0.602980    4.075990   -0.484760
     12          6           0       -1.186540    2.656400   -0.642030
     13          1           0       -1.933710    3.210410   -1.193960
     14          1           0        1.789160    1.918510    0.621920
     15          1           0       -2.555930    1.837280    1.006720
     16          7           0       -0.280370   -1.268450    0.846930
     17          7           0        0.556170   -0.587650    0.082390
     18          6           0       -1.602400   -1.423900    0.440850
     19          6           0        1.903130   -1.008370    0.213920
     20          8           0        2.254400   -1.941550    0.880810
     21          8           0       -2.535320   -1.386260    1.204460
     22          8           0        2.700890   -0.246350   -0.535660
     23          8           0       -1.688590   -1.779090   -0.853070
     24          6           0       -3.014480   -2.076890   -1.311950
     25          1           0       -2.912630   -2.313960   -2.370680
     26          1           0       -3.422510   -2.932760   -0.770230
     27          1           0       -3.673820   -1.215710   -1.177300
     28          6           0        4.089850   -0.617490   -0.506680
     29          1           0        4.594220    0.096650   -1.156040
     30          1           0        4.478800   -0.549480    0.510960
     31          1           0        4.218090   -1.633480   -0.884570
 ---------------------------------------------------------------------
                    Distance matrix (angstroms):
                    1          2          3          4          5
     1  C    0.000000
     2  C    1.559717   0.000000
     3  C    2.439978   2.302664   0.000000
     4  C    1.519775   2.305559   1.500401   0.000000
     5  H    1.089709   2.208375   3.345502   2.180586   0.000000
     6  H    2.298049   3.360930   2.277675   1.079684   2.698795
     7  C    2.411014   1.551301   1.524513   2.432006   3.394279
     8  H    3.399383   2.200507   2.191749   3.352987   4.291517
     9  H    2.729542   2.226505   2.197413   2.940662   3.782410
    10  C    2.340061   1.504483   2.400289   2.397932   2.613110
    11  H    3.366670   2.317984   3.280887   3.452897   3.502575
    12  C    2.421902   2.285747   1.532796   1.527509   2.880128
    13  H    3.384313   3.343565   2.292173   2.276895   3.680113
    14  H    2.258476   1.087271   3.337276   3.332765   2.654113
    15  H    3.417011   3.361461   1.082458   2.261365   4.321833
    16  N    2.499472   3.380260   3.378696   2.968390   3.276997
    17  N    1.486828   2.522686   3.267102   2.554728   2.091928
    18  C    3.021841   4.078819   3.283851   2.806526   3.761547
    19  C    2.500657   3.149451   4.501689   3.856509   2.710248
    20  O    3.619148   4.178582   5.379510   4.860467   3.892685
    21  O    3.929866   4.728396   3.439502   3.402380   4.782062
    22  O    2.614915   3.048631   4.877012   4.127128   2.381201
    23  O    3.196285   4.578847   3.921411   2.957675   3.579821
    24  C    4.386761   5.723321   4.617294   3.748283   4.719415
    25  H    4.764019   6.210933   5.305636   4.217601   4.855300
    26  H    5.205390   6.484731   5.324751   4.636990   5.621108
    27  H    4.443201   5.619496   4.142194   3.457132   4.865277
    28  C    4.046143   4.285680   6.256825   5.561777   3.726756
    29  H    4.407567   4.518838   6.629046   5.896137   3.894952
    30  H    4.521554   4.482472   6.489074   6.023615   4.421480
    31  H    4.608284   5.119170   6.903324   6.076141   4.232224
                    6          7          8          9         10
     6  H    0.000000
     7  C    3.423879   0.000000
     8  H    4.340864   1.093543   0.000000
     9  H    3.794469   1.094627   1.781204   0.000000
    10  C    3.346922   2.362976   2.660545   3.362325   0.000000
    11  H    4.357925   3.101663   3.046343   4.134042   1.083094
    12  C    2.263691   2.442650   2.927354   3.378648   1.470483
    13  H    2.610333   3.419432   3.755294   4.353655   2.271580
    14  H    4.352969   2.265574   2.660626   2.674824   2.234169
    15  H    2.654567   2.306048   2.730278   2.733877   3.374912
    16  N    3.250167   3.198472   4.220285   2.578021   4.557329
    17  N    3.047331   2.955605   3.996574   2.679545   3.709928
    18  C    2.657496   3.688989   4.705632   3.238744   4.928726
    19  C    4.392635   3.840254   4.732878   3.469803   4.461733
    20  O    5.326681   4.625081   5.460223   4.014824   5.572445
    21  O    3.220680   3.954324   4.821871   3.433527   5.495748
    22  O    4.744557   4.193259   4.973314   4.127559   4.139568
    23  O    2.423497   4.549484   5.613818   4.311096   5.218175
    24  C    2.896372   5.545728   6.545723   5.377798   6.129366
    25  H    3.278373   6.260737   7.282836   6.184791   6.504321
    26  H    3.872985   6.153769   7.130565   5.822235   7.020884
    27  H    2.531628   5.289961   6.201165   5.256661   5.826163
    28  C    6.169558   5.425994   6.086392   5.286991   5.344090
    29  H    6.526515   5.840321   6.419037   5.884022   5.332345
    30  H    6.728727   5.444520   5.982173   5.189247   5.674562
    31  H    6.535008   6.189731   6.941548   5.955085   6.184549
                   11         12         13         14         15
    11  H    0.000000
    12  C    2.289618   0.000000
    13  H    2.772542   1.081581   0.000000
    14  H    2.699349   3.316149   4.338915   0.000000
    15  H    4.149102   2.294464   2.667515   4.362852   0.000000
    16  N    5.578238   4.294484   5.192201   3.806612   3.853474
    17  N    4.698232   3.753090   4.717397   2.844678   4.052140
    18  C    5.997437   4.241983   4.925363   4.765204   3.444521
    19  C    5.294267   4.869215   5.873804   2.957377   5.348782
    20  O    6.387704   5.941402   6.956122   3.896606   6.118389
    21  O    6.522160   4.644549   5.219552   5.473754   3.229665
    22  O    4.804835   4.852771   5.819112   2.618752   5.861280
    23  O    6.298326   4.468799   5.007135   5.286075   4.158032
    24  C    7.185276   5.118026   5.397919   6.540492   4.572442
    25  H    7.533105   5.538239   5.732505   6.998306   5.363475
    26  H    8.087561   6.021188   6.335188   7.254957   5.163506
    27  H    6.839058   4.633175   4.755922   6.550166   3.916678
    28  C    5.847008   6.211036   7.169968   3.605303   7.244492
    29  H    5.675893   6.343005   7.232621   3.787965   7.670200
    30  H    6.116242   6.610834   7.626520   3.652047   7.445121
    31  H    6.769558   6.904486   7.836047   4.559150   7.842863
                   16         17         18         19         20
    16  N    0.000000
    17  N    1.322047   0.000000
    18  C    1.391700   2.342484   0.000000
    19  C    2.288234   1.417253   3.537358   0.000000
    20  O    2.622836   2.313980   3.916176   1.199566   0.000000
    21  O    2.286155   3.384395   1.206174   4.563311   4.832651
    22  O    3.441534   2.257941   4.567111   1.333779   2.253762
    23  O    2.265797   2.708055   1.344551   3.825301   4.310441
    24  C    3.576268   4.112367   2.343645   5.258603   5.708556
    25  H    4.286595   4.585877   3.227013   5.619276   6.116296
    26  H    3.906172   4.696424   2.656346   5.747545   5.994642
    27  H    3.951682   4.458037   2.636766   5.751596   6.317155
    28  C    4.621129   3.582567   5.826647   2.335336   2.654645
    29  H    5.443989   4.278764   6.577251   3.215560   3.711843
    30  H    4.824883   3.946157   6.144145   2.633038   2.650019
    31  H    4.833992   3.929177   5.973170   2.637514   2.658487
                   21         22         23         24         25
    21  O    0.000000
    22  O    5.634297   0.000000
    23  O    2.259358   4.660212   0.000000
    24  C    2.653089   6.051360   1.434308   0.000000
    25  H    3.712764   6.257309   2.021757   1.089718   0.000000
    26  H    2.660483   6.690878   2.084297   1.091999   1.790065
    27  H    2.645383   6.479837   2.088938   1.092928   1.791569
    28  C    6.885629   1.437983   5.904208   7.297247   7.442260
    29  H    7.655150   2.021687   6.563832   7.914600   7.977417
    30  H    7.097818   2.085249   6.434999   7.861630   8.127144
    31  H    7.073451   2.085129   5.908558   7.258742   7.315651
                   26         27         28         29         30
    26  H    0.000000
    27  H    1.782449   0.000000
    28  C    7.865462   7.815508   0.000000
    29  H    8.578702   8.371573   1.089061   0.000000
    30  H    8.351777   8.352203   1.091558   1.791562   0.000000
    31  H    7.751127   7.908379   1.091550   1.791234   1.786205
                   31
    31  H    0.000000
 Stoichiometry    C11H14N2O4(3)
 Framework group  C1[X(C11H14N2O4)]
 Deg. of freedom    87
 Full point group                 C1      NOp   1
 Largest Abelian subgroup         C1      NOp   1
 Largest concise Abelian subgroup C1      NOp   1
                         Standard orientation:                         
 ---------------------------------------------------------------------
 Center     Atomic      Atomic             Coordinates (Angstroms)
 Number     Number       Type             X           Y           Z
 ---------------------------------------------------------------------
      1          6           0        0.322274    0.692932   -0.587718
      2          6           0        0.873936    1.872302    0.271044
      3          6           0       -1.405464    1.952853    0.587447
      4          6           0       -1.115744    1.178625   -0.664685
      5          1           0        0.797851    0.650943   -1.567273
      6          1           0       -1.880969    0.680455   -1.240858
      7          6           0       -0.143455    1.908696    1.441568
      8          1           0       -0.017221    2.806507    2.052991
      9          1           0       -0.094896    1.027361    2.088946
     10          6           0        0.403127    3.031480   -0.564488
     11          1           0        0.847705    4.018303   -0.604763
     12          6           0       -1.024391    2.703124   -0.693701
     13          1           0       -1.749226    3.287459   -1.244140
     14          1           0        1.928686    1.820426    0.529829
     15          1           0       -2.404881    2.003368    1.000156
     16          7           0       -0.318023   -1.233522    0.870416
     17          7           0        0.540823   -0.620512    0.073917
     18          6           0       -1.654966   -1.320164    0.493712
     19          6           0        1.863394   -1.116569    0.189419
     20          8           0        2.173356   -2.053460    0.871413
     21          8           0       -2.568146   -1.210517    1.274056
     22          8           0        2.688578   -0.419883   -0.593311
     23          8           0       -1.788403   -1.698839   -0.789494
     24          6           0       -3.138586   -1.928515   -1.215514
     25          1           0       -3.072603   -2.195036   -2.270075
     26          1           0       -3.584548   -2.746465   -0.645830
     27          1           0       -3.743683   -1.027258   -1.088692
     28          6           0        4.053842   -0.871244   -0.582299
     29          1           0        4.585475   -0.202838   -1.258060
     30          1           0        4.467016   -0.803216    0.425748
     31          1           0        4.114810   -1.901298   -0.938326
 ---------------------------------------------------------------------
 Rotational constants (GHZ):      0.6060325      0.4665287      0.3178066
 General basis read from cards:  (5D, 7F)
 There are   764 symmetry adapted cartesian basis functions of A   symmetry.
 There are   679 symmetry adapted basis functions of A   symmetry.
   679 basis functions,  1047 primitive gaussians,   764 cartesian basis functions
    64 alpha electrons       62 beta electrons
       nuclear repulsion energy      1316.7478973735 Hartrees.
 NAtoms=   31 NActive=   31 NUniq=   31 SFac= 1.00D+00 NAtFMM=   60 NAOKFM=F Big=F
 Integral buffers will be    131072 words long.
 Raffenetti 2 integral format.
 Two-electron integral symmetry is turned on.
 Nuclear repulsion after empirical dispersion term =     1316.7241087666 Hartrees.
 ------------------------------------------------------------------------------
 Polarizable Continuum Model (PCM)
 =================================
 Model                : PCM (using non-symmetric T matrix).
 Atomic radii         : SMD-Coulomb.
 Polarization charges : Total charges.
 Charge compensation  : None.
 Solution method      : On-the-fly selection.
 Cavity type          : VdW (van der Waals Surface) (Alpha=1.000).
 Cavity algorithm     : GePol (No added spheres)
                        Default sphere list used, NSphG=   31.
                        Lebedev-Laikov grids with approx.  5.0 points / Ang**2.
                        Smoothing algorithm: Karplus/York (Gamma=1.0000).
                        Polarization charges: spherical gaussians, with
                                              point-specific exponents (IZeta= 3).
                        Self-potential: point-specific (ISelfS= 7).
                        Self-field    : sphere-specific E.n sum rule (ISelfD= 2).
 1st derivatives      : Analytical E(r).r(x)/FMM algorithm (CHGder, D1EAlg=3).
                        Cavity 1st derivative terms included.
 Solvent              : Toluene, Eps=   2.374100 Eps(inf)=   2.238315
 ------------------------------------------------------------------------------
 ------------------------------------------------------------------------------
 Atomic radii for non-electrostatic terms: SMD-CDS.
 ------------------------------------------------------------------------------
 Nuclear repulsion after PCM non-electrostatic terms =     1316.7168376694 Hartrees.
 One-electron integrals computed using PRISM.
 NBasis=   679 RedAO= T EigKep=  1.43D-06  NBF=   679
 NBsUse=   676 1.00D-06 EigRej=  6.73D-07 NBFU=   676
 ExpMin= 3.17D-02 ExpMax= 2.70D+04 ExpMxC= 9.22D+02 IAcc=3 IRadAn=         5 AccDes= 0.00D+00
 Harris functional with IExCor= 4639 and IRadAn=       5 diagonalized for initial guess.
 HarFok:  IExCor= 4639 AccDes= 0.00D+00 IRadAn=         5 IDoV= 1 UseB2=F ITyADJ=14
 ICtDFT=  3500011 ScaDFX=  1.000000  1.000000  1.000000  1.000000
 FoFCou: FMM=F IPFlag=           0 FMFlag=      100000 FMFlg1=           0
         NFxFlg=           0 DoJE=T BraDBF=F KetDBF=T FulRan=T
         wScrn=  0.000000 ICntrl=     500 IOpCl=  0 I1Cent=   200000004 NGrid=           0
         NMat0=    1 NMatS0=      1 NMatT0=    0 NMatD0=    1 NMtDS0=    0 NMtDT0=    0
 Petite list used in FoFCou.
 Initial guess <Sx>= 0.0000 <Sy>= 0.0000 <Sz>= 1.0000 <S**2>= 2.0000 S= 1.0000
 Requested convergence on RMS density matrix=1.00D-08 within 128 cycles.
 Requested convergence on MAX density matrix=1.00D-06.
 Requested convergence on             energy=1.00D-06.
 No special actions if energy rises.
 Inv3:  Mode=1 IEnd=    15377088.
 Iteration    1 A*A^-1 deviation from unit magnitude is 7.11D-15 for   2255.
 Iteration    1 A*A^-1 deviation from orthogonality  is 2.11D-15 for   1178    165.
 Iteration    1 A^-1*A deviation from unit magnitude is 7.11D-15 for   2255.
 Iteration    1 A^-1*A deviation from orthogonality  is 4.58D-12 for   1638   1053.
 Error on total polarization charges =  0.02092
 SCF Done:  E(UwB97XD) =  -837.922426835     A.U. after   20 cycles
            NFock= 20  Conv=0.21D-08     -V/T= 2.0048
 <Sx>= 0.0000 <Sy>= 0.0000 <Sz>= 1.0000 <S**2>= 2.0100 S= 1.0033
 <L.S>= 0.000000000000E+00
 SMD-CDS (non-electrostatic) energy       (kcal/mol) =      -4.56
 (included in total energy above)
 Annihilation of the first spin contaminant:
 S**2 before annihilation     2.0100,   after     2.0001

 **********************************************************************

            Population analysis using the SCF density.

 **********************************************************************

 Orbital symmetries:
 Alpha Orbitals:
       Occupied  (A) (A) (A) (A) (A) (A) (A) (A) (A) (A) (A) (A)
                 (A) (A) (A) (A) (A) (A) (A) (A) (A) (A) (A) (A)
                 (A) (A) (A) (A) (A) (A) (A) (A) (A) (A) (A) (A)
                 (A) (A) (A) (A) (A) (A) (A) (A) (A) (A) (A) (A)
                 (A) (A) (A) (A) (A) (A) (A) (A) (A) (A) (A) (A)
                 (A) (A) (A) (A)
       Virtual   (A) (A) (A) (A) (A) (A) (A) (A) (A) (A) (A) (A)
                 (A) (A) (A) (A) (A) (A) (A) (A) (A) (A) (A) (A)
                 (A) (A) (A) (A) (A) (A) (A) (A) (A) (A) (A) (A)
                 (A) (A) (A) (A) (A) (A) (A) (A) (A) (A) (A) (A)
                 (A) (A) (A) (A) (A) (A) (A) (A) (A) (A) (A) (A)
                 (A) (A) (A) (A) (A) (A) (A) (A) (A) (A) (A) (A)
                 (A) (A) (A) (A) (A) (A) (A) (A) (A) (A) (A) (A)
                 (A) (A) (A) (A) (A) (A) (A) (A) (A) (A) (A) (A)
                 (A) (A) (A) (A) (A) (A) (A) (A) (A) (A) (A) (A)
                 (A) (A) (A) (A) (A) (A) (A) (A) (A) (A) (A) (A)
                 (A) (A) (A) (A) (A) (A) (A) (A) (A) (A) (A) (A)
                 (A) (A) (A) (A) (A) (A) (A) (A) (A) (A) (A) (A)
                 (A) (A) (A) (A) (A) (A) (A) (A) (A) (A) (A) (A)
                 (A) (A) (A) (A) (A) (A) (A) (A) (A) (A) (A) (A)
                 (A) (A) (A) (A) (A) (A) (A) (A) (A) (A) (A) (A)
                 (A) (A) (A) (A) (A) (A) (A) (A) (A) (A) (A) (A)
                 (A) (A) (A) (A) (A) (A) (A) (A) (A) (A) (A) (A)
                 (A) (A) (A) (A) (A) (A) (A) (A) (A) (A) (A) (A)
                 (A) (A) (A) (A) (A) (A) (A) (A) (A) (A) (A) (A)
                 (A) (A) (A) (A) (A) (A) (A) (A) (A) (A) (A) (A)
                 (A) (A) (A) (A) (A) (A) (A) (A) (A) (A) (A) (A)
                 (A) (A) (A) (A) (A) (A) (A) (A) (A) (A) (A) (A)
                 (A) (A) (A) (A) (A) (A) (A) (A) (A) (A) (A) (A)
                 (A) (A) (A) (A) (A) (A) (A) (A) (A) (A) (A) (A)
                 (A) (A) (A) (A) (A) (A) (A) (A) (A) (A) (A) (A)
                 (A) (A) (A) (A) (A) (A) (A) (A) (A) (A) (A) (A)
                 (A) (A) (A) (A) (A) (A) (A) (A) (A) (A) (A) (A)
                 (A) (A) (A) (A) (A) (A) (A) (A) (A) (A) (A) (A)
                 (A) (A) (A) (A) (A) (A) (A) (A) (A) (A) (A) (A)
                 (A) (A) (A) (A) (A) (A) (A) (A) (A) (A) (A) (A)
                 (A) (A) (A) (A) (A) (A) (A) (A) (A) (A) (A) (A)
                 (A) (A) (A) (A) (A) (A) (A) (A) (A) (A) (A) (A)
                 (A) (A) (A) (A) (A) (A) (A) (A) (A) (A) (A) (A)
                 (A) (A) (A) (A) (A) (A) (A) (A) (A) (A) (A) (A)
                 (A) (A) (A) (A) (A) (A) (A) (A) (A) (A) (A) (A)
                 (A) (A) (A) (A) (A) (A) (A) (A) (A) (A) (A) (A)
                 (A) (A) (A) (A) (A) (A) (A) (A) (A) (A) (A) (A)
                 (A) (A) (A) (A) (A) (A) (A) (A) (A) (A) (A) (A)
                 (A) (A) (A) (A) (A) (A) (A) (A) (A) (A) (A) (A)
                 (A) (A) (A) (A) (A) (A) (A) (A) (A) (A) (A) (A)
                 (A) (A) (A) (A) (A) (A) (A) (A) (A) (A) (A) (A)
                 (A) (A) (A) (A) (A) (A) (A) (A) (A) (A) (A) (A)
                 (A) (A) (A) (A) (A) (A) (A) (A) (A) (A) (A) (A)
                 (A) (A) (A) (A) (A) (A) (A) (A) (A) (A) (A) (A)
                 (A) (A) (A) (A) (A) (A) (A) (A) (A) (A) (A) (A)
                 (A) (A) (A) (A) (A) (A) (A) (A) (A) (A) (A) (A)
                 (A) (A) (A) (A) (A) (A) (A) (A) (A) (A) (A) (A)
                 (A) (A) (A) (A) (A) (A) (A) (A) (A) (A) (A) (A)
                 (A) (A) (A) (A) (A) (A) (A) (A) (A) (A) (A) (A)
                 (A) (A) (A) (A) (A) (A) (A) (A) (A) (A) (A) (A)
                 (A) (A) (A) (A) (A) (A) (A) (A) (A) (A) (A) (A)
 Beta  Orbitals:
       Occupied  (A) (A) (A) (A) (A) (A) (A) (A) (A) (A) (A) (A)
                 (A) (A) (A) (A) (A) (A) (A) (A) (A) (A) (A) (A)
                 (A) (A) (A) (A) (A) (A) (A) (A) (A) (A) (A) (A)
                 (A) (A) (A) (A) (A) (A) (A) (A) (A) (A) (A) (A)
                 (A) (A) (A) (A) (A) (A) (A) (A) (A) (A) (A) (A)
                 (A) (A)
       Virtual   (A) (A) (A) (A) (A) (A) (A) (A) (A) (A) (A) (A)
                 (A) (A) (A) (A) (A) (A) (A) (A) (A) (A) (A) (A)
                 (A) (A) (A) (A) (A) (A) (A) (A) (A) (A) (A) (A)
                 (A) (A) (A) (A) (A) (A) (A) (A) (A) (A) (A) (A)
                 (A) (A) (A) (A) (A) (A) (A) (A) (A) (A) (A) (A)
                 (A) (A) (A) (A) (A) (A) (A) (A) (A) (A) (A) (A)
                 (A) (A) (A) (A) (A) (A) (A) (A) (A) (A) (A) (A)
                 (A) (A) (A) (A) (A) (A) (A) (A) (A) (A) (A) (A)
                 (A) (A) (A) (A) (A) (A) (A) (A) (A) (A) (A) (A)
                 (A) (A) (A) (A) (A) (A) (A) (A) (A) (A) (A) (A)
                 (A) (A) (A) (A) (A) (A) (A) (A) (A) (A) (A) (A)
                 (A) (A) (A) (A) (A) (A) (A) (A) (A) (A) (A) (A)
                 (A) (A) (A) (A) (A) (A) (A) (A) (A) (A) (A) (A)
                 (A) (A) (A) (A) (A) (A) (A) (A) (A) (A) (A) (A)
                 (A) (A) (A) (A) (A) (A) (A) (A) (A) (A) (A) (A)
                 (A) (A) (A) (A) (A) (A) (A) (A) (A) (A) (A) (A)
                 (A) (A) (A) (A) (A) (A) (A) (A) (A) (A) (A) (A)
                 (A) (A) (A) (A) (A) (A) (A) (A) (A) (A) (A) (A)
                 (A) (A) (A) (A) (A) (A) (A) (A) (A) (A) (A) (A)
                 (A) (A) (A) (A) (A) (A) (A) (A) (A) (A) (A) (A)
                 (A) (A) (A) (A) (A) (A) (A) (A) (A) (A) (A) (A)
                 (A) (A) (A) (A) (A) (A) (A) (A) (A) (A) (A) (A)
                 (A) (A) (A) (A) (A) (A) (A) (A) (A) (A) (A) (A)
                 (A) (A) (A) (A) (A) (A) (A) (A) (A) (A) (A) (A)
                 (A) (A) (A) (A) (A) (A) (A) (A) (A) (A) (A) (A)
                 (A) (A) (A) (A) (A) (A) (A) (A) (A) (A) (A) (A)
                 (A) (A) (A) (A) (A) (A) (A) (A) (A) (A) (A) (A)
                 (A) (A) (A) (A) (A) (A) (A) (A) (A) (A) (A) (A)
                 (A) (A) (A) (A) (A) (A) (A) (A) (A) (A) (A) (A)
                 (A) (A) (A) (A) (A) (A) (A) (A) (A) (A) (A) (A)
                 (A) (A) (A) (A) (A) (A) (A) (A) (A) (A) (A) (A)
                 (A) (A) (A) (A) (A) (A) (A) (A) (A) (A) (A) (A)
                 (A) (A) (A) (A) (A) (A) (A) (A) (A) (A) (A) (A)
                 (A) (A) (A) (A) (A) (A) (A) (A) (A) (A) (A) (A)
                 (A) (A) (A) (A) (A) (A) (A) (A) (A) (A) (A) (A)
                 (A) (A) (A) (A) (A) (A) (A) (A) (A) (A) (A) (A)
                 (A) (A) (A) (A) (A) (A) (A) (A) (A) (A) (A) (A)
                 (A) (A) (A) (A) (A) (A) (A) (A) (A) (A) (A) (A)
                 (A) (A) (A) (A) (A) (A) (A) (A) (A) (A) (A) (A)
                 (A) (A) (A) (A) (A) (A) (A) (A) (A) (A) (A) (A)
                 (A) (A) (A) (A) (A) (A) (A) (A) (A) (A) (A) (A)
                 (A) (A) (A) (A) (A) (A) (A) (A) (A) (A) (A) (A)
                 (A) (A) (A) (A) (A) (A) (A) (A) (A) (A) (A) (A)
                 (A) (A) (A) (A) (A) (A) (A) (A) (A) (A) (A) (A)
                 (A) (A) (A) (A) (A) (A) (A) (A) (A) (A) (A) (A)
                 (A) (A) (A) (A) (A) (A) (A) (A) (A) (A) (A) (A)
                 (A) (A) (A) (A) (A) (A) (A) (A) (A) (A) (A) (A)
                 (A) (A) (A) (A) (A) (A) (A) (A) (A) (A) (A) (A)
                 (A) (A) (A) (A) (A) (A) (A) (A) (A) (A) (A) (A)
                 (A) (A) (A) (A) (A) (A) (A) (A) (A) (A) (A) (A)
                 (A) (A) (A) (A) (A) (A) (A) (A) (A) (A) (A) (A)
                 (A) (A)
 The electronic state is 3-A.
 Alpha  occ. eigenvalues --  -19.31379 -19.30041 -19.24257 -19.23183 -14.53912
 Alpha  occ. eigenvalues --  -14.48450 -10.45001 -10.43557 -10.34563 -10.34296
 Alpha  occ. eigenvalues --  -10.33587 -10.30406 -10.30306 -10.30129 -10.30088
 Alpha  occ. eigenvalues --  -10.29751 -10.28712  -1.24166  -1.22240  -1.15209
 Alpha  occ. eigenvalues --   -1.12879  -1.12301  -1.03976  -0.94746  -0.86701
 Alpha  occ. eigenvalues --   -0.84150  -0.83629  -0.81584  -0.80034  -0.70951
 Alpha  occ. eigenvalues --   -0.69772  -0.66285  -0.65517  -0.64812  -0.64329
 Alpha  occ. eigenvalues --   -0.64116  -0.60993  -0.60172  -0.57952  -0.57580
 Alpha  occ. eigenvalues --   -0.57336  -0.55867  -0.53241  -0.52664  -0.52109
 Alpha  occ. eigenvalues --   -0.51735  -0.50043  -0.48799  -0.47191  -0.46869
 Alpha  occ. eigenvalues --   -0.46026  -0.45320  -0.45155  -0.43756  -0.43209
 Alpha  occ. eigenvalues --   -0.40609  -0.40081  -0.39533  -0.38667  -0.38049
 Alpha  occ. eigenvalues --   -0.37461  -0.36495  -0.30558  -0.26938
 Alpha virt. eigenvalues --    0.04096   0.05255   0.05491   0.06119   0.06942
 Alpha virt. eigenvalues --    0.07205   0.07674   0.07808   0.08088   0.08942
 Alpha virt. eigenvalues --    0.09145   0.09344   0.09664   0.10130   0.10271
 Alpha virt. eigenvalues --    0.10708   0.10783   0.11407   0.12216   0.12508
 Alpha virt. eigenvalues --    0.13494   0.13606   0.13850   0.14026   0.14689
 Alpha virt. eigenvalues --    0.14853   0.14941   0.15123   0.15952   0.16095
 Alpha virt. eigenvalues --    0.16515   0.17130   0.17352   0.17800   0.17951
 Alpha virt. eigenvalues --    0.18276   0.18691   0.18965   0.19063   0.19341
 Alpha virt. eigenvalues --    0.19679   0.20017   0.20569   0.21003   0.21410
 Alpha virt. eigenvalues --    0.21722   0.22042   0.22676   0.22947   0.23116
 Alpha virt. eigenvalues --    0.23635   0.24051   0.24443   0.24512   0.24763
 Alpha virt. eigenvalues --    0.25099   0.25665   0.25781   0.26704   0.26818
 Alpha virt. eigenvalues --    0.27081   0.27214   0.27848   0.28149   0.28446
 Alpha virt. eigenvalues --    0.28945   0.29196   0.29451   0.30249   0.30523
 Alpha virt. eigenvalues --    0.30670   0.30950   0.31571   0.31958   0.32624
 Alpha virt. eigenvalues --    0.32872   0.33137   0.33378   0.34016   0.34207
 Alpha virt. eigenvalues --    0.34749   0.35113   0.35283   0.35441   0.35988
 Alpha virt. eigenvalues --    0.36543   0.36923   0.37657   0.38000   0.38941
 Alpha virt. eigenvalues --    0.39888   0.40349   0.40806   0.41422   0.42767
 Alpha virt. eigenvalues --    0.43135   0.43793   0.44076   0.44616   0.44987
 Alpha virt. eigenvalues --    0.45574   0.46055   0.46812   0.47290   0.47715
 Alpha virt. eigenvalues --    0.48362   0.48551   0.50245   0.50760   0.50954
 Alpha virt. eigenvalues --    0.51455   0.51922   0.52907   0.53743   0.54181
 Alpha virt. eigenvalues --    0.54704   0.54944   0.55439   0.56011   0.56576
 Alpha virt. eigenvalues --    0.56775   0.57113   0.57786   0.58201   0.58403
 Alpha virt. eigenvalues --    0.58486   0.58992   0.59530   0.60258   0.60521
 Alpha virt. eigenvalues --    0.60725   0.60934   0.61263   0.61924   0.62310
 Alpha virt. eigenvalues --    0.62966   0.63199   0.63547   0.64022   0.64384
 Alpha virt. eigenvalues --    0.64603   0.65887   0.66042   0.66614   0.66751
 Alpha virt. eigenvalues --    0.68287   0.68692   0.69412   0.70174   0.70531
 Alpha virt. eigenvalues --    0.71099   0.72279   0.73443   0.74701   0.74887
 Alpha virt. eigenvalues --    0.75409   0.76890   0.78506   0.79087   0.79649
 Alpha virt. eigenvalues --    0.80547   0.81004   0.81846   0.82101   0.82690
 Alpha virt. eigenvalues --    0.83023   0.84751   0.85647   0.87154   0.87475
 Alpha virt. eigenvalues --    0.88473   0.89233   0.89860   0.91326   0.92384
 Alpha virt. eigenvalues --    0.93101   0.94116   0.96278   0.96537   0.97615
 Alpha virt. eigenvalues --    0.97883   0.99430   0.99865   1.00832   1.02981
 Alpha virt. eigenvalues --    1.03854   1.04360   1.04522   1.06054   1.06875
 Alpha virt. eigenvalues --    1.08425   1.09037   1.10088   1.11622   1.12114
 Alpha virt. eigenvalues --    1.13458   1.14099   1.14785   1.15864   1.16898
 Alpha virt. eigenvalues --    1.17744   1.18269   1.19420   1.20482   1.20679
 Alpha virt. eigenvalues --    1.22083   1.23123   1.23432   1.24776   1.25233
 Alpha virt. eigenvalues --    1.25965   1.27686   1.29037   1.29399   1.30298
 Alpha virt. eigenvalues --    1.31296   1.31391   1.32183   1.33337   1.34506
 Alpha virt. eigenvalues --    1.35710   1.36420   1.38746   1.39151   1.39941
 Alpha virt. eigenvalues --    1.41122   1.41671   1.43475   1.43869   1.44795
 Alpha virt. eigenvalues --    1.47809   1.48306   1.48861   1.49459   1.50747
 Alpha virt. eigenvalues --    1.52302   1.54179   1.55052   1.56581   1.58523
 Alpha virt. eigenvalues --    1.59112   1.60948   1.61986   1.62152   1.62945
 Alpha virt. eigenvalues --    1.64169   1.64291   1.64900   1.65543   1.66086
 Alpha virt. eigenvalues --    1.67569   1.68364   1.69281   1.70178   1.71596
 Alpha virt. eigenvalues --    1.72084   1.72739   1.73589   1.74604   1.75349
 Alpha virt. eigenvalues --    1.76479   1.78756   1.79052   1.81151   1.81423
 Alpha virt. eigenvalues --    1.83111   1.85326   1.85674   1.87192   1.87855
 Alpha virt. eigenvalues --    1.88350   1.89405   1.91308   1.92509   1.93429
 Alpha virt. eigenvalues --    1.94737   1.97585   1.97989   2.00102   2.00478
 Alpha virt. eigenvalues --    2.02766   2.03069   2.05841   2.05937   2.07686
 Alpha virt. eigenvalues --    2.08171   2.08456   2.09505   2.11005   2.11205
 Alpha virt. eigenvalues --    2.13272   2.13722   2.14332   2.14494   2.15970
 Alpha virt. eigenvalues --    2.16522   2.17110   2.18269   2.19998   2.21228
 Alpha virt. eigenvalues --    2.22339   2.24241   2.24886   2.25533   2.26654
 Alpha virt. eigenvalues --    2.27005   2.28342   2.29164   2.31259   2.31389
 Alpha virt. eigenvalues --    2.32503   2.33786   2.35630   2.37268   2.39790
 Alpha virt. eigenvalues --    2.40409   2.41504   2.42124   2.44389   2.44682
 Alpha virt. eigenvalues --    2.45488   2.46113   2.46302   2.48109   2.48834
 Alpha virt. eigenvalues --    2.49644   2.50967   2.51513   2.51987   2.52667
 Alpha virt. eigenvalues --    2.53367   2.54751   2.55681   2.56580   2.56899
 Alpha virt. eigenvalues --    2.59125   2.59571   2.61249   2.62602   2.62828
 Alpha virt. eigenvalues --    2.64131   2.64834   2.65708   2.66341   2.67349
 Alpha virt. eigenvalues --    2.68044   2.68352   2.69146   2.71171   2.71341
 Alpha virt. eigenvalues --    2.72805   2.74474   2.76413   2.77266   2.77475
 Alpha virt. eigenvalues --    2.78413   2.79608   2.81116   2.82766   2.83896
 Alpha virt. eigenvalues --    2.83973   2.85325   2.86946   2.88977   2.89266
 Alpha virt. eigenvalues --    2.90104   2.91187   2.92043   2.92862   2.93977
 Alpha virt. eigenvalues --    2.95255   2.96434   2.97096   2.97467   2.97749
 Alpha virt. eigenvalues --    2.99060   3.01160   3.02001   3.02300   3.02988
 Alpha virt. eigenvalues --    3.04302   3.04952   3.07776   3.08953   3.09973
 Alpha virt. eigenvalues --    3.12289   3.12573   3.13741   3.14887   3.16434
 Alpha virt. eigenvalues --    3.17384   3.18586   3.19334   3.19996   3.20865
 Alpha virt. eigenvalues --    3.22829   3.23447   3.24013   3.24806   3.26411
 Alpha virt. eigenvalues --    3.26821   3.27621   3.28942   3.30123   3.31189
 Alpha virt. eigenvalues --    3.31468   3.32498   3.33105   3.33945   3.34897
 Alpha virt. eigenvalues --    3.35202   3.35751   3.36637   3.38553   3.39468
 Alpha virt. eigenvalues --    3.39649   3.40238   3.40910   3.41358   3.41951
 Alpha virt. eigenvalues --    3.43401   3.44482   3.45420   3.46364   3.47191
 Alpha virt. eigenvalues --    3.47773   3.48473   3.48956   3.49630   3.50542
 Alpha virt. eigenvalues --    3.51998   3.52417   3.54021   3.55465   3.55957
 Alpha virt. eigenvalues --    3.57025   3.57200   3.58151   3.59997   3.61281
 Alpha virt. eigenvalues --    3.63858   3.64576   3.64750   3.65574   3.65876
 Alpha virt. eigenvalues --    3.66623   3.67476   3.67828   3.68876   3.70914
 Alpha virt. eigenvalues --    3.71867   3.73244   3.73528   3.74786   3.77299
 Alpha virt. eigenvalues --    3.78983   3.80654   3.81897   3.83761   3.84093
 Alpha virt. eigenvalues --    3.86226   3.89677   3.90989   3.92166   3.93838
 Alpha virt. eigenvalues --    3.96254   3.98466   4.01690   4.02034   4.05102
 Alpha virt. eigenvalues --    4.06716   4.08830   4.10505   4.11315   4.11396
 Alpha virt. eigenvalues --    4.16574   4.18123   4.19406   4.22403   4.24178
 Alpha virt. eigenvalues --    4.25631   4.26900   4.28385   4.29472   4.30352
 Alpha virt. eigenvalues --    4.31779   4.32223   4.34826   4.35075   4.36255
 Alpha virt. eigenvalues --    4.37594   4.39093   4.39882   4.41832   4.42042
 Alpha virt. eigenvalues --    4.43303   4.45514   4.46735   4.48783   4.49543
 Alpha virt. eigenvalues --    4.50697   4.52819   4.55182   4.57247   4.58383
 Alpha virt. eigenvalues --    4.59554   4.61651   4.62691   4.64756   4.69672
 Alpha virt. eigenvalues --    4.71328   4.75355   4.76505   4.78315   4.79480
 Alpha virt. eigenvalues --    4.84676   4.86666   4.89036   4.90255   4.92544
 Alpha virt. eigenvalues --    4.96161   4.99043   5.00486   5.04473   5.07130
 Alpha virt. eigenvalues --    5.07984   5.09130   5.11381   5.11985   5.13558
 Alpha virt. eigenvalues --    5.14461   5.16306   5.19110   5.20724   5.22391
 Alpha virt. eigenvalues --    5.23937   5.25068   5.27119   5.28940   5.30543
 Alpha virt. eigenvalues --    5.35561   5.38880   5.40742   5.42164   5.44695
 Alpha virt. eigenvalues --    5.46687   5.52482   5.57693   5.60566   5.62234
 Alpha virt. eigenvalues --    5.64088   5.70237   5.77134   5.78543   5.79528
 Alpha virt. eigenvalues --    5.80168   5.80686   5.83528   5.93921   5.99979
 Alpha virt. eigenvalues --    6.08818   6.10748   6.12088   6.16556   6.25300
 Alpha virt. eigenvalues --    6.28621   6.32069   6.33804   6.39345   6.45293
 Alpha virt. eigenvalues --    6.47163   6.48006   6.54698   6.58126   6.62767
 Alpha virt. eigenvalues --    6.63852   6.76080   6.78528   6.86374   6.87910
 Alpha virt. eigenvalues --    6.89384   6.92145   6.99214   7.00370   7.06222
 Alpha virt. eigenvalues --    7.08742   7.14340   7.16455   7.19839   7.31092
 Alpha virt. eigenvalues --    7.31592   7.42377   7.46659   7.54950   7.58160
 Alpha virt. eigenvalues --   22.48942  22.53080  22.54733  22.67715  22.74303
 Alpha virt. eigenvalues --   22.81180  22.84825  22.92664  22.97014  23.58891
 Alpha virt. eigenvalues --   23.69339  32.59608  33.05724  44.16385  44.21244
 Alpha virt. eigenvalues --   44.32582  44.37072
  Beta  occ. eigenvalues --  -19.31335 -19.29969 -19.24151 -19.23084 -14.53404
  Beta  occ. eigenvalues --  -14.47275 -10.45012 -10.43576 -10.34516 -10.34298
  Beta  occ. eigenvalues --  -10.33580 -10.30332 -10.30322 -10.30210 -10.29927
  Beta  occ. eigenvalues --  -10.28639 -10.28629  -1.23839  -1.21924  -1.14433
  Beta  occ. eigenvalues --   -1.12250  -1.11688  -1.03298  -0.92924  -0.86129
  Beta  occ. eigenvalues --   -0.83758  -0.83280  -0.80053  -0.79289  -0.70304
  Beta  occ. eigenvalues --   -0.69114  -0.65837  -0.65114  -0.64404  -0.63991
  Beta  occ. eigenvalues --   -0.63145  -0.60093  -0.59415  -0.57460  -0.57233
  Beta  occ. eigenvalues --   -0.57013  -0.55258  -0.53019  -0.52302  -0.51316
  Beta  occ. eigenvalues --   -0.50956  -0.49207  -0.48092  -0.46686  -0.45887
  Beta  occ. eigenvalues --   -0.45668  -0.45101  -0.43987  -0.43039  -0.41195
  Beta  occ. eigenvalues --   -0.39918  -0.39417  -0.39026  -0.37906  -0.37293
  Beta  occ. eigenvalues --   -0.36755  -0.35115
  Beta virt. eigenvalues --   -0.03838   0.00879   0.04414   0.05341   0.05723
  Beta virt. eigenvalues --    0.06593   0.07039   0.07323   0.07853   0.07943
  Beta virt. eigenvalues --    0.08492   0.09195   0.09424   0.09727   0.09861
  Beta virt. eigenvalues --    0.10397   0.10742   0.11010   0.11749   0.11857
  Beta virt. eigenvalues --    0.12430   0.12633   0.13585   0.13771   0.14053
  Beta virt. eigenvalues --    0.14468   0.14877   0.15074   0.15232   0.15636
  Beta virt. eigenvalues --    0.16174   0.16342   0.16818   0.17264   0.17670
  Beta virt. eigenvalues --    0.18009   0.18208   0.18429   0.18993   0.19123
  Beta virt. eigenvalues --    0.19213   0.19457   0.19956   0.20325   0.20780
  Beta virt. eigenvalues --    0.21367   0.21669   0.22114   0.22242   0.22809
  Beta virt. eigenvalues --    0.23199   0.23301   0.23883   0.24258   0.24689
  Beta virt. eigenvalues --    0.24777   0.24999   0.25424   0.25853   0.25919
  Beta virt. eigenvalues --    0.26837   0.26971   0.27328   0.27506   0.27958
  Beta virt. eigenvalues --    0.28265   0.28710   0.29160   0.29325   0.29855
  Beta virt. eigenvalues --    0.30588   0.30693   0.31036   0.31199   0.31772
  Beta virt. eigenvalues --    0.32268   0.32805   0.33193   0.33302   0.33630
  Beta virt. eigenvalues --    0.34279   0.34306   0.34941   0.35264   0.35556
  Beta virt. eigenvalues --    0.35706   0.36122   0.36871   0.37161   0.37793
  Beta virt. eigenvalues --    0.38238   0.39186   0.40332   0.40497   0.41075
  Beta virt. eigenvalues --    0.41826   0.43196   0.43286   0.43968   0.44250
  Beta virt. eigenvalues --    0.44872   0.45512   0.45664   0.46428   0.47046
  Beta virt. eigenvalues --    0.47452   0.47931   0.48466   0.48709   0.50627
  Beta virt. eigenvalues --    0.50906   0.51149   0.51780   0.52434   0.53195
  Beta virt. eigenvalues --    0.53826   0.54340   0.54834   0.55173   0.55657
  Beta virt. eigenvalues --    0.56172   0.56837   0.56873   0.57483   0.57957
  Beta virt. eigenvalues --    0.58295   0.58500   0.58659   0.59150   0.59714
  Beta virt. eigenvalues --    0.60398   0.60686   0.60890   0.61226   0.61446
  Beta virt. eigenvalues --    0.62053   0.62424   0.63154   0.63314   0.63722
  Beta virt. eigenvalues --    0.64201   0.64649   0.64765   0.66021   0.66278
  Beta virt. eigenvalues --    0.66725   0.67107   0.68748   0.68948   0.69624
  Beta virt. eigenvalues --    0.70406   0.70827   0.71531   0.72438   0.73586
  Beta virt. eigenvalues --    0.74928   0.74989   0.75711   0.77091   0.78609
  Beta virt. eigenvalues --    0.79140   0.79759   0.80694   0.81087   0.82001
  Beta virt. eigenvalues --    0.82204   0.82953   0.83276   0.84969   0.85755
  Beta virt. eigenvalues --    0.87288   0.87595   0.88612   0.89409   0.90374
  Beta virt. eigenvalues --    0.91540   0.92764   0.93558   0.94359   0.96494
  Beta virt. eigenvalues --    0.96849   0.97820   0.98374   0.99806   0.99993
  Beta virt. eigenvalues --    1.01134   1.03144   1.04007   1.04602   1.04760
  Beta virt. eigenvalues --    1.06229   1.07051   1.08627   1.09295   1.10316
  Beta virt. eigenvalues --    1.11782   1.12458   1.13777   1.14353   1.15248
  Beta virt. eigenvalues --    1.16179   1.17212   1.17944   1.18464   1.19865
  Beta virt. eigenvalues --    1.20578   1.21386   1.22205   1.23449   1.23875
  Beta virt. eigenvalues --    1.25032   1.25582   1.26384   1.27928   1.29139
  Beta virt. eigenvalues --    1.29701   1.30543   1.31547   1.31821   1.32486
  Beta virt. eigenvalues --    1.33726   1.34820   1.36014   1.36732   1.39039
  Beta virt. eigenvalues --    1.39505   1.40216   1.41528   1.41845   1.43735
  Beta virt. eigenvalues --    1.44176   1.45046   1.48117   1.48690   1.49470
  Beta virt. eigenvalues --    1.49774   1.51364   1.52730   1.54621   1.55533
  Beta virt. eigenvalues --    1.56811   1.58707   1.59190   1.61171   1.62269
  Beta virt. eigenvalues --    1.62350   1.63191   1.64361   1.64406   1.65397
  Beta virt. eigenvalues --    1.65820   1.66741   1.67680   1.68449   1.69621
  Beta virt. eigenvalues --    1.70458   1.72004   1.72744   1.73077   1.74047
  Beta virt. eigenvalues --    1.74729   1.75573   1.76922   1.79188   1.79418
  Beta virt. eigenvalues --    1.81422   1.82110   1.83775   1.85701   1.86073
  Beta virt. eigenvalues --    1.87756   1.88223   1.88680   1.89817   1.91797
  Beta virt. eigenvalues --    1.92814   1.93893   1.95587   1.97965   1.98536
  Beta virt. eigenvalues --    2.00637   2.01012   2.03126   2.03293   2.06129
  Beta virt. eigenvalues --    2.06433   2.07890   2.08387   2.08740   2.09920
  Beta virt. eigenvalues --    2.11366   2.11444   2.13471   2.13896   2.14576
  Beta virt. eigenvalues --    2.14758   2.16256   2.16865   2.17460   2.18563
  Beta virt. eigenvalues --    2.20252   2.21551   2.22653   2.24488   2.25139
  Beta virt. eigenvalues --    2.25868   2.27098   2.27553   2.28828   2.29901
  Beta virt. eigenvalues --    2.31463   2.32238   2.33071   2.34272   2.36517
  Beta virt. eigenvalues --    2.37610   2.40335   2.40992   2.41878   2.42241
  Beta virt. eigenvalues --    2.44638   2.44900   2.45714   2.46336   2.46518
  Beta virt. eigenvalues --    2.48547   2.48997   2.50009   2.51221   2.51993
  Beta virt. eigenvalues --    2.52392   2.52973   2.53890   2.55081   2.55904
  Beta virt. eigenvalues --    2.56906   2.57395   2.59407   2.59998   2.61637
  Beta virt. eigenvalues --    2.62874   2.63424   2.64535   2.64951   2.65968
  Beta virt. eigenvalues --    2.66564   2.67694   2.68427   2.68632   2.69656
  Beta virt. eigenvalues --    2.71416   2.71791   2.73095   2.74845   2.76804
  Beta virt. eigenvalues --    2.77633   2.77848   2.78962   2.80286   2.81617
  Beta virt. eigenvalues --    2.83217   2.84232   2.84453   2.85689   2.87132
  Beta virt. eigenvalues --    2.89285   2.89512   2.90594   2.91526   2.92305
  Beta virt. eigenvalues --    2.93346   2.94568   2.95784   2.97226   2.97437
  Beta virt. eigenvalues --    2.98038   2.98630   3.00230   3.01592   3.02310
  Beta virt. eigenvalues --    3.02835   3.03470   3.04807   3.05496   3.08299
  Beta virt. eigenvalues --    3.09542   3.10414   3.12719   3.12848   3.14145
  Beta virt. eigenvalues --    3.15318   3.16867   3.17624   3.18970   3.19592
  Beta virt. eigenvalues --    3.20344   3.21218   3.23129   3.24199   3.24562
  Beta virt. eigenvalues --    3.25066   3.26662   3.27045   3.27998   3.29292
  Beta virt. eigenvalues --    3.30689   3.31664   3.32045   3.32713   3.33411
  Beta virt. eigenvalues --    3.34384   3.35354   3.35859   3.35977   3.37000
  Beta virt. eigenvalues --    3.39020   3.39835   3.40104   3.40826   3.41321
  Beta virt. eigenvalues --    3.41678   3.42295   3.44009   3.44989   3.45728
  Beta virt. eigenvalues --    3.46727   3.47582   3.48249   3.48818   3.49822
  Beta virt. eigenvalues --    3.50251   3.51136   3.52190   3.52639   3.54463
  Beta virt. eigenvalues --    3.56016   3.56179   3.57455   3.57866   3.58521
  Beta virt. eigenvalues --    3.60429   3.61719   3.64355   3.64835   3.65215
  Beta virt. eigenvalues --    3.65874   3.66190   3.67044   3.67782   3.68563
  Beta virt. eigenvalues --    3.69417   3.71317   3.72293   3.73574   3.74265
  Beta virt. eigenvalues --    3.75207   3.78119   3.79472   3.81508   3.82580
  Beta virt. eigenvalues --    3.84271   3.84992   3.86940   3.90122   3.91686
  Beta virt. eigenvalues --    3.92672   3.94590   3.97160   3.98991   4.02534
  Beta virt. eigenvalues --    4.02699   4.05841   4.07826   4.09384   4.11219
  Beta virt. eigenvalues --    4.11794   4.12358   4.17352   4.19031   4.20195
  Beta virt. eigenvalues --    4.22799   4.25046   4.26143   4.27296   4.28725
  Beta virt. eigenvalues --    4.29677   4.30955   4.32143   4.32626   4.35302
  Beta virt. eigenvalues --    4.35366   4.36863   4.38108   4.39597   4.40182
  Beta virt. eigenvalues --    4.42147   4.42780   4.43794   4.46165   4.47304
  Beta virt. eigenvalues --    4.49291   4.50180   4.51041   4.53234   4.55653
  Beta virt. eigenvalues --    4.57659   4.58649   4.59920   4.62147   4.63107
  Beta virt. eigenvalues --    4.65181   4.70385   4.71813   4.75800   4.77468
  Beta virt. eigenvalues --    4.79165   4.79946   4.85078   4.87179   4.89753
  Beta virt. eigenvalues --    4.92816   4.93348   4.97432   5.00180   5.02313
  Beta virt. eigenvalues --    5.05582   5.08057   5.08692   5.10689   5.12672
  Beta virt. eigenvalues --    5.13293   5.14662   5.15324   5.17054   5.19921
  Beta virt. eigenvalues --    5.22278   5.23443   5.24432   5.25937   5.27883
  Beta virt. eigenvalues --    5.29675   5.31454   5.36180   5.39454   5.41027
  Beta virt. eigenvalues --    5.42987   5.45584   5.47472   5.52893   5.58158
  Beta virt. eigenvalues --    5.60797   5.62570   5.64878   5.70801   5.78401
  Beta virt. eigenvalues --    5.78789   5.80251   5.80835   5.81047   5.83846
  Beta virt. eigenvalues --    5.94307   6.00273   6.09120   6.11032   6.12489
  Beta virt. eigenvalues --    6.16877   6.25547   6.28959   6.32443   6.34324
  Beta virt. eigenvalues --    6.39654   6.45655   6.47458   6.48360   6.54865
  Beta virt. eigenvalues --    6.58299   6.63082   6.64202   6.76251   6.78722
  Beta virt. eigenvalues --    6.86558   6.88133   6.89549   6.92383   6.99477
  Beta virt. eigenvalues --    7.00813   7.06455   7.08996   7.14797   7.16712
  Beta virt. eigenvalues --    7.20331   7.31255   7.31751   7.42564   7.46741
  Beta virt. eigenvalues --    7.55149   7.58248  22.50120  22.53163  22.54745
  Beta virt. eigenvalues --   22.67732  22.74421  22.81367  22.85234  22.92784
  Beta virt. eigenvalues --   22.97173  23.58885  23.69342  32.61087  33.06299
  Beta virt. eigenvalues --   44.16483  44.21335  44.32637  44.37125
          Condensed to atoms (all electrons):
               1          2          3          4          5          6
     1  C    5.923591   0.356914  -0.621086   0.296645   0.372943  -0.007780
     2  C    0.356914   5.759843  -0.220014  -0.192972  -0.016419   0.013749
     3  C   -0.621086  -0.220014   6.009604   0.120165   0.037394  -0.074954
     4  C    0.296645  -0.192972   0.120165   6.056144  -0.015790   0.457773
     5  H    0.372943  -0.016419   0.037394  -0.015790   0.520032  -0.003698
     6  H   -0.007780   0.013749  -0.074954   0.457773  -0.003698   0.501474
     7  C   -0.362307   0.245351   0.506535  -0.502166   0.015966  -0.010420
     8  H    0.016537  -0.025843  -0.032125   0.023419  -0.000047   0.000034
     9  H    0.002681  -0.058356  -0.038789  -0.015050  -0.000403  -0.000093
    10  C    0.178667   0.163234  -0.364613   0.028264  -0.028777   0.016057
    11  H    0.015071  -0.046710   0.005810   0.028608  -0.000072  -0.000007
    12  C   -0.164940  -0.262730   0.322204   0.332638  -0.008802  -0.027037
    13  H    0.019714   0.023113  -0.042465  -0.043167   0.000115  -0.004088
    14  H   -0.007583   0.416785   0.013323   0.019568   0.000345  -0.000016
    15  H   -0.013931  -0.013087   0.469718  -0.028180  -0.000049  -0.004116
    16  N    0.672623  -0.338110  -0.470783   0.282646  -0.050346   0.018338
    17  N   -0.650023   0.181102   0.522464  -0.464495   0.012372  -0.012009
    18  C    0.025336   0.047394   0.015594  -0.114476   0.006113  -0.013730
    19  C   -0.189232  -0.028110   0.032078   0.018559   0.001288   0.000056
    20  O    0.029022   0.009093   0.000665   0.006423  -0.003572   0.000299
    21  O    0.005357   0.000846  -0.023175   0.015561   0.000031  -0.001492
    22  O   -0.006591  -0.000441   0.014558  -0.004336   0.001806  -0.000712
    23  O    0.009323  -0.034588   0.016203   0.045172  -0.002703  -0.007469
    24  C    0.006321  -0.004519   0.001066   0.011422  -0.000380   0.000695
    25  H    0.006973   0.000997  -0.004201  -0.004938  -0.000003  -0.000592
    26  H   -0.003472  -0.001715   0.001888   0.004736   0.000007   0.000209
    27  H    0.001647   0.002311  -0.000479   0.005584  -0.000061   0.000082
    28  C    0.015461   0.007655  -0.010087  -0.001842  -0.002772   0.000236
    29  H    0.013183  -0.005562   0.000357   0.002833   0.000046   0.000000
    30  H   -0.003626   0.012695  -0.001146  -0.001874  -0.000023   0.000000
    31  H   -0.007326  -0.005810   0.000040  -0.000703  -0.000011   0.000000
               7          8          9         10         11         12
     1  C   -0.362307   0.016537   0.002681   0.178667   0.015071  -0.164940
     2  C    0.245351  -0.025843  -0.058356   0.163234  -0.046710  -0.262730
     3  C    0.506535  -0.032125  -0.038789  -0.364613   0.005810   0.322204
     4  C   -0.502166   0.023419  -0.015050   0.028264   0.028608   0.332638
     5  H    0.015966  -0.000047  -0.000403  -0.028777  -0.000072  -0.008802
     6  H   -0.010420   0.000034  -0.000093   0.016057  -0.000007  -0.027037
     7  C    6.098438   0.416123   0.425565  -0.497574  -0.019930  -0.338601
     8  H    0.416123   0.507751  -0.015919  -0.021723  -0.000069  -0.012506
     9  H    0.425565  -0.015919   0.486443   0.026607  -0.000055   0.015999
    10  C   -0.497574  -0.021723   0.026607   6.029110   0.428015   0.422035
    11  H   -0.019930  -0.000069  -0.000055   0.428015   0.466054  -0.037708
    12  C   -0.338601  -0.012506   0.015999   0.422035  -0.037708   5.555967
    13  H    0.015494  -0.000006   0.000081  -0.031316  -0.002912   0.427042
    14  H   -0.056262  -0.001425   0.000218  -0.015535  -0.001787   0.022587
    15  H   -0.012213  -0.001522  -0.002441   0.003071   0.000107  -0.032198
    16  N   -0.085545   0.006505   0.027170   0.146386   0.001088   0.005295
    17  N    0.427028  -0.006014  -0.026749  -0.236819  -0.002034  -0.087866
    18  C    0.020472   0.001271  -0.002969  -0.007949   0.000479  -0.062235
    19  C    0.079919   0.002236   0.001459  -0.058454  -0.000617  -0.008910
    20  O   -0.013851   0.000098  -0.000833   0.001841   0.000027   0.003357
    21  O   -0.023576   0.000012   0.000305   0.005604   0.000004   0.009954
    22  O   -0.001200  -0.000453  -0.000879   0.000653  -0.000202   0.000959
    23  O   -0.008677  -0.000018   0.000823   0.006784   0.000005   0.029459
    24  C   -0.004969   0.000060   0.000554   0.001459  -0.000002   0.006185
    25  H   -0.000469   0.000000  -0.000001   0.000669   0.000000  -0.000192
    26  H    0.000333   0.000000   0.000001  -0.000090   0.000000   0.000682
    27  H   -0.001286   0.000001   0.000000  -0.000140   0.000000  -0.002167
    28  C   -0.022549  -0.000002   0.000335   0.017864  -0.000223   0.003245
    29  H   -0.000599   0.000000   0.000001   0.000163   0.000000   0.000891
    30  H   -0.002900  -0.000001  -0.000014   0.001384   0.000000  -0.000753
    31  H    0.001929   0.000000   0.000002  -0.000420   0.000000  -0.000090
              13         14         15         16         17         18
     1  C    0.019714  -0.007583  -0.013931   0.672623  -0.650023   0.025336
     2  C    0.023113   0.416785  -0.013087  -0.338110   0.181102   0.047394
     3  C   -0.042465   0.013323   0.469718  -0.470783   0.522464   0.015594
     4  C   -0.043167   0.019568  -0.028180   0.282646  -0.464495  -0.114476
     5  H    0.000115   0.000345  -0.000049  -0.050346   0.012372   0.006113
     6  H   -0.004088  -0.000016  -0.004116   0.018338  -0.012009  -0.013730
     7  C    0.015494  -0.056262  -0.012213  -0.085545   0.427028   0.020472
     8  H   -0.000006  -0.001425  -0.001522   0.006505  -0.006014   0.001271
     9  H    0.000081   0.000218  -0.002441   0.027170  -0.026749  -0.002969
    10  C   -0.031316  -0.015535   0.003071   0.146386  -0.236819  -0.007949
    11  H   -0.002912  -0.001787   0.000107   0.001088  -0.002034   0.000479
    12  C    0.427042   0.022587  -0.032198   0.005295  -0.087866  -0.062235
    13  H    0.483012   0.000029  -0.002998  -0.001058  -0.000121   0.001795
    14  H    0.000029   0.471734   0.000022   0.002155  -0.021830   0.000616
    15  H   -0.002998   0.000022   0.476222   0.004501  -0.000036  -0.004506
    16  N   -0.001058   0.002155   0.004501   9.589820  -2.396711  -0.101976
    17  N   -0.000121  -0.021830  -0.000036  -2.396711   9.543798   0.246047
    18  C    0.001795   0.000616  -0.004506  -0.101976   0.246047   5.113411
    19  C   -0.000155  -0.008613   0.000177  -0.194587   0.497842  -0.115902
    20  O   -0.000010   0.000321   0.000033  -0.010556  -0.105208  -0.020758
    21  O    0.000074  -0.000037  -0.002454  -0.038784  -0.001481   0.460519
    22  O    0.000010  -0.002418   0.000079  -0.098933  -0.056193  -0.008617
    23  O    0.000241   0.000176  -0.000281   0.118968  -0.220510   0.152730
    24  C   -0.000316   0.000013   0.000539   0.040670  -0.017588  -0.099175
    25  H   -0.000001   0.000000   0.000003   0.004672  -0.008025   0.022435
    26  H    0.000000   0.000000  -0.000011   0.009372  -0.010498  -0.029569
    27  H    0.000012   0.000000   0.000028  -0.008285   0.016081  -0.014323
    28  C    0.000053  -0.000777  -0.000075   0.014495  -0.021471  -0.014430
    29  H    0.000000   0.000078   0.000000   0.003450  -0.002434   0.000063
    30  H    0.000000   0.000242   0.000000  -0.007860   0.001518   0.000808
    31  H    0.000000  -0.000073   0.000000   0.006378   0.005397  -0.000933
              19         20         21         22         23         24
     1  C   -0.189232   0.029022   0.005357  -0.006591   0.009323   0.006321
     2  C   -0.028110   0.009093   0.000846  -0.000441  -0.034588  -0.004519
     3  C    0.032078   0.000665  -0.023175   0.014558   0.016203   0.001066
     4  C    0.018559   0.006423   0.015561  -0.004336   0.045172   0.011422
     5  H    0.001288  -0.003572   0.000031   0.001806  -0.002703  -0.000380
     6  H    0.000056   0.000299  -0.001492  -0.000712  -0.007469   0.000695
     7  C    0.079919  -0.013851  -0.023576  -0.001200  -0.008677  -0.004969
     8  H    0.002236   0.000098   0.000012  -0.000453  -0.000018   0.000060
     9  H    0.001459  -0.000833   0.000305  -0.000879   0.000823   0.000554
    10  C   -0.058454   0.001841   0.005604   0.000653   0.006784   0.001459
    11  H   -0.000617   0.000027   0.000004  -0.000202   0.000005  -0.000002
    12  C   -0.008910   0.003357   0.009954   0.000959   0.029459   0.006185
    13  H   -0.000155  -0.000010   0.000074   0.000010   0.000241  -0.000316
    14  H   -0.008613   0.000321  -0.000037  -0.002418   0.000176   0.000013
    15  H    0.000177   0.000033  -0.002454   0.000079  -0.000281   0.000539
    16  N   -0.194587  -0.010556  -0.038784  -0.098933   0.118968   0.040670
    17  N    0.497842  -0.105208  -0.001481  -0.056193  -0.220510  -0.017588
    18  C   -0.115902  -0.020758   0.460519  -0.008617   0.152730  -0.099175
    19  C    4.938878   0.515437   0.008207   0.272652  -0.016988   0.002719
    20  O    0.515437   8.160689   0.001574  -0.137667  -0.000424   0.001073
    21  O    0.008207   0.001574   8.182824  -0.000373  -0.157293  -0.007132
    22  O    0.272652  -0.137667  -0.000373   8.180758  -0.003697  -0.001636
    23  O   -0.016988  -0.000424  -0.157293  -0.003697   8.256642   0.148602
    24  C    0.002719   0.001073  -0.007132  -0.001636   0.148602   4.910544
    25  H   -0.001742  -0.000003   0.005263   0.000002  -0.066950   0.418365
    26  H    0.000346  -0.000068  -0.002963  -0.000014  -0.022217   0.430855
    27  H    0.001350   0.000064  -0.008700  -0.000014  -0.022866   0.407441
    28  C   -0.055960  -0.013105   0.000426   0.172748  -0.000095   0.000558
    29  H    0.003068   0.005749   0.000003  -0.068577  -0.000010   0.000011
    30  H   -0.007577  -0.007137  -0.000011  -0.017454  -0.000021   0.000005
    31  H   -0.004336  -0.006115   0.000000  -0.031543   0.000135  -0.000026
              25         26         27         28         29         30
     1  C    0.006973  -0.003472   0.001647   0.015461   0.013183  -0.003626
     2  C    0.000997  -0.001715   0.002311   0.007655  -0.005562   0.012695
     3  C   -0.004201   0.001888  -0.000479  -0.010087   0.000357  -0.001146
     4  C   -0.004938   0.004736   0.005584  -0.001842   0.002833  -0.001874
     5  H   -0.000003   0.000007  -0.000061  -0.002772   0.000046  -0.000023
     6  H   -0.000592   0.000209   0.000082   0.000236   0.000000   0.000000
     7  C   -0.000469   0.000333  -0.001286  -0.022549  -0.000599  -0.002900
     8  H    0.000000   0.000000   0.000001  -0.000002   0.000000  -0.000001
     9  H   -0.000001   0.000001   0.000000   0.000335   0.000001  -0.000014
    10  C    0.000669  -0.000090  -0.000140   0.017864   0.000163   0.001384
    11  H    0.000000   0.000000   0.000000  -0.000223   0.000000   0.000000
    12  C   -0.000192   0.000682  -0.002167   0.003245   0.000891  -0.000753
    13  H   -0.000001   0.000000   0.000012   0.000053   0.000000   0.000000
    14  H    0.000000   0.000000   0.000000  -0.000777   0.000078   0.000242
    15  H    0.000003  -0.000011   0.000028  -0.000075   0.000000   0.000000
    16  N    0.004672   0.009372  -0.008285   0.014495   0.003450  -0.007860
    17  N   -0.008025  -0.010498   0.016081  -0.021471  -0.002434   0.001518
    18  C    0.022435  -0.029569  -0.014323  -0.014430   0.000063   0.000808
    19  C   -0.001742   0.000346   0.001350  -0.055960   0.003068  -0.007577
    20  O   -0.000003  -0.000068   0.000064  -0.013105   0.005749  -0.007137
    21  O    0.005263  -0.002963  -0.008700   0.000426   0.000003  -0.000011
    22  O    0.000002  -0.000014  -0.000014   0.172748  -0.068577  -0.017454
    23  O   -0.066950  -0.022217  -0.022866  -0.000095  -0.000010  -0.000021
    24  C    0.418365   0.430855   0.407441   0.000558   0.000011   0.000005
    25  H    0.510017  -0.018188  -0.025034   0.000033   0.000000   0.000000
    26  H   -0.018188   0.496495  -0.026862  -0.000012   0.000000   0.000000
    27  H   -0.025034  -0.026862   0.513684   0.000019   0.000000   0.000000
    28  C    0.000033  -0.000012   0.000019   4.905716   0.418102   0.413054
    29  H    0.000000   0.000000   0.000000   0.418102   0.505993  -0.020528
    30  H    0.000000   0.000000   0.000000   0.413054  -0.020528   0.497210
    31  H    0.000000   0.000000   0.000000   0.424083  -0.020021  -0.026967
              31
     1  C   -0.007326
[...]
     6  H    0.160305  -0.000838
     7  C   -0.278801   0.004122
     8  H    0.143129   0.002241
     9  H    0.172500   0.001194
    10  C   -0.214330   0.972090
    11  H    0.166415  -0.025948
    12  C   -0.110904  -0.055680
    13  H    0.157262  -0.000024
    14  H    0.167203  -0.000361
    15  H    0.162350   0.000659
    16  N   -0.158076   0.594004
    17  N   -0.095441   0.226485
    18  C    0.494809   0.004381
    19  C    0.322292   0.021097
    20  O   -0.415298   0.048391
    21  O   -0.430384   0.040699
    22  O   -0.198559   0.018254
    23  O   -0.219802   0.014744
    24  C   -0.254053   0.004239
    25  H    0.159937   0.001413
    26  H    0.169639   0.000494
    27  H    0.161361   0.000330
    28  C   -0.253266  -0.000307
    29  H    0.162972  -0.000033
    30  H    0.170637   0.000784
    31  H    0.171702   0.000889
 Sum of Mulliken charges =   0.00000   2.00000
 Mulliken charges and spin densities with hydrogens summed into heavy atoms:
               1          2
     1  C    0.230818   0.038042
     2  C    0.176557  -0.031347
     3  C   -0.015429   0.077712
     4  C   -0.215688   0.041737
     7  C    0.036828   0.007557
    10  C   -0.047914   0.946142
    12  C    0.046358  -0.055704
    16  N   -0.158076   0.594004
    17  N   -0.095441   0.226485
    18  C    0.494809   0.004381
    19  C    0.322292   0.021097
    20  O   -0.415298   0.048391
    21  O   -0.430384   0.040699
    22  O   -0.198559   0.018254
    23  O   -0.219802   0.014744
    24  C    0.236884   0.006475
    28  C    0.252045   0.001333
 Electronic spatial extent (au):  <R**2>=           3693.7933
 Charge=              0.0000 electrons
 Dipole moment (field-independent basis, Debye):
    X=              1.6650    Y=              3.8795    Z=             -4.6091  Tot=              6.2503
 Quadrupole moment (field-independent basis, Debye-Ang):
   XX=            -83.2994   YY=           -100.4496   ZZ=           -102.0902
   XY=              1.8106   XZ=              5.8638   YZ=             10.1605
 Traceless Quadrupole moment (field-independent basis, Debye-Ang):
   XX=             11.9803   YY=             -5.1698   ZZ=             -6.8105
   XY=              1.8106   XZ=              5.8638   YZ=             10.1605
 Octapole moment (field-independent basis, Debye-Ang**2):
  XXX=             56.7987  YYY=              1.2663  ZZZ=            -10.1770  XYY=            -18.3236
  XXY=            -12.7589  XXZ=            -44.2488  XZZ=              3.8762  YZZ=             -1.6774
  YYZ=            -16.5656  XYZ=             -0.4223
 Hexadecapole moment (field-independent basis, Debye-Ang**3):
 XXXX=          -2063.6507 YYYY=          -1817.7713 ZZZZ=           -535.6743 XXXY=            -17.3007
 XXXZ=             35.7573 YYYX=             63.1381 YYYZ=             26.9106 ZZZX=             21.2767
 ZZZY=             33.9950 XXYY=           -673.3324 XXZZ=           -485.7790 YYZZ=           -405.6819
 XXYZ=             67.4775 YYXZ=              3.0994 ZZXY=             -0.4514
 N-N= 1.318042586831D+03 E-N=-4.594290450599D+03  KE= 8.341318142198D+02
                          Isotropic Fermi Contact Couplings
        Atom                 a.u.       MegaHertz       Gauss      10(-4) cm-1
     1  C(13)              0.02018      11.34248       4.04728       3.78345
     2  C(13)             -0.00664      -3.73090      -1.33128      -1.24449
     3  C(13)              0.04287      24.09535       8.59782       8.03734
     4  C(13)              0.02119      11.91067       4.25002       3.97297
     5  H(1)               0.00196       4.37876       1.56245       1.46060
     6  H(1)              -0.00015      -0.32444      -0.11577      -0.10822
     7  C(13)              0.03584      20.14807       7.18933       6.72067
     8  H(1)               0.00002       0.04211       0.01503       0.01405
     9  H(1)               0.00067       1.49537       0.53358       0.49880
    10  C(13)              0.10562      59.37002      21.18470      19.80371
    11  H(1)              -0.00965     -21.56526      -7.69502      -7.19340
    12  C(13)             -0.02758     -15.50062      -5.53101      -5.17045
    13  H(1)               0.00057       1.27958       0.45659       0.42682
    14  H(1)               0.00036       0.80404       0.28690       0.26820
    15  H(1)               0.00002       0.04574       0.01632       0.01526
    16  N(14)              0.13526      21.85191       7.79730       7.28901
    17  N(14)              0.02112       3.41180       1.21742       1.13805
    18  C(13)              0.00168       0.94516       0.33726       0.31527
    19  C(13)             -0.01011      -5.68423      -2.02827      -1.89605
    20  O(17)              0.00473      -1.43236      -0.51110      -0.47778
    21  O(17)              0.00742      -2.24886      -0.80245      -0.75014
    22  O(17)              0.00086      -0.26174      -0.09340      -0.08731
    23  O(17)              0.02748      -8.32866      -2.97187      -2.77814
    24  C(13)              0.00275       1.54591       0.55162       0.51566
    25  H(1)               0.00056       1.25655       0.44837       0.41914
    26  H(1)               0.00051       1.14209       0.40753       0.38096
    27  H(1)               0.00014       0.31423       0.11212       0.10481
    28  C(13)             -0.00063      -0.35182      -0.12554      -0.11736
    29  H(1)               0.00000       0.00687       0.00245       0.00229
    30  H(1)               0.00052       1.17020       0.41756       0.39034
    31  H(1)               0.00058       1.29690       0.46277       0.43260
 --------------------------------------------------------
       Center         ----  Spin Dipole Couplings  ----
                      3XX-RR        3YY-RR        3ZZ-RR
 --------------------------------------------------------
     1   Atom       -0.006852      0.034905     -0.028053
     2   Atom       -0.019067      0.029194     -0.010127
     3   Atom       -0.052833      0.075656     -0.022822
     4   Atom       -0.032454      0.061600     -0.029146
     5   Atom       -0.014552      0.012282      0.002270
     6   Atom        0.002093      0.001203     -0.003296
     7   Atom        0.011056     -0.016129      0.005073
     8   Atom       -0.009829     -0.001347      0.011176
     9   Atom       -0.010127      0.009433      0.000693
    10   Atom       -0.386500     -0.333298      0.719798
    11   Atom       -0.035920      0.048457     -0.012537
    12   Atom        0.026903     -0.008080     -0.018823
    13   Atom        0.010379     -0.004670     -0.005709
    14   Atom        0.002001      0.001944     -0.003945
    15   Atom        0.009625     -0.002483     -0.007142
    16   Atom       -0.754628      0.336020      0.418608
    17   Atom       -0.355941     -0.094108      0.450049
    18   Atom        0.055325     -0.039392     -0.015933
    19   Atom        0.015761     -0.012254     -0.003507
    20   Atom       -0.091110      0.004430      0.086680
    21   Atom       -0.050286      0.146900     -0.096614
    22   Atom       -0.019356      0.006139      0.013217
    23   Atom       -0.032148     -0.008315      0.040463
    24   Atom        0.006212     -0.005341     -0.000872
    25   Atom        0.000565     -0.001395      0.000830
    26   Atom        0.002615     -0.000578     -0.002037
    27   Atom        0.003242     -0.001758     -0.001484
    28   Atom        0.003910     -0.001464     -0.002446
    29   Atom        0.003068     -0.001268     -0.001800
    30   Atom        0.003744     -0.001499     -0.002245
    31   Atom        0.002488     -0.000670     -0.001818
 --------------------------------------------------------
                        XY            XZ            YZ
 --------------------------------------------------------
     1   Atom        0.025857      0.007958     -0.000223
     2   Atom        0.007478      0.007874      0.003957
     3   Atom        0.033350     -0.025045     -0.087035
     4   Atom        0.023694     -0.003471     -0.044933
     5   Atom       -0.000122     -0.004862     -0.002477
     6   Atom        0.003880      0.008245     -0.001563
     7   Atom        0.009359     -0.040117     -0.013031
     8   Atom        0.000638     -0.002719      0.003800
     9   Atom        0.001317     -0.000802      0.001143
    10   Atom       -0.170248     -0.420293      0.481279
    11   Atom        0.048572     -0.025769      0.006966
    12   Atom       -0.001001     -0.000390     -0.008330
    13   Atom       -0.003624      0.004410     -0.002276
    14   Atom       -0.004355      0.008922     -0.005742
    15   Atom       -0.002976     -0.008631     -0.003621
    16   Atom       -0.126618     -0.111320      1.144276
    17   Atom        0.064416      0.103523      0.465744
    18   Atom       -0.026930      0.015474     -0.002968
    19   Atom        0.000159      0.015370      0.003398
    20   Atom        0.017879      0.032566      0.137282
    21   Atom        0.108484     -0.014556     -0.007264
    22   Atom        0.024675      0.027525      0.053552
    23   Atom       -0.027204      0.049772     -0.071351
    24   Atom        0.001548      0.008999      0.000316
    25   Atom        0.001431      0.002607      0.001549
    26   Atom        0.003617      0.001551      0.000897
    27   Atom        0.000559      0.002763      0.000329
    28   Atom       -0.000892     -0.000582      0.000085
    29   Atom       -0.000834     -0.001540     -0.000089
    30   Atom       -0.000904      0.000385     -0.000504
    31   Atom       -0.002188     -0.001761      0.000374
 --------------------------------------------------------


 ---------------------------------------------------------------------------------
              Anisotropic Spin Dipole Couplings in Principal Axis System
 ---------------------------------------------------------------------------------

       Atom             a.u.   MegaHertz   Gauss  10(-4) cm-1        Axes

              Baa    -0.0322    -4.327    -1.544    -1.443 -0.4547  0.1780  0.8727
     1 C(13)  Bbb    -0.0152    -2.034    -0.726    -0.678  0.7772 -0.3993  0.4864
              Bcc     0.0474     6.361     2.270     2.122  0.4350  0.8994  0.0432
 
              Baa    -0.0240    -3.227    -1.151    -1.076  0.8775 -0.0882 -0.4713
     2 C(13)  Bbb    -0.0069    -0.929    -0.332    -0.310  0.4498 -0.1888  0.8729
              Bcc     0.0310     4.156     1.483     1.386  0.1660  0.9781  0.1260
 
              Baa    -0.0753   -10.099    -3.604    -3.369  0.3273  0.4167  0.8480
     3 C(13)  Bbb    -0.0603    -8.088    -2.886    -2.698  0.9201 -0.3447 -0.1858
              Bcc     0.1355    18.187     6.490     6.067  0.2149  0.8411 -0.4963
 
              Baa    -0.0501    -6.726    -2.400    -2.243 -0.3935  0.4137  0.8210
     4 C(13)  Bbb    -0.0346    -4.640    -1.656    -1.548  0.8984 -0.0163  0.4388
              Bcc     0.0847    11.366     4.056     3.791  0.1949  0.9103 -0.3652
 
              Baa    -0.0159    -8.471    -3.023    -2.826  0.9646  0.0272  0.2622
     5 H(1)   Bbb     0.0030     1.589     0.567     0.530 -0.2607  0.2451  0.9338
              Bcc     0.0129     6.883     2.456     2.296  0.0388  0.9691 -0.2436
 
              Baa    -0.0104    -5.540    -1.977    -1.848 -0.5890  0.2985  0.7510
     6 H(1)   Bbb     0.0016     0.851     0.304     0.284 -0.0782  0.9039 -0.4206
              Bcc     0.0088     4.690     1.673     1.564  0.8043  0.3064  0.5091
 
              Baa    -0.0329    -4.415    -1.575    -1.473  0.6301  0.2257  0.7430
     7 C(13)  Bbb    -0.0190    -2.554    -0.911    -0.852 -0.3185  0.9477 -0.0178
              Bcc     0.0519     6.969     2.487     2.325  0.7082  0.2255 -0.6690
 
              Baa    -0.0103    -5.508    -1.965    -1.837  0.9802 -0.1320  0.1473
     8 H(1)   Bbb    -0.0022    -1.166    -0.416    -0.389  0.1647  0.9570 -0.2387
              Bcc     0.0125     6.674     2.381     2.226 -0.1095  0.2582  0.9599
 
              Baa    -0.0103    -5.488    -1.958    -1.831  0.9943 -0.0710  0.0800
     9 H(1)   Bbb     0.0006     0.337     0.120     0.112 -0.0878 -0.1153  0.9894
              Bcc     0.0097     5.151     1.838     1.718  0.0610  0.9908  0.1209
 
              Baa    -0.5328   -71.495   -25.511   -23.848  0.8536  0.5132  0.0893
    10 C(13)  Bbb    -0.5170   -69.371   -24.753   -23.140 -0.4250  0.7854 -0.4501
              Bcc     1.0498   140.867    50.265    46.988 -0.3011  0.3463  0.8885
 
              Baa    -0.0701   -37.422   -13.353   -12.483  0.8324 -0.3654  0.4166
    11 H(1)   Bbb    -0.0007    -0.379    -0.135    -0.126 -0.3561  0.2232  0.9074
              Bcc     0.0708    37.801    13.488    12.609  0.4246  0.9037 -0.0557
 
              Baa    -0.0234    -3.137    -1.119    -1.046  0.0163  0.4790  0.8777
    12 C(13)  Bbb    -0.0036    -0.477    -0.170    -0.159  0.0227  0.8774 -0.4793
              Bcc     0.0269     3.614     1.290     1.205  0.9996 -0.0277 -0.0035
 
              Baa    -0.0076    -4.079    -1.456    -1.361 -0.1018  0.5231  0.8462
    13 H(1)   Bbb    -0.0048    -2.580    -0.921    -0.861  0.3307  0.8200 -0.4671
              Bcc     0.0125     6.660     2.376     2.221  0.9382 -0.2323  0.2565
 
              Baa    -0.0108    -5.767    -2.058    -1.924 -0.5131  0.2005  0.8346
    14 H(1)   Bbb    -0.0020    -1.094    -0.390    -0.365  0.5571  0.8175  0.1461
              Bcc     0.0129     6.861     2.448     2.289  0.6530 -0.5399  0.5312
 
              Baa    -0.0128    -6.812    -2.431    -2.272  0.3753  0.4026  0.8349
    15 H(1)   Bbb    -0.0006    -0.333    -0.119    -0.111 -0.0765  0.9111 -0.4050
              Bcc     0.0134     7.145     2.549     2.383  0.9237 -0.0881 -0.3727
 
              Baa    -0.7812   -30.127   -10.750   -10.049  0.6956  0.5510 -0.4610
    16 N(14)  Bbb    -0.7535   -29.061   -10.370    -9.694  0.7146 -0.4654  0.5222
              Bcc     1.5347    59.189    21.120    19.743 -0.0732  0.6927  0.7175
 
              Baa    -0.3715   -14.326    -5.112    -4.779  0.9131 -0.3932  0.1078
    17 N(14)  Bbb    -0.3596   -13.868    -4.948    -4.626  0.3922  0.7748 -0.4959
              Bcc     0.7310    28.194    10.060     9.404  0.1114  0.4951  0.8617
 
              Baa    -0.0466    -6.247    -2.229    -2.084  0.2608  0.9646 -0.0383
    18 C(13)  Bbb    -0.0189    -2.540    -0.906    -0.847 -0.1733  0.0858  0.9811
              Bcc     0.0655     8.787     3.135     2.931  0.9497 -0.2492  0.1896
 
              Baa    -0.0151    -2.023    -0.722    -0.675  0.3037  0.7261 -0.6168
    19 C(13)  Bbb    -0.0093    -1.245    -0.444    -0.415 -0.3839  0.6858  0.6183
              Bcc     0.0244     3.268     1.166     1.090  0.8720  0.0490  0.4870
 
              Baa    -0.1020     7.378     2.633     2.461  0.6339  0.5692 -0.5237
    20 O(17)  Bbb    -0.0917     6.633     2.367     2.212  0.7627 -0.5723  0.3012
              Bcc     0.1936   -14.010    -4.999    -4.673  0.1282  0.5904  0.7969
 
              Baa    -0.1081     7.822     2.791     2.609  0.6756 -0.2678  0.6869
    21 O(17)  Bbb    -0.0873     6.320     2.255     2.108 -0.6157  0.3076  0.7255
              Bcc     0.1954   -14.142    -5.046    -4.717  0.4056  0.9130 -0.0429
 
              Baa    -0.0440     3.187     1.137     1.063  0.0664  0.7126 -0.6984
    22 O(17)  Bbb    -0.0334     2.418     0.863     0.806  0.9319 -0.2945 -0.2119
              Bcc     0.0775    -5.605    -2.000    -1.869  0.3567  0.6367  0.6836
 
              Baa    -0.0636     4.600     1.641     1.534 -0.5185  0.5690  0.6383
    23 O(17)  Bbb    -0.0497     3.600     1.284     1.201  0.7749  0.6283  0.0694
              Bcc     0.1133    -8.199    -2.926    -2.735  0.3615 -0.5306  0.7667
 
              Baa    -0.0072    -0.968    -0.345    -0.323 -0.5519  0.3270  0.7671
    24 C(13)  Bbb    -0.0052    -0.704    -0.251    -0.235  0.1201  0.9415 -0.3149
              Bcc     0.0125     1.672     0.597     0.558  0.8252  0.0817  0.5589
 
              Baa    -0.0022    -1.177    -0.420    -0.392 -0.1756  0.9297 -0.3238
    25 H(1)   Bbb    -0.0019    -1.019    -0.364    -0.340  0.7462 -0.0888 -0.6598
              Bcc     0.0041     2.195     0.783     0.732  0.6421  0.3575  0.6781
 
              Baa    -0.0030    -1.575    -0.562    -0.525 -0.5709  0.8005  0.1824
    26 H(1)   Bbb    -0.0024    -1.307    -0.466    -0.436 -0.0908 -0.2823  0.9550
              Bcc     0.0054     2.882     1.029     0.961  0.8160  0.5286  0.2339
 
              Baa    -0.0028    -1.473    -0.526    -0.491 -0.4118 -0.0689  0.9087
    27 H(1)   Bbb    -0.0018    -0.971    -0.346    -0.324 -0.1207  0.9925  0.0205
              Bcc     0.0046     2.444     0.872     0.815  0.9032  0.1013  0.4170
 
              Baa    -0.0025    -0.335    -0.120    -0.112  0.0899 -0.0039  0.9959
    28 C(13)  Bbb    -0.0016    -0.216    -0.077    -0.072  0.1586  0.9873 -0.0105
              Bcc     0.0041     0.551     0.197     0.184  0.9832 -0.1589 -0.0893
 
              Baa    -0.0023    -1.253    -0.447    -0.418  0.3037  0.3082  0.9015
    29 H(1)   Bbb    -0.0013    -0.687    -0.245    -0.229  0.0592  0.9383 -0.3408
              Bcc     0.0036     1.941     0.693     0.647  0.9509 -0.1569 -0.2667
 
              Baa    -0.0025    -1.334    -0.476    -0.445  0.0114  0.4578  0.8890
    30 H(1)   Bbb    -0.0014    -0.763    -0.272    -0.255  0.1861  0.8725 -0.4517
              Bcc     0.0039     2.097     0.748     0.700  0.9825 -0.1706  0.0753
 
              Baa    -0.0026    -1.378    -0.492    -0.460  0.4343  0.3329  0.8370
    31 H(1)   Bbb    -0.0015    -0.820    -0.292    -0.273  0.2548  0.8459 -0.4686
              Bcc     0.0041     2.198     0.784     0.733  0.8640 -0.4168 -0.2826
 

 ---------------------------------------------------------------------------------

 1\1\GINC-D10S7B2\FOpt\UwB97XD\Gen\C11H14N2O4(3)\PMMASS\09-Feb-2022\0\\
 #n wB97XD/Gen scrf(smd,solvent=toluene) opt\\Cycloaddition product in 
 toluene - opt\\0,3\C,0.2696566262,0.7180633535,-0.5432273395\C,0.73912
 81204,1.9129205431,0.3415461874\C,-1.538388624,1.8673007526,0.61554940
 24\C,-1.1853908174,1.1297759305,-0.6386321333\H,0.7624004636,0.7238729
 138,-1.5115900817\H,-1.9105825533,0.5994752796,-1.2315872826\C,-0.2972
 11066,1.8803327613,1.4907266679\H,-0.2303518976,2.7733538657,2.1126152
 145\H,-0.2165384725,0.9970940787,2.1272976465\C,0.2263881245,3.0529878
 611,-0.487268561\H,0.6240706734,4.0563809857,-0.5163774826\C,-1.173512
 9911,2.6556341807,-0.6485159855\H,-1.91503399,3.2072527123,-1.20421131
 54\H,1.7869582315,1.9124193851,0.6177365481\H,-2.5423165324,1.85922812
 16,1.0106161992\N,-0.2871794352,-1.2801068135,0.841207375\N,0.55108502
 01,-0.59196122,0.0909743851\C,-1.6031235084,-1.447127514,0.4468382559\
 C,1.8929700689,-1.0230356023,0.210298431\O,2.238884126,-1.9732487302,0
 .8479141613\O,-2.5271201111,-1.4289675532,1.2168603469\O,2.6911810148,
 -0.2438732728,-0.5139385563\O,-1.6973747928,-1.7841189063,-0.848437901
 4\C,-3.0124197732,-2.0762112909,-1.3135714398\H,-2.9112063411,-2.27740
 27846,-2.3774926163\H,-3.4186634311,-2.9504853856,-0.8046358932\H,-3.6
 793402048,-1.2278032676,-1.1537382443\C,4.0751828783,-0.5979546154,-0.
 4985125041\H,4.571227934,0.1354989553,-1.1287968014\H,4.4717117082,-0.
 551469611,0.5153236933\H,4.2199895521,-1.5995451134,-0.9024603762\\Ver
 sion=ES64L-G09RevD.01\State=3-A\HF=-837.9229228\S2=2.009921\S2-1=0.\S2
 A=2.000062\RMSD=3.142e-09\RMSF=1.017e-05\Dipole=0.5716801,1.6095958,-1
 .7690178\Quadrupole=8.4823746,-3.903594,-4.5787806,2.0592663,4.075431,
 7.9264806\PG=C01 [X(C11H14N2O4)]\\@


 IN THE FIGHT BETWEEN YOU AND THE WORLD, BACK THE WORLD

                                        -- FRANZ KAFKA
 Job cpu time:       1 days 23 hours 22 minutes  3.0 seconds.
 File lengths (MBytes):  RWF=    576 Int=      0 D2E=      0 Chk=     43 Scr=      1
 Normal termination of Gaussian 09 at Wed Feb  9 18:50:42 2022.
