 Entering Gaussian System, Link 0=g09
 Input=prod_cyclo_ma_freq.com
 Output=prod_cyclo_ma_freq.log
 Initial command:
 /apps/applications/gaussian/G09.D01/2/default/g09/l1.exe "/nobackup/pmmass/Temp/Gau-87324.inp" -scrdir="/nobackup/pmmass/Temp/"
 Entering Link 1 = /apps/applications/gaussian/G09.D01/2/default/g09/l1.exe PID=     87325.
  
 Copyright (c) 1988,1990,1992,1993,1995,1998,2003,2009,2013,
            Gaussian, Inc.  All Rights Reserved.
  
 This is part of the Gaussian(R) 09 program.  It is based on
 the Gaussian(R) 03 system (copyright 2003, Gaussian, Inc.),
 the Gaussian(R) 98 system (copyright 1998, Gaussian, Inc.),
 the Gaussian(R) 94 system (copyright 1995, Gaussian, Inc.),
 the Gaussian 92(TM) system (copyright 1992, Gaussian, Inc.),
 the Gaussian 90(TM) system (copyright 1990, Gaussian, Inc.),
 the Gaussian 88(TM) system (copyright 1988, Gaussian, Inc.),
 the Gaussian 86(TM) system (copyright 1986, Carnegie Mellon
 University), and the Gaussian 82(TM) system (copyright 1983,
 Carnegie Mellon University). Gaussian is a federally registered
 trademark of Gaussian, Inc.
  
 This software contains proprietary and confidential information,
 including trade secrets, belonging to Gaussian, Inc.
  
 This software is provided under written license and may be
 used, copied, transmitted, or stored only in accord with that
 written license.
  
 The following legend is applicable only to US Government
 contracts under FAR:
  
                    RESTRICTED RIGHTS LEGEND
  
 Use, reproduction and disclosure by the US Government is
 subject to restrictions as set forth in subparagraphs (a)
 and (c) of the Commercial Computer Software - Restricted
 Rights clause in FAR 52.227-19.
  
 Gaussian, Inc.
 340 Quinnipiac St., Bldg. 40, Wallingford CT 06492
  
  
 ---------------------------------------------------------------
 Warning -- This program may not be used in any manner that
 competes with the business of Gaussian, Inc. or will provide
 assistance to any competitor of Gaussian, Inc.  The licensee
 of this program is prohibited from giving any competitor of
 Gaussian, Inc. access to this program.  By using this program,
 the user acknowledges that Gaussian, Inc. is engaged in the
 business of creating and licensing software in the field of
 computational chemistry and represents and warrants to the
 licensee that it is not a competitor of Gaussian, Inc. and that
 it will not use this program in any manner prohibited above.
 ---------------------------------------------------------------
  

 Cite this work as:
 Gaussian 09, Revision D.01,
 M. J. Frisch, G. W. Trucks, H. B. Schlegel, G. E. Scuseria, 
 M. A. Robb, J. R. Cheeseman, G. Scalmani, V. Barone, B. Mennucci, 
 G. A. Petersson, H. Nakatsuji, M. Caricato, X. Li, H. P. Hratchian, 
 A. F. Izmaylov, J. Bloino, G. Zheng, J. L. Sonnenberg, M. Hada, 
 M. Ehara, K. Toyota, R. Fukuda, J. Hasegawa, M. Ishida, T. Nakajima, 
 Y. Honda, O. Kitao, H. Nakai, T. Vreven, J. A. Montgomery, Jr., 
 J. E. Peralta, F. Ogliaro, M. Bearpark, J. J. Heyd, E. Brothers, 
 K. N. Kudin, V. N. Staroverov, T. Keith, R. Kobayashi, J. Normand, 
 K. Raghavachari, A. Rendell, J. C. Burant, S. S. Iyengar, J. Tomasi, 
 M. Cossi, N. Rega, J. M. Millam, M. Klene, J. E. Knox, J. B. Cross, 
 V. Bakken, C. Adamo, J. Jaramillo, R. Gomperts, R. E. Stratmann, 
 O. Yazyev, A. J. Austin, R. Cammi, C. Pomelli, J. W. Ochterski, 
 R. L. Martin, K. Morokuma, V. G. Zakrzewski, G. A. Voth, 
 P. Salvador, J. J. Dannenberg, S. Dapprich, A. D. Daniels, 
 O. Farkas, J. B. Foresman, J. V. Ortiz, J. Cioslowski, 
 and D. J. Fox, Gaussian, Inc., Wallingford CT, 2013.
 
 ******************************************
 Gaussian 09:  ES64L-G09RevD.01 24-Apr-2013
                11-Feb-2022 
 ******************************************
 %nprocshared=8
 Will use up to    8 processors via shared memory.
 %mem=4GB
 %NoSave
 %chk="prod_claisen_ma_freq.chk"
 --------------------------------------------
 #n wB97XD/Gen scrf(smd,solvent=toluene) freq
 --------------------------------------------
 1/10=4,30=1,38=1/1,3;
 2/12=2,17=6,18=5,40=1/2;
 3/5=7,11=2,16=1,25=1,30=1,70=32201,71=2,72=13,74=-58,140=1/1,2,3;
 4//1;
 5/5=2,38=5,53=13,98=1/2;
 8/6=4,10=90,11=11/1;
 11/6=1,8=1,9=11,15=111,16=1/1,2,10;
 10/6=1/2;
 6/7=2,8=2,9=2,10=2,18=1,28=1/1;
 7/8=1,10=1,25=1/1,2,3,16;
 1/10=4,30=1/3;
 99//99;
 ----------------------------------
 clasisen product in toluene - freq
 ----------------------------------
 Symbolic Z-matrix:
 Charge =  0 Multiplicity = 3
 C                     0.33194   0.68648  -0.57613 
 C                     0.90821   1.85956   0.27399 
 C                    -1.36017   1.99218   0.59197 
 C                    -1.08956   1.20536  -0.6527 
 H                     0.80378   0.63576  -1.55355 
 H                    -1.86468   0.71994  -1.22041 
 C                    -0.10387   1.92837   1.44301 
 H                     0.04287   2.82588   2.04439 
 H                    -0.07701   1.05432   2.09659 
 C                     0.46604   3.01861  -0.56903 
 H                     0.93758   3.98819  -0.627 
 C                    -0.96285   2.72543  -0.69526 
 H                    -1.67189   3.32058  -1.24842 
 H                     1.95846   1.78508   0.53024 
 H                    -2.35354   2.06806   1.00605 
 N                    -0.34552  -1.23595   0.86079 
 N                     0.52671  -0.62832   0.08035 
 C                    -1.67812  -1.31048   0.49505 
 C                     1.83442  -1.15745   0.18339 
 O                     2.12068  -2.11836   0.83441 
 O                    -2.58214  -1.2071    1.28186 
 O                     2.67412  -0.45552  -0.57224 
 O                    -1.82403  -1.66491  -0.79075 
 C                    -3.16661  -1.86559  -1.22459 
 H                    -3.10268  -2.09488  -2.28572 
 H                    -3.62712  -2.69631  -0.68957 
 H                    -3.76423  -0.96607  -1.07024 
 C                     4.0275   -0.91314  -0.57549 
 H                     4.56443  -0.23202  -1.23051 
 H                     4.44709  -0.87682   0.42944 
 H                     4.08805  -1.93062  -0.96071 
 

 GradGradGradGradGradGradGradGradGradGradGradGradGradGradGradGradGradGrad
 Berny optimization.
 Initialization pass.
 Trust Radius=3.00D-01 FncErr=1.00D-07 GrdErr=1.00D-07
 Number of steps in this run=      2 maximum allowed number of steps=      2.
 GradGradGradGradGradGradGradGradGradGradGradGradGradGradGradGradGradGrad

                          Input orientation:                          
 ---------------------------------------------------------------------
 Center     Atomic      Atomic             Coordinates (Angstroms)
 Number     Number       Type             X           Y           Z
 ---------------------------------------------------------------------
      1          6           0        0.331940    0.686480   -0.576130
      2          6           0        0.908210    1.859560    0.273990
      3          6           0       -1.360170    1.992180    0.591970
      4          6           0       -1.089560    1.205360   -0.652700
      5          1           0        0.803780    0.635760   -1.553550
      6          1           0       -1.864680    0.719940   -1.220410
      7          6           0       -0.103870    1.928370    1.443010
      8          1           0        0.042870    2.825880    2.044390
      9          1           0       -0.077010    1.054320    2.096590
     10          6           0        0.466040    3.018610   -0.569030
     11          1           0        0.937580    3.988190   -0.627000
     12          6           0       -0.962850    2.725430   -0.695260
     13          1           0       -1.671890    3.320580   -1.248420
     14          1           0        1.958460    1.785080    0.530240
     15          1           0       -2.353540    2.068060    1.006050
     16          7           0       -0.345520   -1.235950    0.860790
     17          7           0        0.526710   -0.628320    0.080350
     18          6           0       -1.678120   -1.310480    0.495050
     19          6           0        1.834420   -1.157450    0.183390
     20          8           0        2.120680   -2.118360    0.834410
     21          8           0       -2.582140   -1.207100    1.281860
     22          8           0        2.674120   -0.455520   -0.572240
     23          8           0       -1.824030   -1.664910   -0.790750
     24          6           0       -3.166610   -1.865590   -1.224590
     25          1           0       -3.102680   -2.094880   -2.285720
     26          1           0       -3.627120   -2.696310   -0.689570
     27          1           0       -3.764230   -0.966070   -1.070240
     28          6           0        4.027500   -0.913140   -0.575490
     29          1           0        4.564430   -0.232020   -1.230510
     30          1           0        4.447090   -0.876820    0.429440
     31          1           0        4.088050   -1.930620   -0.960710
 ---------------------------------------------------------------------
                    Distance matrix (angstroms):
                    1          2          3          4          5
     1  C    0.000000
     2  C    1.559137   0.000000
     3  C    2.435682   2.294395   0.000000
     4  C    1.515177   2.297350   1.497170   0.000000
     5  H    1.086534   2.201930   3.335538   2.172720   0.000000
     6  H    2.289401   3.349759   2.271089   1.076447   2.690492
     7  C    2.410217   1.547788   1.518760   2.426176   3.387335
     8  H    3.395249   2.194745   2.184743   3.344066   4.280278
     9  H    2.728732   2.222823   2.188598   2.933712   3.778162
    10  C    2.335993   1.499865   2.395104   2.390558   2.600254
    11  H    3.357183   2.311647   3.278658   3.442978   3.480687
    12  C    2.418262   2.278166   1.533780   1.525936   2.867815
    13  H    3.377246   3.333051   2.291037   2.273356   3.664738
    14  H    2.253119   1.083622   3.325659   3.320519   2.645071
    15  H    3.409378   3.349388   1.078890   2.256845   4.309490
    16  N    2.493878   3.390922   3.394496   2.967194   3.263928
    17  N    1.482431   2.524398   3.269418   2.551876   2.084297
    18  C    3.029128   4.097209   3.319345   2.827222   3.760909
    19  C    2.496877   3.157281   4.504721   3.851179   2.700885
    20  O    3.613356   4.196189   5.391812   4.854302   3.875791
    21  O    3.940766   4.754235   3.493501   3.433698   4.785409
    22  O    2.605760   3.032184   4.860259   4.114643   2.377400
    23  O    3.197390   4.584833   3.937180   2.965966   3.574959
    24  C    4.378746   5.720720   4.630929   3.751257   4.704143
    25  H    4.738700   6.186837   5.293534   4.196545   4.822126
    26  H    5.208675   6.500278   5.363147   4.654417   5.610885
    27  H    4.444511   5.623418   4.158568   3.470347   4.864788
    28  C    4.026903   4.259044   6.231439   5.538800   3.707838
    29  H    4.380163   4.472826   6.585544   5.862383   3.872969
    30  H    4.515478   4.476116   6.479340   6.013401   4.415185
    31  H    4.594070   5.099150   6.890738   6.061096   4.210011
                    6          7          8          9         10
     6  H    0.000000
     7  C    3.413878   0.000000
     8  H    4.328123   1.090282   0.000000
     9  H    3.782864   1.091720   1.776379   0.000000
    10  C    3.337729   2.358331   2.654465   3.355424   0.000000
    11  H    4.345832   3.100390   3.047588   4.129761   1.079720
    12  C    2.260768   2.438309   2.920145   3.372202   1.464109
    13  H    2.607927   3.411852   3.745361   4.343808   2.263515
    14  H    4.337707   2.259842   2.654317   2.670318   2.226501
    15  H    2.648308   2.295967   2.719416   2.720209   3.366668
    16  N    3.234926   3.226499   4.248555   2.616226   4.561173
    17  N    3.037849   2.964985   4.002880   2.694620   3.704791
    18  C    2.664622   3.723848   4.740436   3.274258   4.946788
    19  C    4.379337   3.855632   4.747619   3.493684   4.458484
    20  O    5.306725   4.657794   5.497896   4.060645   5.576373
    21  O    3.238763   3.999870   4.872069   3.471812   5.529360
    22  O    4.733132   4.178683   4.953566   4.119586   4.116456
    23  O    2.423586   4.567307   5.629434   4.333939   5.218136
    24  C    2.894824   5.557931   6.557201   5.394603   6.122199
    25  H    3.254342   6.251626   7.270366   6.186823   6.467655
    26  H    3.880561   6.192645   7.172025   5.867980   7.030562
    27  H    2.544302   5.300231   6.210782   5.263685   5.833016
    28  C    6.148224   5.405251   6.059812   5.278060   5.304969
    29  H    6.499214   5.797242   6.365550   5.853822   5.272661
    30  H    6.716404   5.441291   5.976220   5.193859   5.658628
    31  H    6.521342   6.184001   6.929531   5.966965   6.145506
                   11         12         13         14         15
    11  H    0.000000
    12  C    2.282730   0.000000
    13  H    2.764272   1.078391   0.000000
    14  H    2.689813   3.304567   4.324446   0.000000
    15  H    4.145506   2.293602   2.667600   4.347392   0.000000
    16  N    5.581353   4.300572   5.193264   3.813687   3.869073
    17  N    4.688424   3.750733   4.710975   2.841973   4.052558
    18  C    6.014714   4.268140   4.948378   4.775819   3.483080
    19  C    5.285704   4.865542   5.864899   2.965497   5.349738
    20  O    6.389476   5.942251   6.950096   3.918632   6.129781
    21  O    6.559208   4.689978   5.266000   5.489547   3.294693
    22  O    4.771282   4.833335   5.796892   2.597676   5.842672
    23  O    6.293715   4.475023   5.008764   5.287218   4.176594
    24  C    7.174136   5.119982   5.397325   6.532470   4.594610
    25  H    7.488578   5.508523   5.696522   6.971288   5.359760
    26  H    8.094624   6.040996   6.351236   7.264262   5.215012
    27  H    6.844572   4.649249   4.773364   6.548247   3.937889
    28  C    5.794247   6.177146   7.131638   3.575466   7.218483
    29  H    5.597181   6.291568   7.177254   3.736310   7.625672
    30  H    6.091063   6.596105   7.607582   3.645429   7.433261
    31  H    6.713355   6.874653   7.799666   4.534811   7.832731
                   16         17         18         19         20
    16  N    0.000000
    17  N    1.318744   0.000000
    18  C    1.383887   2.344908   0.000000
    19  C    2.284113   1.414461   3.529658   0.000000
    20  O    2.619444   2.308585   3.898553   1.195458   0.000000
    21  O    2.276093   3.382833   1.202917   4.551385   4.811146
    22  O    3.432327   2.251023   4.562023   1.329954   2.247220
    23  O    2.257783   2.712805   1.341712   3.819780   4.290396
    24  C    3.564240   4.107836   2.341135   5.243488   5.679684
    25  H    4.270857   4.574009   3.221387   5.599128   6.084345
    26  H    3.912182   4.703580   2.668792   5.740955   5.974424
    27  H    3.935644   4.455345   2.630704   5.740479   6.291870
    28  C    4.614153   3.573063   5.818766   2.333492   2.660138
    29  H    5.430379   4.263636   6.565825   3.210683   3.714039
    30  H    4.825365   3.943729   6.140893   2.639193   2.667884
    31  H    4.843240   3.932294   5.979342   2.643029   2.669878
                   21         22         23         24         25
    21  O    0.000000
    22  O    5.624129   0.000000
    23  O    2.253893   4.663017   0.000000
    24  C    2.656597   6.043839   1.425135   0.000000
    25  H    3.713050   6.244592   2.013642   1.087501   0.000000
    26  H    2.682586   6.688836   2.079701   1.090143   1.784503
    27  H    2.643446   6.477732   2.081074   1.090922   1.785848
    28  C    6.871936   1.428658   5.903550   7.285857   7.427036
    29  H    7.637817   2.014086   6.561934   7.901744   7.960420
    30  H    7.088426   2.079490   6.437150   7.853783   8.115096
    31  H    7.074181   2.079910   5.920488   7.259749   7.313633
                   26         27         28         29         30
    26  H    0.000000
    27  H    1.776918   0.000000
    28  C    7.860402   7.807601   0.000000
    29  H    8.571280   8.362481   1.086862   0.000000
    30  H    8.351981   8.347621   1.089614   1.784648   0.000000
    31  H    7.757812   7.912058   1.089645   1.784649   1.780989
                   31
    31  H    0.000000
 Stoichiometry    C11H14N2O4(3)
 Framework group  C1[X(C11H14N2O4)]
 Deg. of freedom    87
 Full point group                 C1      NOp   1
 Largest Abelian subgroup         C1      NOp   1
 Largest concise Abelian subgroup C1      NOp   1
                         Standard orientation:                         
 ---------------------------------------------------------------------
 Center     Atomic      Atomic             Coordinates (Angstroms)
 Number     Number       Type             X           Y           Z
 ---------------------------------------------------------------------
      1          6           0        0.331940    0.686479   -0.576130
      2          6           0        0.908211    1.859559    0.273990
      3          6           0       -1.360168    1.992181    0.591970
      4          6           0       -1.089559    1.205361   -0.652700
      5          1           0        0.803780    0.635759   -1.553550
      6          1           0       -1.864680    0.719941   -1.220410
      7          6           0       -0.103869    1.928370    1.443010
      8          1           0        0.042872    2.825879    2.044390
      9          1           0       -0.077009    1.054320    2.096590
     10          6           0        0.466043    3.018609   -0.569030
     11          1           0        0.937583    3.988189   -0.627000
     12          6           0       -0.962848    2.725430   -0.695260
     13          1           0       -1.671887    3.320581   -1.248420
     14          1           0        1.958461    1.785078    0.530240
     15          1           0       -2.353538    2.068062    1.006050
     16          7           0       -0.345522   -1.235950    0.860790
     17          7           0        0.526709   -0.628321    0.080350
     18          6           0       -1.678122   -1.310479    0.495050
     19          6           0        1.834418   -1.157452    0.183390
     20          8           0        2.120677   -2.118363    0.834410
     21          8           0       -2.582142   -1.207098    1.281860
     22          8           0        2.674119   -0.455523   -0.572240
     23          8           0       -1.824032   -1.664909   -0.790750
     24          6           0       -3.166612   -1.865587   -1.224590
     25          1           0       -3.102683   -2.094877   -2.285720
     26          1           0       -3.627123   -2.696307   -0.689570
     27          1           0       -3.764231   -0.966067   -1.070240
     28          6           0        4.027499   -0.913144   -0.575490
     29          1           0        4.564429   -0.232025   -1.230510
     30          1           0        4.447089   -0.876825    0.429440
     31          1           0        4.088048   -1.930625   -0.960710
 ---------------------------------------------------------------------
 Rotational constants (GHZ):      0.6032718      0.4691988      0.3177889
 General basis read from cards:  (5D, 7F)
 There are   764 symmetry adapted cartesian basis functions of A   symmetry.
 There are   679 symmetry adapted basis functions of A   symmetry.
   679 basis functions,  1047 primitive gaussians,   764 cartesian basis functions
    64 alpha electrons       62 beta electrons
       nuclear repulsion energy      1318.0735590319 Hartrees.
 NAtoms=   31 NActive=   31 NUniq=   31 SFac= 1.00D+00 NAtFMM=   60 NAOKFM=F Big=F
 Integral buffers will be    131072 words long.
 Raffenetti 2 integral format.
 Two-electron integral symmetry is turned on.
 Nuclear repulsion after empirical dispersion term =     1318.0497886876 Hartrees.
 Force inversion solution in PCM.
 ------------------------------------------------------------------------------
 Polarizable Continuum Model (PCM)
 =================================
 Model                : PCM (using non-symmetric T matrix).
 Atomic radii         : SMD-Coulomb.
 Polarization charges : Total charges.
 Charge compensation  : None.
 Solution method      : Matrix inversion.
 Cavity type          : VdW (van der Waals Surface) (Alpha=1.000).
 Cavity algorithm     : GePol (No added spheres)
                        Default sphere list used, NSphG=   31.
                        Lebedev-Laikov grids with approx.  5.0 points / Ang**2.
                        Smoothing algorithm: Karplus/York (Gamma=1.0000).
                        Polarization charges: spherical gaussians, with
                                              point-specific exponents (IZeta= 3).
                        Self-potential: point-specific (ISelfS= 7).
                        Self-field    : sphere-specific E.n sum rule (ISelfD= 2).
 1st derivatives      : Analytical E(r).r(x)/FMM algorithm (CHGder, D1EAlg=3).
                        Cavity 1st derivative terms included.
 2nd derivatives      : Analytical E(r).r(xy)/FMM algorithm (CHGder, D2EAlg=3).
                        Cavity 2nd derivative terms included.
 Solvent              : Toluene, Eps=   2.374100 Eps(inf)=   2.238315
 ------------------------------------------------------------------------------
 ------------------------------------------------------------------------------
 Atomic radii for non-electrostatic terms: SMD-CDS.
 ------------------------------------------------------------------------------
 Nuclear repulsion after PCM non-electrostatic terms =     1318.0424328016 Hartrees.
 One-electron integrals computed using PRISM.
 NBasis=   679 RedAO= T EigKep=  1.39D-06  NBF=   679
 NBsUse=   676 1.00D-06 EigRej=  6.80D-07 NBFU=   676
 ExpMin= 3.17D-02 ExpMax= 2.70D+04 ExpMxC= 9.22D+02 IAcc=3 IRadAn=         5 AccDes= 0.00D+00
 Harris functional with IExCor= 4639 and IRadAn=       5 diagonalized for initial guess.
 HarFok:  IExCor= 4639 AccDes= 0.00D+00 IRadAn=         5 IDoV= 1 UseB2=F ITyADJ=14
 ICtDFT=  3500011 ScaDFX=  1.000000  1.000000  1.000000  1.000000
 FoFCou: FMM=F IPFlag=           0 FMFlag=      100000 FMFlg1=           0
         NFxFlg=           0 DoJE=T BraDBF=F KetDBF=T FulRan=T
         wScrn=  0.000000 ICntrl=     500 IOpCl=  0 I1Cent=   200000004 NGrid=           0
         NMat0=    1 NMatS0=      1 NMatT0=    0 NMatD0=    1 NMtDS0=    0 NMtDT0=    0
 Petite list used in FoFCou.
 Initial guess <Sx>= 0.0000 <Sy>= 0.0000 <Sz>= 1.0000 <S**2>= 2.0000 S= 1.0000
 Requested convergence on RMS density matrix=1.00D-08 within 128 cycles.
 Requested convergence on MAX density matrix=1.00D-06.
 Requested convergence on             energy=1.00D-06.
 No special actions if energy rises.
 Inv3:  Mode=1 IEnd=    15363507.
 Iteration    1 A*A^-1 deviation from unit magnitude is 5.44D-15 for   2261.
 Iteration    1 A*A^-1 deviation from orthogonality  is 2.82D-15 for    939    478.
 Iteration    1 A^-1*A deviation from unit magnitude is 5.44D-15 for   2261.
 Iteration    1 A^-1*A deviation from orthogonality  is 1.59D-13 for   1047   1046.
 Error on total polarization charges =  0.02088
 SCF Done:  E(UwB97XD) =  -837.922922792     A.U. after   19 cycles
            NFock= 19  Conv=0.61D-08     -V/T= 2.0045
 <Sx>= 0.0000 <Sy>= 0.0000 <Sz>= 1.0000 <S**2>= 2.0099 S= 1.0033
 <L.S>= 0.000000000000E+00
 SMD-CDS (non-electrostatic) energy       (kcal/mol) =      -4.62
 (included in total energy above)
 Annihilation of the first spin contaminant:
 S**2 before annihilation     2.0099,   after     2.0001
 DoSCS=F DFT=T ScalE2(SS,OS)=  1.000000  1.000000
 Range of M.O.s used for correlation:     1   676
 NBasis=   679 NAE=    64 NBE=    62 NFC=     0 NFV=     0
 NROrb=    676 NOA=    64 NOB=    62 NVA=   612 NVB=   614

 **** Warning!!: The largest alpha MO coefficient is  0.14620467D+03


 **** Warning!!: The largest beta MO coefficient is  0.16187000D+03

 Symmetrizing basis deriv contribution to polar:
 IMax=3 JMax=2 DiffMx= 0.00D+00
 G2DrvN: will do    16 centers at a time, making    2 passes.
 Calling FoFCou, ICntrl=  3107 FMM=F I1Cent=   0 AccDes= 0.00D+00.
 Calling FoFCou, ICntrl=  3107 FMM=F I1Cent=   0 AccDes= 0.00D+00.
 NEqPCM:  Using equilibrium solvation (IEInf=0, Eps=   2.3741, EpsInf=   2.2383)
 G2PCM: DoFxE=T DoFxN=T DoGrad=T DoDP/DQ/DG/TGxP=FFFF NFrqRd=   0 IEInf=0 SqF1=F DoCFld=F IF1Alg=4.
 End of G2Drv F.D. properties file   721 does not exist.
 End of G2Drv F.D. properties file   722 does not exist.
 End of G2Drv F.D. properties file   788 does not exist.
          IDoAtm=1111111111111111111111111111111
 NEqPCM:  Using equilibrium solvation (IEInf=0, Eps=   2.3741, EpsInf=   2.2383)
          Differentiating once with respect to electric field.
                with respect to dipole field.
          Differentiating once with respect to nuclear coordinates.
          There are    96 degrees of freedom in the 1st order CPHF.  IDoFFX=6 NUNeed=     3.
     93 vectors produced by pass  0 Test12= 8.05D-14 1.04D-09 XBig12= 1.31D+02 2.54D+00.
 AX will form    93 AO Fock derivatives at one time.
     93 vectors produced by pass  1 Test12= 8.05D-14 1.04D-09 XBig12= 1.51D+01 4.69D-01.
     93 vectors produced by pass  2 Test12= 8.05D-14 1.04D-09 XBig12= 1.04D+00 2.93D-01.
     93 vectors produced by pass  3 Test12= 8.05D-14 1.04D-09 XBig12= 2.84D-02 2.00D-02.
     93 vectors produced by pass  4 Test12= 8.05D-14 1.04D-09 XBig12= 5.28D-04 2.31D-03.
     93 vectors produced by pass  5 Test12= 8.05D-14 1.04D-09 XBig12= 8.90D-06 2.72D-04.
     93 vectors produced by pass  6 Test12= 8.05D-14 1.04D-09 XBig12= 1.01D-07 1.87D-05.
     76 vectors produced by pass  7 Test12= 8.05D-14 1.04D-09 XBig12= 1.05D-09 1.46D-06.
     27 vectors produced by pass  8 Test12= 8.05D-14 1.04D-09 XBig12= 1.40D-11 1.73D-07.
     27 vectors produced by pass  9 Test12= 8.05D-14 1.04D-09 XBig12= 1.67D-12 1.12D-07.
     27 vectors produced by pass 10 Test12= 8.05D-14 1.04D-09 XBig12= 6.85D-14 1.98D-08.
     27 vectors produced by pass 11 Test12= 8.05D-14 1.04D-09 XBig12= 2.14D-14 1.06D-08.
     27 vectors produced by pass 12 Test12= 8.05D-14 1.04D-09 XBig12= 1.18D-13 2.26D-08.
     27 vectors produced by pass 13 Test12= 8.05D-14 1.04D-09 XBig12= 2.08D-13 2.83D-08.
     27 vectors produced by pass 14 Test12= 8.05D-14 1.04D-09 XBig12= 5.26D-14 1.39D-08.
     26 vectors produced by pass 15 Test12= 8.05D-14 1.04D-09 XBig12= 1.98D-14 7.33D-09.
     26 vectors produced by pass 16 Test12= 8.05D-14 1.04D-09 XBig12= 3.85D-14 1.03D-08.
     26 vectors produced by pass 17 Test12= 8.05D-14 1.04D-09 XBig12= 2.15D-14 7.91D-09.
     26 vectors produced by pass 18 Test12= 8.05D-14 1.04D-09 XBig12= 3.66D-14 1.18D-08.
     26 vectors produced by pass 19 Test12= 8.05D-14 1.04D-09 XBig12= 2.35D-14 8.03D-09.
     24 vectors produced by pass 20 Test12= 8.05D-14 1.04D-09 XBig12= 2.23D-14 7.56D-09.
     20 vectors produced by pass 21 Test12= 8.05D-14 1.04D-09 XBig12= 1.25D-14 6.26D-09.
     20 vectors produced by pass 22 Test12= 8.05D-14 1.04D-09 XBig12= 3.43D-14 1.19D-08.
     20 vectors produced by pass 23 Test12= 8.05D-14 1.04D-09 XBig12= 1.69D-14 7.44D-09.
     20 vectors produced by pass 24 Test12= 8.05D-14 1.04D-09 XBig12= 2.18D-14 7.48D-09.
     20 vectors produced by pass 25 Test12= 8.05D-14 1.04D-09 XBig12= 3.32D-14 9.73D-09.
     17 vectors produced by pass 26 Test12= 8.05D-14 1.04D-09 XBig12= 1.08D-14 6.38D-09.
     17 vectors produced by pass 27 Test12= 8.05D-14 1.04D-09 XBig12= 2.57D-14 7.82D-09.
     17 vectors produced by pass 28 Test12= 8.05D-14 1.04D-09 XBig12= 1.26D-14 6.01D-09.
     16 vectors produced by pass 29 Test12= 8.05D-14 1.04D-09 XBig12= 1.13D-14 5.27D-09.
     16 vectors produced by pass 30 Test12= 8.05D-14 1.04D-09 XBig12= 1.67D-14 6.46D-09.
     16 vectors produced by pass 31 Test12= 8.05D-14 1.04D-09 XBig12= 1.43D-14 6.83D-09.
     16 vectors produced by pass 32 Test12= 8.05D-14 1.04D-09 XBig12= 1.41D-14 4.89D-09.
     13 vectors produced by pass 33 Test12= 8.05D-14 1.04D-09 XBig12= 6.47D-15 3.39D-09.
     13 vectors produced by pass 34 Test12= 8.05D-14 1.04D-09 XBig12= 1.38D-14 5.52D-09.
     13 vectors produced by pass 35 Test12= 8.05D-14 1.04D-09 XBig12= 1.23D-14 5.88D-09.
     13 vectors produced by pass 36 Test12= 8.05D-14 1.04D-09 XBig12= 1.05D-14 4.33D-09.
     13 vectors produced by pass 37 Test12= 8.05D-14 1.04D-09 XBig12= 1.16D-14 5.61D-09.
     13 vectors produced by pass 38 Test12= 8.05D-14 1.04D-09 XBig12= 1.46D-14 5.64D-09.
     13 vectors produced by pass 39 Test12= 8.05D-14 1.04D-09 XBig12= 1.27D-14 5.53D-09.
     13 vectors produced by pass 40 Test12= 8.05D-14 1.04D-09 XBig12= 8.90D-15 4.19D-09.
     13 vectors produced by pass 41 Test12= 8.05D-14 1.04D-09 XBig12= 2.61D-14 8.25D-09.
      8 vectors produced by pass 42 Test12= 8.05D-14 1.04D-09 XBig12= 3.26D-15 2.66D-09.
      8 vectors produced by pass 43 Test12= 8.05D-14 1.04D-09 XBig12= 7.01D-15 3.75D-09.
      7 vectors produced by pass 44 Test12= 8.05D-14 1.04D-09 XBig12= 3.90D-15 3.03D-09.
      7 vectors produced by pass 45 Test12= 8.05D-14 1.04D-09 XBig12= 1.87D-14 7.60D-09.
      7 vectors produced by pass 46 Test12= 8.05D-14 1.04D-09 XBig12= 4.96D-15 3.28D-09.
      7 vectors produced by pass 47 Test12= 8.05D-14 1.04D-09 XBig12= 5.67D-15 3.42D-09.
      7 vectors produced by pass 48 Test12= 8.05D-14 1.04D-09 XBig12= 5.60D-15 3.27D-09.
      7 vectors produced by pass 49 Test12= 8.05D-14 1.04D-09 XBig12= 6.02D-15 3.63D-09.
      6 vectors produced by pass 50 Test12= 8.05D-14 1.04D-09 XBig12= 4.49D-15 3.07D-09.
      6 vectors produced by pass 51 Test12= 8.05D-14 1.04D-09 XBig12= 4.50D-15 3.25D-09.
      6 vectors produced by pass 52 Test12= 8.05D-14 1.04D-09 XBig12= 1.10D-14 4.26D-09.
      6 vectors produced by pass 53 Test12= 8.05D-14 1.04D-09 XBig12= 6.63D-15 3.49D-09.
      4 vectors produced by pass 54 Test12= 8.05D-14 1.04D-09 XBig12= 5.52D-15 3.39D-09.
      4 vectors produced by pass 55 Test12= 8.05D-14 1.04D-09 XBig12= 3.99D-15 2.81D-09.
      4 vectors produced by pass 56 Test12= 8.05D-14 1.04D-09 XBig12= 8.66D-15 4.35D-09.
      4 vectors produced by pass 57 Test12= 8.05D-14 1.04D-09 XBig12= 6.24D-15 2.93D-09.
      4 vectors produced by pass 58 Test12= 8.05D-14 1.04D-09 XBig12= 1.33D-14 5.16D-09.
      4 vectors produced by pass 59 Test12= 8.05D-14 1.04D-09 XBig12= 4.97D-15 3.38D-09.
      4 vectors produced by pass 60 Test12= 8.05D-14 1.04D-09 XBig12= 1.49D-14 5.11D-09.
      4 vectors produced by pass 61 Test12= 8.05D-14 1.04D-09 XBig12= 1.21D-14 6.14D-09.
      4 vectors produced by pass 62 Test12= 8.05D-14 1.04D-09 XBig12= 7.24D-15 3.57D-09.
      4 vectors produced by pass 63 Test12= 8.05D-14 1.04D-09 XBig12= 3.90D-15 2.69D-09.
      4 vectors produced by pass 64 Test12= 8.05D-14 1.04D-09 XBig12= 9.34D-15 4.23D-09.
      4 vectors produced by pass 65 Test12= 8.05D-14 1.04D-09 XBig12= 3.69D-15 2.62D-09.
      4 vectors produced by pass 66 Test12= 8.05D-14 1.04D-09 XBig12= 1.02D-14 4.94D-09.
      4 vectors produced by pass 67 Test12= 8.05D-14 1.04D-09 XBig12= 8.45D-15 3.68D-09.
      4 vectors produced by pass 68 Test12= 8.05D-14 1.04D-09 XBig12= 1.25D-14 6.12D-09.
      4 vectors produced by pass 69 Test12= 8.05D-14 1.04D-09 XBig12= 1.49D-14 4.98D-09.
      4 vectors produced by pass 70 Test12= 8.05D-14 1.04D-09 XBig12= 4.72D-15 2.91D-09.
      4 vectors produced by pass 71 Test12= 8.05D-14 1.04D-09 XBig12= 1.26D-14 6.75D-09.
      4 vectors produced by pass 72 Test12= 8.05D-14 1.04D-09 XBig12= 8.80D-15 4.65D-09.
      4 vectors produced by pass 73 Test12= 8.05D-14 1.04D-09 XBig12= 5.76D-15 3.10D-09.
      4 vectors produced by pass 74 Test12= 8.05D-14 1.04D-09 XBig12= 1.09D-14 4.19D-09.
      4 vectors produced by pass 75 Test12= 8.05D-14 1.04D-09 XBig12= 5.22D-15 2.96D-09.
      4 vectors produced by pass 76 Test12= 8.05D-14 1.04D-09 XBig12= 7.43D-15 3.59D-09.
      4 vectors produced by pass 77 Test12= 8.05D-14 1.04D-09 XBig12= 8.95D-15 4.56D-09.
      4 vectors produced by pass 78 Test12= 8.05D-14 1.04D-09 XBig12= 1.44D-14 4.62D-09.
      4 vectors produced by pass 79 Test12= 8.05D-14 1.04D-09 XBig12= 3.01D-15 2.21D-09.
      4 vectors produced by pass 80 Test12= 8.05D-14 1.04D-09 XBig12= 3.36D-15 2.52D-09.
      4 vectors produced by pass 81 Test12= 8.05D-14 1.04D-09 XBig12= 6.12D-15 3.65D-09.
      4 vectors produced by pass 82 Test12= 8.05D-14 1.04D-09 XBig12= 9.26D-15 4.98D-09.
      4 vectors produced by pass 83 Test12= 8.05D-14 1.04D-09 XBig12= 4.46D-15 3.27D-09.
      4 vectors produced by pass 84 Test12= 8.05D-14 1.04D-09 XBig12= 4.81D-15 3.17D-09.
      4 vectors produced by pass 85 Test12= 8.05D-14 1.04D-09 XBig12= 1.24D-14 4.33D-09.
      4 vectors produced by pass 86 Test12= 8.05D-14 1.04D-09 XBig12= 6.05D-15 3.11D-09.
      4 vectors produced by pass 87 Test12= 8.05D-14 1.04D-09 XBig12= 7.85D-15 4.04D-09.
      4 vectors produced by pass 88 Test12= 8.05D-14 1.04D-09 XBig12= 3.68D-15 2.31D-09.
      4 vectors produced by pass 89 Test12= 8.05D-14 1.04D-09 XBig12= 3.87D-15 2.17D-09.
      4 vectors produced by pass 90 Test12= 8.05D-14 1.04D-09 XBig12= 7.23D-15 3.78D-09.
      4 vectors produced by pass 91 Test12= 8.05D-14 1.04D-09 XBig12= 2.55D-15 2.74D-09.
      4 vectors produced by pass 92 Test12= 8.05D-14 1.04D-09 XBig12= 9.01D-15 4.48D-09.
      4 vectors produced by pass 93 Test12= 8.05D-14 1.04D-09 XBig12= 4.51D-15 3.65D-09.
      4 vectors produced by pass 94 Test12= 8.05D-14 1.04D-09 XBig12= 6.92D-15 3.99D-09.
      4 vectors produced by pass 95 Test12= 8.05D-14 1.04D-09 XBig12= 7.08D-15 4.29D-09.
      4 vectors produced by pass 96 Test12= 8.05D-14 1.04D-09 XBig12= 5.74D-15 3.35D-09.
      4 vectors produced by pass 97 Test12= 8.05D-14 1.04D-09 XBig12= 2.78D-15 2.41D-09.
      4 vectors produced by pass 98 Test12= 8.05D-14 1.04D-09 XBig12= 5.76D-15 3.64D-09.
      4 vectors produced by pass 99 Test12= 8.05D-14 1.04D-09 XBig12= 5.95D-15 3.34D-09.
      4 vectors produced by pass100 Test12= 8.05D-14 1.04D-09 XBig12= 7.42D-15 3.84D-09.
      4 vectors produced by pass101 Test12= 8.05D-14 1.04D-09 XBig12= 3.62D-15 2.38D-09.
      4 vectors produced by pass102 Test12= 8.05D-14 1.04D-09 XBig12= 6.92D-15 3.76D-09.
      4 vectors produced by pass103 Test12= 8.05D-14 1.04D-09 XBig12= 3.54D-15 2.89D-09.
      4 vectors produced by pass104 Test12= 8.05D-14 1.04D-09 XBig12= 5.60D-15 2.96D-09.
      4 vectors produced by pass105 Test12= 8.05D-14 1.04D-09 XBig12= 2.13D-15 2.04D-09.
      4 vectors produced by pass106 Test12= 8.05D-14 1.04D-09 XBig12= 2.84D-15 2.55D-09.
      4 vectors produced by pass107 Test12= 8.05D-14 1.04D-09 XBig12= 6.86D-15 3.32D-09.
      4 vectors produced by pass108 Test12= 8.05D-14 1.04D-09 XBig12= 4.22D-15 3.63D-09.
      4 vectors produced by pass109 Test12= 8.05D-14 1.04D-09 XBig12= 3.39D-15 2.71D-09.
      4 vectors produced by pass110 Test12= 8.05D-14 1.04D-09 XBig12= 5.03D-15 2.64D-09.
      4 vectors produced by pass111 Test12= 8.05D-14 1.04D-09 XBig12= 6.07D-15 3.25D-09.
      4 vectors produced by pass112 Test12= 8.05D-14 1.04D-09 XBig12= 2.51D-15 2.25D-09.
      4 vectors produced by pass113 Test12= 8.05D-14 1.04D-09 XBig12= 5.39D-15 3.47D-09.
      4 vectors produced by pass114 Test12= 8.05D-14 1.04D-09 XBig12= 2.58D-15 2.30D-09.
      4 vectors produced by pass115 Test12= 8.05D-14 1.04D-09 XBig12= 5.03D-15 2.95D-09.
      4 vectors produced by pass116 Test12= 8.05D-14 1.04D-09 XBig12= 1.27D-14 4.01D-09.
      4 vectors produced by pass117 Test12= 8.05D-14 1.04D-09 XBig12= 5.39D-15 3.08D-09.
      3 vectors produced by pass118 Test12= 8.05D-14 1.04D-09 XBig12= 1.47D-15 1.50D-09.
      3 vectors produced by pass119 Test12= 8.05D-14 1.04D-09 XBig12= 2.87D-15 2.11D-09.
      3 vectors produced by pass120 Test12= 8.05D-14 1.04D-09 XBig12= 2.55D-15 2.43D-09.
      3 vectors produced by pass121 Test12= 8.05D-14 1.04D-09 XBig12= 3.09D-15 2.19D-09.
      3 vectors produced by pass122 Test12= 8.05D-14 1.04D-09 XBig12= 3.53D-15 2.33D-09.
      3 vectors produced by pass123 Test12= 8.05D-14 1.04D-09 XBig12= 3.22D-15 2.52D-09.
      3 vectors produced by pass124 Test12= 8.05D-14 1.04D-09 XBig12= 2.38D-15 2.23D-09.
      3 vectors produced by pass125 Test12= 8.05D-14 1.04D-09 XBig12= 3.67D-15 2.97D-09.
      3 vectors produced by pass126 Test12= 8.05D-14 1.04D-09 XBig12= 3.11D-15 2.85D-09.
      3 vectors produced by pass127 Test12= 8.05D-14 1.04D-09 XBig12= 2.47D-15 2.30D-09.
      3 vectors produced by pass128 Test12= 8.05D-14 1.04D-09 XBig12= 3.26D-15 3.00D-09.
      3 vectors produced by pass129 Test12= 8.05D-14 1.04D-09 XBig12= 4.64D-15 2.66D-09.
      3 vectors produced by pass130 Test12= 8.05D-14 1.04D-09 XBig12= 2.50D-15 2.15D-09.
      3 vectors produced by pass131 Test12= 8.05D-14 1.04D-09 XBig12= 4.31D-15 2.59D-09.
      3 vectors produced by pass132 Test12= 8.05D-14 1.04D-09 XBig12= 3.63D-15 2.62D-09.
      3 vectors produced by pass133 Test12= 8.05D-14 1.04D-09 XBig12= 4.09D-15 2.90D-09.
      3 vectors produced by pass134 Test12= 8.05D-14 1.04D-09 XBig12= 2.49D-15 2.48D-09.
      3 vectors produced by pass135 Test12= 8.05D-14 1.04D-09 XBig12= 2.61D-15 2.16D-09.
      3 vectors produced by pass136 Test12= 8.05D-14 1.04D-09 XBig12= 3.96D-15 3.01D-09.
      3 vectors produced by pass137 Test12= 8.05D-14 1.04D-09 XBig12= 2.90D-15 2.26D-09.
      3 vectors produced by pass138 Test12= 8.05D-14 1.04D-09 XBig12= 2.93D-15 2.15D-09.
      3 vectors produced by pass139 Test12= 8.05D-14 1.04D-09 XBig12= 1.34D-15 1.59D-09.
      3 vectors produced by pass140 Test12= 8.05D-14 1.04D-09 XBig12= 3.30D-15 2.72D-09.
      3 vectors produced by pass141 Test12= 8.05D-14 1.04D-09 XBig12= 5.01D-15 2.86D-09.
      3 vectors produced by pass142 Test12= 8.05D-14 1.04D-09 XBig12= 2.10D-15 1.76D-09.
      3 vectors produced by pass143 Test12= 8.05D-14 1.04D-09 XBig12= 3.66D-15 2.31D-09.
      3 vectors produced by pass144 Test12= 8.05D-14 1.04D-09 XBig12= 3.68D-15 2.25D-09.
      3 vectors produced by pass145 Test12= 8.05D-14 1.04D-09 XBig12= 4.86D-15 3.46D-09.
      3 vectors produced by pass146 Test12= 8.05D-14 1.04D-09 XBig12= 3.96D-15 2.83D-09.
      3 vectors produced by pass147 Test12= 8.05D-14 1.04D-09 XBig12= 3.52D-15 2.27D-09.
      3 vectors produced by pass148 Test12= 8.05D-14 1.04D-09 XBig12= 2.19D-15 2.09D-09.
      3 vectors produced by pass149 Test12= 8.05D-14 1.04D-09 XBig12= 2.78D-15 2.77D-09.
      3 vectors produced by pass150 Test12= 8.05D-14 1.04D-09 XBig12= 2.56D-15 2.27D-09.
      3 vectors produced by pass151 Test12= 8.05D-14 1.04D-09 XBig12= 4.66D-15 3.15D-09.
      3 vectors produced by pass152 Test12= 8.05D-14 1.04D-09 XBig12= 2.83D-15 2.45D-09.
      3 vectors produced by pass153 Test12= 8.05D-14 1.04D-09 XBig12= 1.42D-15 1.59D-09.
      3 vectors produced by pass154 Test12= 8.05D-14 1.04D-09 XBig12= 1.84D-15 1.66D-09.
      3 vectors produced by pass155 Test12= 8.05D-14 1.04D-09 XBig12= 3.87D-15 2.39D-09.
      3 vectors produced by pass156 Test12= 8.05D-14 1.04D-09 XBig12= 1.83D-15 1.97D-09.
      3 vectors produced by pass157 Test12= 8.05D-14 1.04D-09 XBig12= 2.77D-15 2.34D-09.
      3 vectors produced by pass158 Test12= 8.05D-14 1.04D-09 XBig12= 4.28D-15 2.49D-09.
      3 vectors produced by pass159 Test12= 8.05D-14 1.04D-09 XBig12= 4.16D-15 2.30D-09.
      3 vectors produced by pass160 Test12= 8.05D-14 1.04D-09 XBig12= 1.96D-15 2.18D-09.
      3 vectors produced by pass161 Test12= 8.05D-14 1.04D-09 XBig12= 1.87D-15 1.68D-09.
      3 vectors produced by pass162 Test12= 8.05D-14 1.04D-09 XBig12= 4.76D-15 2.72D-09.
      3 vectors produced by pass163 Test12= 8.05D-14 1.04D-09 XBig12= 2.54D-15 2.37D-09.
      3 vectors produced by pass164 Test12= 8.05D-14 1.04D-09 XBig12= 2.43D-15 1.86D-09.
      3 vectors produced by pass165 Test12= 8.05D-14 1.04D-09 XBig12= 3.87D-15 2.53D-09.
      3 vectors produced by pass166 Test12= 8.05D-14 1.04D-09 XBig12= 4.52D-15 2.44D-09.
      3 vectors produced by pass167 Test12= 8.05D-14 1.04D-09 XBig12= 2.59D-15 1.89D-09.
      2 vectors produced by pass168 Test12= 8.05D-14 1.04D-09 XBig12= 2.15D-15 1.95D-09.
 InvSVY:  IOpt=1 It=  1 EMax= 1.07D-14
 Solved reduced A of dimension  1892 with    96 vectors.
 Isotropic polarizability for W=    0.000000      172.13 Bohr**3.
 End of Minotr F.D. properties file   721 does not exist.
 End of Minotr F.D. properties file   722 does not exist.
 End of Minotr F.D. properties file   788 does not exist.

 **********************************************************************

            Population analysis using the SCF density.

 **********************************************************************

 Orbital symmetries:
 Alpha Orbitals:
       Occupied  (A) (A) (A) (A) (A) (A) (A) (A) (A) (A) (A) (A)
                 (A) (A) (A) (A) (A) (A) (A) (A) (A) (A) (A) (A)
                 (A) (A) (A) (A) (A) (A) (A) (A) (A) (A) (A) (A)
                 (A) (A) (A) (A) (A) (A) (A) (A) (A) (A) (A) (A)
                 (A) (A) (A) (A) (A) (A) (A) (A) (A) (A) (A) (A)
                 (A) (A) (A) (A)
       Virtual   (A) (A) (A) (A) (A) (A) (A) (A) (A) (A) (A) (A)
                 (A) (A) (A) (A) (A) (A) (A) (A) (A) (A) (A) (A)
                 (A) (A) (A) (A) (A) (A) (A) (A) (A) (A) (A) (A)
                 (A) (A) (A) (A) (A) (A) (A) (A) (A) (A) (A) (A)
                 (A) (A) (A) (A) (A) (A) (A) (A) (A) (A) (A) (A)
                 (A) (A) (A) (A) (A) (A) (A) (A) (A) (A) (A) (A)
                 (A) (A) (A) (A) (A) (A) (A) (A) (A) (A) (A) (A)
                 (A) (A) (A) (A) (A) (A) (A) (A) (A) (A) (A) (A)
                 (A) (A) (A) (A) (A) (A) (A) (A) (A) (A) (A) (A)
                 (A) (A) (A) (A) (A) (A) (A) (A) (A) (A) (A) (A)
                 (A) (A) (A) (A) (A) (A) (A) (A) (A) (A) (A) (A)
                 (A) (A) (A) (A) (A) (A) (A) (A) (A) (A) (A) (A)
                 (A) (A) (A) (A) (A) (A) (A) (A) (A) (A) (A) (A)
                 (A) (A) (A) (A) (A) (A) (A) (A) (A) (A) (A) (A)
                 (A) (A) (A) (A) (A) (A) (A) (A) (A) (A) (A) (A)
                 (A) (A) (A) (A) (A) (A) (A) (A) (A) (A) (A) (A)
                 (A) (A) (A) (A) (A) (A) (A) (A) (A) (A) (A) (A)
                 (A) (A) (A) (A) (A) (A) (A) (A) (A) (A) (A) (A)
                 (A) (A) (A) (A) (A) (A) (A) (A) (A) (A) (A) (A)
                 (A) (A) (A) (A) (A) (A) (A) (A) (A) (A) (A) (A)
                 (A) (A) (A) (A) (A) (A) (A) (A) (A) (A) (A) (A)
                 (A) (A) (A) (A) (A) (A) (A) (A) (A) (A) (A) (A)
                 (A) (A) (A) (A) (A) (A) (A) (A) (A) (A) (A) (A)
                 (A) (A) (A) (A) (A) (A) (A) (A) (A) (A) (A) (A)
                 (A) (A) (A) (A) (A) (A) (A) (A) (A) (A) (A) (A)
                 (A) (A) (A) (A) (A) (A) (A) (A) (A) (A) (A) (A)
                 (A) (A) (A) (A) (A) (A) (A) (A) (A) (A) (A) (A)
                 (A) (A) (A) (A) (A) (A) (A) (A) (A) (A) (A) (A)
                 (A) (A) (A) (A) (A) (A) (A) (A) (A) (A) (A) (A)
                 (A) (A) (A) (A) (A) (A) (A) (A) (A) (A) (A) (A)
                 (A) (A) (A) (A) (A) (A) (A) (A) (A) (A) (A) (A)
                 (A) (A) (A) (A) (A) (A) (A) (A) (A) (A) (A) (A)
                 (A) (A) (A) (A) (A) (A) (A) (A) (A) (A) (A) (A)
                 (A) (A) (A) (A) (A) (A) (A) (A) (A) (A) (A) (A)
                 (A) (A) (A) (A) (A) (A) (A) (A) (A) (A) (A) (A)
                 (A) (A) (A) (A) (A) (A) (A) (A) (A) (A) (A) (A)
                 (A) (A) (A) (A) (A) (A) (A) (A) (A) (A) (A) (A)
                 (A) (A) (A) (A) (A) (A) (A) (A) (A) (A) (A) (A)
                 (A) (A) (A) (A) (A) (A) (A) (A) (A) (A) (A) (A)
                 (A) (A) (A) (A) (A) (A) (A) (A) (A) (A) (A) (A)
                 (A) (A) (A) (A) (A) (A) (A) (A) (A) (A) (A) (A)
                 (A) (A) (A) (A) (A) (A) (A) (A) (A) (A) (A) (A)
                 (A) (A) (A) (A) (A) (A) (A) (A) (A) (A) (A) (A)
                 (A) (A) (A) (A) (A) (A) (A) (A) (A) (A) (A) (A)
                 (A) (A) (A) (A) (A) (A) (A) (A) (A) (A) (A) (A)
                 (A) (A) (A) (A) (A) (A) (A) (A) (A) (A) (A) (A)
                 (A) (A) (A) (A) (A) (A) (A) (A) (A) (A) (A) (A)
                 (A) (A) (A) (A) (A) (A) (A) (A) (A) (A) (A) (A)
                 (A) (A) (A) (A) (A) (A) (A) (A) (A) (A) (A) (A)
                 (A) (A) (A) (A) (A) (A) (A) (A) (A) (A) (A) (A)
                 (A) (A) (A) (A) (A) (A) (A) (A) (A) (A) (A) (A)
 Beta  Orbitals:
       Occupied  (A) (A) (A) (A) (A) (A) (A) (A) (A) (A) (A) (A)
                 (A) (A) (A) (A) (A) (A) (A) (A) (A) (A) (A) (A)
                 (A) (A) (A) (A) (A) (A) (A) (A) (A) (A) (A) (A)
                 (A) (A) (A) (A) (A) (A) (A) (A) (A) (A) (A) (A)
                 (A) (A) (A) (A) (A) (A) (A) (A) (A) (A) (A) (A)
                 (A) (A)
       Virtual   (A) (A) (A) (A) (A) (A) (A) (A) (A) (A) (A) (A)
                 (A) (A) (A) (A) (A) (A) (A) (A) (A) (A) (A) (A)
                 (A) (A) (A) (A) (A) (A) (A) (A) (A) (A) (A) (A)
                 (A) (A) (A) (A) (A) (A) (A) (A) (A) (A) (A) (A)
                 (A) (A) (A) (A) (A) (A) (A) (A) (A) (A) (A) (A)
                 (A) (A) (A) (A) (A) (A) (A) (A) (A) (A) (A) (A)
                 (A) (A) (A) (A) (A) (A) (A) (A) (A) (A) (A) (A)
                 (A) (A) (A) (A) (A) (A) (A) (A) (A) (A) (A) (A)
                 (A) (A) (A) (A) (A) (A) (A) (A) (A) (A) (A) (A)
                 (A) (A) (A) (A) (A) (A) (A) (A) (A) (A) (A) (A)
                 (A) (A) (A) (A) (A) (A) (A) (A) (A) (A) (A) (A)
                 (A) (A) (A) (A) (A) (A) (A) (A) (A) (A) (A) (A)
                 (A) (A) (A) (A) (A) (A) (A) (A) (A) (A) (A) (A)
                 (A) (A) (A) (A) (A) (A) (A) (A) (A) (A) (A) (A)
                 (A) (A) (A) (A) (A) (A) (A) (A) (A) (A) (A) (A)
                 (A) (A) (A) (A) (A) (A) (A) (A) (A) (A) (A) (A)
                 (A) (A) (A) (A) (A) (A) (A) (A) (A) (A) (A) (A)
                 (A) (A) (A) (A) (A) (A) (A) (A) (A) (A) (A) (A)
                 (A) (A) (A) (A) (A) (A) (A) (A) (A) (A) (A) (A)
                 (A) (A) (A) (A) (A) (A) (A) (A) (A) (A) (A) (A)
                 (A) (A) (A) (A) (A) (A) (A) (A) (A) (A) (A) (A)
                 (A) (A) (A) (A) (A) (A) (A) (A) (A) (A) (A) (A)
                 (A) (A) (A) (A) (A) (A) (A) (A) (A) (A) (A) (A)
                 (A) (A) (A) (A) (A) (A) (A) (A) (A) (A) (A) (A)
                 (A) (A) (A) (A) (A) (A) (A) (A) (A) (A) (A) (A)
                 (A) (A) (A) (A) (A) (A) (A) (A) (A) (A) (A) (A)
                 (A) (A) (A) (A) (A) (A) (A) (A) (A) (A) (A) (A)
                 (A) (A) (A) (A) (A) (A) (A) (A) (A) (A) (A) (A)
                 (A) (A) (A) (A) (A) (A) (A) (A) (A) (A) (A) (A)
                 (A) (A) (A) (A) (A) (A) (A) (A) (A) (A) (A) (A)
                 (A) (A) (A) (A) (A) (A) (A) (A) (A) (A) (A) (A)
                 (A) (A) (A) (A) (A) (A) (A) (A) (A) (A) (A) (A)
                 (A) (A) (A) (A) (A) (A) (A) (A) (A) (A) (A) (A)
                 (A) (A) (A) (A) (A) (A) (A) (A) (A) (A) (A) (A)
                 (A) (A) (A) (A) (A) (A) (A) (A) (A) (A) (A) (A)
                 (A) (A) (A) (A) (A) (A) (A) (A) (A) (A) (A) (A)
                 (A) (A) (A) (A) (A) (A) (A) (A) (A) (A) (A) (A)
                 (A) (A) (A) (A) (A) (A) (A) (A) (A) (A) (A) (A)
                 (A) (A) (A) (A) (A) (A) (A) (A) (A) (A) (A) (A)
                 (A) (A) (A) (A) (A) (A) (A) (A) (A) (A) (A) (A)
                 (A) (A) (A) (A) (A) (A) (A) (A) (A) (A) (A) (A)
                 (A) (A) (A) (A) (A) (A) (A) (A) (A) (A) (A) (A)
                 (A) (A) (A) (A) (A) (A) (A) (A) (A) (A) (A) (A)
                 (A) (A) (A) (A) (A) (A) (A) (A) (A) (A) (A) (A)
                 (A) (A) (A) (A) (A) (A) (A) (A) (A) (A) (A) (A)
                 (A) (A) (A) (A) (A) (A) (A) (A) (A) (A) (A) (A)
                 (A) (A) (A) (A) (A) (A) (A) (A) (A) (A) (A) (A)
                 (A) (A) (A) (A) (A) (A) (A) (A) (A) (A) (A) (A)
                 (A) (A) (A) (A) (A) (A) (A) (A) (A) (A) (A) (A)
                 (A) (A) (A) (A) (A) (A) (A) (A) (A) (A) (A) (A)
                 (A) (A) (A) (A) (A) (A) (A) (A) (A) (A) (A) (A)
                 (A) (A)
 The electronic state is 3-A.
 Alpha  occ. eigenvalues --  -19.31366 -19.29970 -19.24237 -19.23076 -14.53964
 Alpha  occ. eigenvalues --  -14.48341 -10.44941 -10.43446 -10.34436 -10.34192
 Alpha  occ. eigenvalues --  -10.33443 -10.30322 -10.30170 -10.30049 -10.29996
 Alpha  occ. eigenvalues --  -10.29601 -10.28578  -1.24476  -1.22485  -1.15465
 Alpha  occ. eigenvalues --   -1.13113  -1.12463  -1.04202  -0.94999  -0.86774
 Alpha  occ. eigenvalues --   -0.84369  -0.83855  -0.81771  -0.80185  -0.71184
 Alpha  occ. eigenvalues --   -0.69940  -0.66384  -0.65663  -0.64974  -0.64433
 Alpha  occ. eigenvalues --   -0.64256  -0.61155  -0.60305  -0.58101  -0.57707
 Alpha  occ. eigenvalues --   -0.57453  -0.55986  -0.53370  -0.52718  -0.52285
 Alpha  occ. eigenvalues --   -0.51812  -0.50144  -0.48904  -0.47279  -0.46929
 Alpha  occ. eigenvalues --   -0.46073  -0.45257  -0.45127  -0.43812  -0.43192
 Alpha  occ. eigenvalues --   -0.40616  -0.40027  -0.39491  -0.38634  -0.38122
 Alpha  occ. eigenvalues --   -0.37512  -0.36492  -0.30565  -0.26841
 Alpha virt. eigenvalues --    0.04084   0.05256   0.05490   0.06111   0.06950
 Alpha virt. eigenvalues --    0.07211   0.07684   0.07800   0.08092   0.09006
 Alpha virt. eigenvalues --    0.09250   0.09360   0.09669   0.10148   0.10402
 Alpha virt. eigenvalues --    0.10721   0.10824   0.11389   0.12224   0.12521
 Alpha virt. eigenvalues --    0.13489   0.13624   0.13877   0.14015   0.14690
 Alpha virt. eigenvalues --    0.14868   0.14926   0.15125   0.15938   0.16079
 Alpha virt. eigenvalues --    0.16530   0.17160   0.17389   0.17820   0.17971
 Alpha virt. eigenvalues --    0.18295   0.18703   0.18965   0.19032   0.19334
 Alpha virt. eigenvalues --    0.19700   0.20157   0.20638   0.21060   0.21430
 Alpha virt. eigenvalues --    0.21757   0.22126   0.22883   0.22978   0.23164
 Alpha virt. eigenvalues --    0.23678   0.24124   0.24507   0.24588   0.24828
 Alpha virt. eigenvalues --    0.25148   0.25723   0.25830   0.26757   0.26811
 Alpha virt. eigenvalues --    0.27147   0.27241   0.27871   0.28116   0.28499
 Alpha virt. eigenvalues --    0.29044   0.29242   0.29576   0.30285   0.30588
 Alpha virt. eigenvalues --    0.30754   0.30999   0.31575   0.32040   0.32644
 Alpha virt. eigenvalues --    0.32917   0.33283   0.33438   0.34168   0.34286
 Alpha virt. eigenvalues --    0.34745   0.35147   0.35347   0.35470   0.36062
 Alpha virt. eigenvalues --    0.36709   0.37002   0.37735   0.38119   0.39087
 Alpha virt. eigenvalues --    0.39952   0.40360   0.40894   0.41504   0.42839
 Alpha virt. eigenvalues --    0.43132   0.43902   0.44134   0.44813   0.45046
 Alpha virt. eigenvalues --    0.45698   0.46118   0.46862   0.47400   0.47731
 Alpha virt. eigenvalues --    0.48510   0.48725   0.50403   0.50758   0.51123
 Alpha virt. eigenvalues --    0.51546   0.52034   0.53001   0.53864   0.54243
 Alpha virt. eigenvalues --    0.54811   0.54982   0.55520   0.55969   0.56620
 Alpha virt. eigenvalues --    0.56797   0.57229   0.57854   0.58337   0.58530
 Alpha virt. eigenvalues --    0.58620   0.59091   0.59609   0.60349   0.60636
 Alpha virt. eigenvalues --    0.60821   0.61045   0.61372   0.62064   0.62385
 Alpha virt. eigenvalues --    0.63043   0.63359   0.63731   0.64140   0.64584
 Alpha virt. eigenvalues --    0.64673   0.65935   0.66291   0.66819   0.66871
 Alpha virt. eigenvalues --    0.68288   0.68697   0.69515   0.70205   0.70700
 Alpha virt. eigenvalues --    0.71188   0.72485   0.73506   0.74877   0.75134
 Alpha virt. eigenvalues --    0.75305   0.76982   0.78533   0.79329   0.79698
 Alpha virt. eigenvalues --    0.80691   0.81068   0.81840   0.82166   0.82687
 Alpha virt. eigenvalues --    0.82951   0.84902   0.85701   0.87071   0.87634
 Alpha virt. eigenvalues --    0.88583   0.89362   0.90033   0.91354   0.92628
 Alpha virt. eigenvalues --    0.93143   0.94175   0.96410   0.96701   0.97778
 Alpha virt. eigenvalues --    0.97883   0.99523   0.99974   1.00910   1.02981
 Alpha virt. eigenvalues --    1.03853   1.04376   1.04583   1.06082   1.06986
 Alpha virt. eigenvalues --    1.08443   1.09087   1.09988   1.11771   1.12199
 Alpha virt. eigenvalues --    1.13680   1.14221   1.14996   1.15824   1.16980
 Alpha virt. eigenvalues --    1.17852   1.18378   1.19568   1.20509   1.20679
 Alpha virt. eigenvalues --    1.22289   1.23176   1.23557   1.24849   1.25307
 Alpha virt. eigenvalues --    1.26193   1.27790   1.29229   1.29561   1.30402
 Alpha virt. eigenvalues --    1.31304   1.31532   1.32389   1.33621   1.34760
 Alpha virt. eigenvalues --    1.35781   1.36519   1.38854   1.39180   1.40075
 Alpha virt. eigenvalues --    1.41207   1.41929   1.43682   1.44110   1.44853
 Alpha virt. eigenvalues --    1.48024   1.48378   1.49048   1.49565   1.51083
 Alpha virt. eigenvalues --    1.52418   1.54300   1.55099   1.56681   1.58722
 Alpha virt. eigenvalues --    1.59350   1.61140   1.62127   1.62169   1.63088
 Alpha virt. eigenvalues --    1.64194   1.64426   1.64960   1.65499   1.66006
 Alpha virt. eigenvalues --    1.67602   1.68361   1.69301   1.70175   1.71679
 Alpha virt. eigenvalues --    1.72080   1.72851   1.73735   1.74799   1.75259
 Alpha virt. eigenvalues --    1.76493   1.78835   1.79216   1.81284   1.81706
 Alpha virt. eigenvalues --    1.83406   1.85454   1.85562   1.87338   1.87881
 Alpha virt. eigenvalues --    1.88434   1.89509   1.91584   1.92642   1.93605
 Alpha virt. eigenvalues --    1.94757   1.97690   1.98420   2.00189   2.00553
 Alpha virt. eigenvalues --    2.02802   2.03378   2.06018   2.06183   2.07809
 Alpha virt. eigenvalues --    2.08295   2.08605   2.09451   2.11057   2.11426
 Alpha virt. eigenvalues --    2.13269   2.14087   2.14502   2.14798   2.16247
 Alpha virt. eigenvalues --    2.16676   2.17271   2.18453   2.20097   2.21481
 Alpha virt. eigenvalues --    2.22497   2.24266   2.24771   2.25747   2.26878
 Alpha virt. eigenvalues --    2.27236   2.28788   2.29406   2.31569   2.31846
 Alpha virt. eigenvalues --    2.33071   2.34167   2.35564   2.37580   2.39994
 Alpha virt. eigenvalues --    2.40803   2.41964   2.42638   2.44803   2.45175
 Alpha virt. eigenvalues --    2.45865   2.46503   2.46521   2.48303   2.49225
 Alpha virt. eigenvalues --    2.49981   2.51286   2.51906   2.52382   2.52918
 Alpha virt. eigenvalues --    2.53885   2.55132   2.55910   2.57048   2.57300
 Alpha virt. eigenvalues --    2.59480   2.59920   2.61915   2.63104   2.63161
 Alpha virt. eigenvalues --    2.64495   2.65049   2.65864   2.66691   2.67616
 Alpha virt. eigenvalues --    2.68285   2.68597   2.69491   2.71403   2.71796
 Alpha virt. eigenvalues --    2.73119   2.74627   2.76970   2.77601   2.78034
 Alpha virt. eigenvalues --    2.79052   2.80156   2.81149   2.83219   2.84187
 Alpha virt. eigenvalues --    2.84419   2.86047   2.87400   2.89496   2.89544
 Alpha virt. eigenvalues --    2.90493   2.91467   2.92606   2.93273   2.94210
 Alpha virt. eigenvalues --    2.95465   2.96762   2.97182   2.97704   2.98086
 Alpha virt. eigenvalues --    2.99545   3.01454   3.02277   3.02633   3.03330
 Alpha virt. eigenvalues --    3.04602   3.05395   3.08060   3.09046   3.10365
 Alpha virt. eigenvalues --    3.12403   3.12764   3.14068   3.14957   3.16334
 Alpha virt. eigenvalues --    3.17628   3.18626   3.19414   3.20214   3.21230
 Alpha virt. eigenvalues --    3.23263   3.23767   3.24299   3.24938   3.26509
 Alpha virt. eigenvalues --    3.26856   3.27909   3.29080   3.30292   3.31540
 Alpha virt. eigenvalues --    3.31698   3.32907   3.33430   3.34433   3.35126
 Alpha virt. eigenvalues --    3.35406   3.36029   3.36809   3.39001   3.39738
 Alpha virt. eigenvalues --    3.39868   3.40818   3.41116   3.41709   3.42241
 Alpha virt. eigenvalues --    3.43765   3.44768   3.45601   3.46375   3.47554
 Alpha virt. eigenvalues --    3.48249   3.48497   3.49502   3.49816   3.50915
 Alpha virt. eigenvalues --    3.52542   3.52956   3.54649   3.55918   3.56499
 Alpha virt. eigenvalues --    3.57443   3.57779   3.58534   3.60110   3.61676
 Alpha virt. eigenvalues --    3.64088   3.65011   3.65180   3.66090   3.66152
 Alpha virt. eigenvalues --    3.67189   3.67988   3.68073   3.69146   3.71327
 Alpha virt. eigenvalues --    3.72287   3.73648   3.73863   3.75198   3.77745
 Alpha virt. eigenvalues --    3.79562   3.81285   3.82477   3.84018   3.84335
 Alpha virt. eigenvalues --    3.86648   3.90074   3.91746   3.92620   3.94306
 Alpha virt. eigenvalues --    3.96844   3.98885   4.02246   4.02418   4.05559
 Alpha virt. eigenvalues --    4.07421   4.09283   4.11032   4.11705   4.12294
 Alpha virt. eigenvalues --    4.17314   4.18822   4.20033   4.23012   4.24598
 Alpha virt. eigenvalues --    4.26074   4.27673   4.28948   4.29980   4.30959
 Alpha virt. eigenvalues --    4.32194   4.32806   4.35554   4.35944   4.36914
 Alpha virt. eigenvalues --    4.38195   4.39457   4.40684   4.42557   4.42727
 Alpha virt. eigenvalues --    4.44018   4.46372   4.47597   4.49426   4.50210
 Alpha virt. eigenvalues --    4.51264   4.53647   4.55866   4.57644   4.58538
 Alpha virt. eigenvalues --    4.59848   4.61849   4.63663   4.65406   4.70547
 Alpha virt. eigenvalues --    4.72129   4.76538   4.76946   4.79254   4.80397
 Alpha virt. eigenvalues --    4.85410   4.87706   4.89871   4.90649   4.93399
 Alpha virt. eigenvalues --    4.96426   4.99262   5.01352   5.05338   5.07637
 Alpha virt. eigenvalues --    5.08454   5.09162   5.11920   5.12006   5.13929
 Alpha virt. eigenvalues --    5.15214   5.17024   5.19487   5.21129   5.22171
 Alpha virt. eigenvalues --    5.24326   5.25278   5.27396   5.29042   5.30537
 Alpha virt. eigenvalues --    5.35802   5.39162   5.41113   5.42746   5.45405
 Alpha virt. eigenvalues --    5.47167   5.52716   5.58335   5.61138   5.62852
 Alpha virt. eigenvalues --    5.64792   5.70691   5.77883   5.79718   5.80385
 Alpha virt. eigenvalues --    5.81024   5.81668   5.84783   5.94540   6.00744
 Alpha virt. eigenvalues --    6.10301   6.12522   6.13284   6.18262   6.27009
 Alpha virt. eigenvalues --    6.29769   6.33403   6.35192   6.41157   6.45451
 Alpha virt. eigenvalues --    6.47542   6.49473   6.56068   6.59359   6.63222
 Alpha virt. eigenvalues --    6.64381   6.76193   6.78603   6.86786   6.88217
 Alpha virt. eigenvalues --    6.89880   6.92291   6.99693   7.00773   7.07266
 Alpha virt. eigenvalues --    7.09693   7.15339   7.16654   7.20289   7.31744
 Alpha virt. eigenvalues --    7.32249   7.43960   7.48334   7.55371   7.58744
 Alpha virt. eigenvalues --   22.50767  22.55897  22.57574  22.68978  22.75487
 Alpha virt. eigenvalues --   22.82152  22.86536  22.93582  22.98985  23.62785
 Alpha virt. eigenvalues --   23.72977  32.60931  33.07015  44.16747  44.21704
 Alpha virt. eigenvalues --   44.33500  44.38127
  Beta  occ. eigenvalues --  -19.31323 -19.29899 -19.24129 -19.22974 -14.53452
  Beta  occ. eigenvalues --  -14.47172 -10.44952 -10.43464 -10.34389 -10.34194
  Beta  occ. eigenvalues --  -10.33436 -10.30234 -10.30195 -10.30131 -10.29832
  Beta  occ. eigenvalues --  -10.28496 -10.28495  -1.24153  -1.22162  -1.14698
  Beta  occ. eigenvalues --   -1.12438  -1.11882  -1.03520  -0.93179  -0.86207
  Beta  occ. eigenvalues --   -0.84003  -0.83469  -0.80243  -0.79438  -0.70527
  Beta  occ. eigenvalues --   -0.69280  -0.65966  -0.65244  -0.64593  -0.64101
  Beta  occ. eigenvalues --   -0.63240  -0.60243  -0.59575  -0.57615  -0.57332
  Beta  occ. eigenvalues --   -0.57116  -0.55388  -0.53153  -0.52366  -0.51388
  Beta  occ. eigenvalues --   -0.51103  -0.49309  -0.48200  -0.46729  -0.45917
  Beta  occ. eigenvalues --   -0.45695  -0.45038  -0.44024  -0.43094  -0.41190
  Beta  occ. eigenvalues --   -0.39913  -0.39389  -0.39033  -0.37860  -0.37361
  Beta  occ. eigenvalues --   -0.36771  -0.35098
  Beta virt. eigenvalues --   -0.03857   0.00906   0.04406   0.05344   0.05724
  Beta virt. eigenvalues --    0.06587   0.07048   0.07327   0.07862   0.07936
  Beta virt. eigenvalues --    0.08500   0.09224   0.09436   0.09792   0.09950
  Beta virt. eigenvalues --    0.10408   0.10735   0.11045   0.11790   0.11933
  Beta virt. eigenvalues --    0.12476   0.12652   0.13577   0.13797   0.14081
  Beta virt. eigenvalues --    0.14447   0.14872   0.15066   0.15250   0.15650
  Beta virt. eigenvalues --    0.16176   0.16314   0.16833   0.17293   0.17707
  Beta virt. eigenvalues --    0.18031   0.18214   0.18450   0.19018   0.19106
  Beta virt. eigenvalues --    0.19185   0.19449   0.20000   0.20456   0.20845
  Beta virt. eigenvalues --    0.21442   0.21666   0.22182   0.22286   0.22998
  Beta virt. eigenvalues --    0.23235   0.23350   0.23919   0.24328   0.24690
  Beta virt. eigenvalues --    0.24901   0.25101   0.25451   0.25899   0.25975
  Beta virt. eigenvalues --    0.26915   0.26935   0.27375   0.27516   0.27986
  Beta virt. eigenvalues --    0.28243   0.28767   0.29229   0.29397   0.29995
  Beta virt. eigenvalues --    0.30590   0.30773   0.31064   0.31307   0.31768
  Beta virt. eigenvalues --    0.32354   0.32789   0.33284   0.33437   0.33701
  Beta virt. eigenvalues --    0.34359   0.34446   0.34949   0.35255   0.35619
  Beta virt. eigenvalues --    0.35774   0.36189   0.37039   0.37229   0.37890
  Beta virt. eigenvalues --    0.38349   0.39299   0.40390   0.40518   0.41154
  Beta virt. eigenvalues --    0.41968   0.43190   0.43367   0.44121   0.44289
  Beta virt. eigenvalues --    0.45074   0.45538   0.45790   0.46516   0.47061
  Beta virt. eigenvalues --    0.47573   0.47893   0.48655   0.48856   0.50732
  Beta virt. eigenvalues --    0.50887   0.51362   0.51867   0.52537   0.53319
  Beta virt. eigenvalues --    0.53928   0.54407   0.54945   0.55220   0.55737
  Beta virt. eigenvalues --    0.56153   0.56846   0.56950   0.57573   0.58022
  Beta virt. eigenvalues --    0.58443   0.58637   0.58784   0.59256   0.59794
  Beta virt. eigenvalues --    0.60497   0.60813   0.60983   0.61388   0.61540
  Beta virt. eigenvalues --    0.62174   0.62499   0.63216   0.63483   0.63894
  Beta virt. eigenvalues --    0.64316   0.64854   0.64879   0.66067   0.66534
  Beta virt. eigenvalues --    0.66916   0.67194   0.68706   0.68961   0.69725
  Beta virt. eigenvalues --    0.70531   0.70969   0.71616   0.72643   0.73656
  Beta virt. eigenvalues --    0.75099   0.75232   0.75599   0.77191   0.78635
  Beta virt. eigenvalues --    0.79391   0.79807   0.80863   0.81128   0.81992
  Beta virt. eigenvalues --    0.82259   0.82961   0.83193   0.85119   0.85835
  Beta virt. eigenvalues --    0.87183   0.87768   0.88730   0.89524   0.90555
  Beta virt. eigenvalues --    0.91590   0.93036   0.93603   0.94384   0.96631
  Beta virt. eigenvalues --    0.96969   0.97901   0.98493   0.99853   1.00103
  Beta virt. eigenvalues --    1.01215   1.03166   1.04036   1.04688   1.04738
  Beta virt. eigenvalues --    1.06273   1.07157   1.08631   1.09358   1.10210
  Beta virt. eigenvalues --    1.11948   1.12560   1.13984   1.14472   1.15415
  Beta virt. eigenvalues --    1.16112   1.17283   1.18027   1.18685   1.19978
  Beta virt. eigenvalues --    1.20609   1.21360   1.22403   1.23548   1.23934
  Beta virt. eigenvalues --    1.25128   1.25660   1.26633   1.28020   1.29351
  Beta virt. eigenvalues --    1.29843   1.30601   1.31495   1.32089   1.32693
  Beta virt. eigenvalues --    1.34008   1.35085   1.36078   1.36840   1.39207
  Beta virt. eigenvalues --    1.39487   1.40337   1.41616   1.42125   1.43952
  Beta virt. eigenvalues --    1.44399   1.45113   1.48338   1.48728   1.49666
  Beta virt. eigenvalues --    1.49885   1.51693   1.52847   1.54757   1.55611
  Beta virt. eigenvalues --    1.56873   1.58918   1.59420   1.61352   1.62306
  Beta virt. eigenvalues --    1.62482   1.63330   1.64394   1.64549   1.65355
  Beta virt. eigenvalues --    1.65836   1.66647   1.67712   1.68449   1.69648
  Beta virt. eigenvalues --    1.70471   1.72046   1.72667   1.73228   1.74187
  Beta virt. eigenvalues --    1.74941   1.75515   1.76946   1.79330   1.79535
  Beta virt. eigenvalues --    1.81661   1.82293   1.84071   1.85807   1.85958
  Beta virt. eigenvalues --    1.87870   1.88237   1.88787   1.89921   1.92043
  Beta virt. eigenvalues --    1.92952   1.94069   1.95616   1.98066   1.98992
  Beta virt. eigenvalues --    2.00692   2.01107   2.03253   2.03549   2.06257
  Beta virt. eigenvalues --    2.06685   2.08018   2.08466   2.08955   2.09875
  Beta virt. eigenvalues --    2.11411   2.11652   2.13472   2.14269   2.14751
  Beta virt. eigenvalues --    2.15074   2.16525   2.17006   2.17635   2.18739
  Beta virt. eigenvalues --    2.20342   2.21808   2.22816   2.24489   2.24998
  Beta virt. eigenvalues --    2.26107   2.27318   2.27822   2.29282   2.30116
  Beta virt. eigenvalues --    2.32069   2.32468   2.33654   2.34603   2.36492
  Beta virt. eigenvalues --    2.37914   2.40663   2.41385   2.42252   2.42753
  Beta virt. eigenvalues --    2.45108   2.45375   2.46094   2.46633   2.46818
  Beta virt. eigenvalues --    2.48746   2.49388   2.50362   2.51557   2.52390
  Beta virt. eigenvalues --    2.52718   2.53209   2.54446   2.55484   2.56118
  Beta virt. eigenvalues --    2.57361   2.57794   2.59734   2.60355   2.62294
  Beta virt. eigenvalues --    2.63347   2.63791   2.64894   2.65184   2.66120
  Beta virt. eigenvalues --    2.66926   2.67869   2.68638   2.68840   2.70064
  Beta virt. eigenvalues --    2.71622   2.72280   2.73416   2.74984   2.77363
  Beta virt. eigenvalues --    2.78058   2.78357   2.79627   2.80797   2.81635
  Beta virt. eigenvalues --    2.83708   2.84501   2.84900   2.86419   2.87584
  Beta virt. eigenvalues --    2.89748   2.89869   2.90941   2.91812   2.92831
  Beta virt. eigenvalues --    2.93798   2.94875   2.95926   2.97442   2.97689
  Beta virt. eigenvalues --    2.98265   2.98888   3.00651   3.02007   3.02559
  Beta virt. eigenvalues --    3.03142   3.03848   3.05097   3.05931   3.08630
  Beta virt. eigenvalues --    3.09616   3.10813   3.12824   3.13036   3.14497
  Beta virt. eigenvalues --    3.15396   3.16801   3.17878   3.18948   3.19679
  Beta virt. eigenvalues --    3.20575   3.21558   3.23594   3.24423   3.24831
  Beta virt. eigenvalues --    3.25250   3.26857   3.27016   3.28264   3.29447
  Beta virt. eigenvalues --    3.30894   3.31894   3.32324   3.33142   3.33741
  Beta virt. eigenvalues --    3.34828   3.35588   3.35961   3.36434   3.37153
  Beta virt. eigenvalues --    3.39390   3.40084   3.40377   3.41410   3.41489
  Beta virt. eigenvalues --    3.42093   3.42647   3.44359   3.45258   3.45910
  Beta virt. eigenvalues --    3.46758   3.47950   3.48568   3.48937   3.50208
  Beta virt. eigenvalues --    3.50596   3.51466   3.52791   3.53167   3.55077
  Beta virt. eigenvalues --    3.56503   3.56715   3.57775   3.58464   3.58930
  Beta virt. eigenvalues --    3.60608   3.62126   3.64637   3.65282   3.65581
  Beta virt. eigenvalues --    3.66303   3.66581   3.67518   3.68321   3.68814
  Beta virt. eigenvalues --    3.69703   3.71641   3.72790   3.74051   3.74534
  Beta virt. eigenvalues --    3.75629   3.78577   3.80082   3.82039   3.83131
  Beta virt. eigenvalues --    3.84473   3.85353   3.87370   3.90573   3.92346
  Beta virt. eigenvalues --    3.93129   3.95100   3.97713   3.99398   4.02919
  Beta virt. eigenvalues --    4.03196   4.06307   4.08529   4.09864   4.11705
  Beta virt. eigenvalues --    4.12287   4.13211   4.18086   4.19704   4.20871
  Beta virt. eigenvalues --    4.23416   4.25453   4.26586   4.28093   4.29281
  Beta virt. eigenvalues --    4.30170   4.31562   4.32582   4.33201   4.36041
  Beta virt. eigenvalues --    4.36236   4.37531   4.38745   4.39991   4.40993
  Beta virt. eigenvalues --    4.42864   4.43427   4.44491   4.47091   4.48147
  Beta virt. eigenvalues --    4.49941   4.50816   4.51550   4.54031   4.56310
  Beta virt. eigenvalues --    4.58070   4.58837   4.60267   4.62360   4.64050
  Beta virt. eigenvalues --    4.65808   4.71258   4.72631   4.76957   4.77965
  Beta virt. eigenvalues --    4.80056   4.80831   4.85875   4.88239   4.90527
  Beta virt. eigenvalues --    4.93171   4.94247   4.97854   5.00448   5.03058
  Beta virt. eigenvalues --    5.06342   5.08526   5.09186   5.10847   5.13052
  Beta virt. eigenvalues --    5.13389   5.14994   5.16083   5.17791   5.20295
  Beta virt. eigenvalues --    5.22588   5.23342   5.24800   5.26029   5.28105
  Beta virt. eigenvalues --    5.29785   5.31576   5.36461   5.39714   5.41435
  Beta virt. eigenvalues --    5.43534   5.46283   5.47971   5.53138   5.58781
  Beta virt. eigenvalues --    5.61367   5.63188   5.65600   5.71280   5.79144
  Beta virt. eigenvalues --    5.80176   5.81056   5.81571   5.81957   5.85109
  Beta virt. eigenvalues --    5.94919   6.01055   6.10593   6.12841   6.13673
  Beta virt. eigenvalues --    6.18595   6.27255   6.30097   6.33781   6.35713
  Beta virt. eigenvalues --    6.41481   6.45818   6.47847   6.49813   6.56242
  Beta virt. eigenvalues --    6.59556   6.63524   6.64735   6.76365   6.78796
  Beta virt. eigenvalues --    6.86969   6.88445   6.90048   6.92529   6.99955
  Beta virt. eigenvalues --    7.01205   7.07516   7.09925   7.15757   7.16936
  Beta virt. eigenvalues --    7.20808   7.31912   7.32410   7.44157   7.48418
  Beta virt. eigenvalues --    7.55574   7.58836  22.51954  22.55953  22.57586
  Beta virt. eigenvalues --   22.68991  22.75605  22.82339  22.86950  22.93695
  Beta virt. eigenvalues --   22.99155  23.62783  23.72981  32.62398  33.07594
  Beta virt. eigenvalues --   44.16847  44.21798  44.33555  44.38179
          Condensed to atoms (all electrons):
               1          2          3          4          5          6
     1  C    5.962001   0.319694  -0.639517   0.290133   0.372979  -0.009406
     2  C    0.319694   5.779331  -0.199060  -0.205487  -0.014230   0.012185
     3  C   -0.639517  -0.199060   6.021711   0.120488   0.037645  -0.075276
     4  C    0.290133  -0.205487   0.120488   6.062732  -0.013588   0.459421
     5  H    0.372979  -0.014230   0.037645  -0.013588   0.521455  -0.003804
     6  H   -0.009406   0.012185  -0.075276   0.459421  -0.003804   0.500039
     7  C   -0.343844   0.258657   0.489666  -0.488221   0.014648  -0.009657
     8  H    0.016264  -0.025665  -0.032403   0.023013  -0.000042   0.000037
     9  H    0.003011  -0.059351  -0.039058  -0.014968  -0.000384  -0.000097
    10  C    0.196796   0.152505  -0.377213   0.028216  -0.028455   0.016732
    11  H    0.014867  -0.048941   0.006817   0.029478  -0.000048  -0.000008
    12  C   -0.167457  -0.259966   0.324861   0.328451  -0.008785  -0.026591
    13  H    0.020273   0.023875  -0.043695  -0.041704   0.000114  -0.004101
    14  H   -0.009479   0.417530   0.013891   0.019815   0.000220  -0.000015
    15  H   -0.013291  -0.012398   0.471078  -0.029089  -0.000048  -0.004176
    16  N    0.713684  -0.369195  -0.482886   0.272795  -0.051565   0.019544
    17  N   -0.675690   0.219885   0.532332  -0.457104   0.009785  -0.013238
    18  C    0.013872   0.049216   0.019686  -0.102063   0.006364  -0.013038
    19  C   -0.192205  -0.024737   0.031283   0.018659   0.001260   0.000114
    20  O    0.028519   0.007490   0.000995   0.006713  -0.003565   0.000301
    21  O    0.005507   0.001078  -0.022005   0.015473   0.000048  -0.001251
    22  O   -0.011975  -0.000602   0.014875  -0.005369   0.002303  -0.000754
    23  O    0.007058  -0.034674   0.017501   0.043069  -0.002607  -0.007470
    24  C    0.007217  -0.004891   0.000183   0.011315  -0.000364   0.000520
    25  H    0.007591   0.001191  -0.004261  -0.005239  -0.000002  -0.000607
    26  H   -0.003632  -0.001693   0.001876   0.004640   0.000008   0.000224
    27  H    0.001664   0.001968  -0.000742   0.006054  -0.000064  -0.000148
    28  C    0.015626   0.005813  -0.010231  -0.001926  -0.002725   0.000219
    29  H    0.014102  -0.005889   0.000380   0.002971   0.000058   0.000000
    30  H   -0.004117   0.013088  -0.001173  -0.001949  -0.000020   0.000000
    31  H   -0.007639  -0.006081   0.000036  -0.000741  -0.000017   0.000000
               7          8          9         10         11         12
     1  C   -0.343844   0.016264   0.003011   0.196796   0.014867  -0.167457
     2  C    0.258657  -0.025665  -0.059351   0.152505  -0.048941  -0.259966
     3  C    0.489666  -0.032403  -0.039058  -0.377213   0.006817   0.324861
     4  C   -0.488221   0.023013  -0.014968   0.028216   0.029478   0.328451
     5  H    0.014648  -0.000042  -0.000384  -0.028455  -0.000048  -0.008785
     6  H   -0.009657   0.000037  -0.000097   0.016732  -0.000008  -0.026591
     7  C    6.070630   0.419809   0.426951  -0.503627  -0.020591  -0.338028
     8  H    0.419809   0.507831  -0.016253  -0.022151  -0.000055  -0.014289
     9  H    0.426951  -0.016253   0.487824   0.026605  -0.000057   0.016329
    10  C   -0.503627  -0.022151   0.026605   6.052254   0.429764   0.415330
    11  H   -0.020591  -0.000055  -0.000057   0.429764   0.465849  -0.037225
    12  C   -0.338028  -0.014289   0.016329   0.415330  -0.037225   5.561182
    13  H    0.015202  -0.000003   0.000081  -0.032585  -0.003020   0.427801
    14  H   -0.055098  -0.001468   0.000172  -0.016461  -0.001825   0.022934
    15  H   -0.012515  -0.001548  -0.002483   0.003058   0.000106  -0.032930
    16  N   -0.078806   0.006244   0.026394   0.155879   0.001149   0.002359
    17  N    0.406060  -0.005599  -0.025912  -0.247077  -0.002097  -0.083623
    18  C    0.017180   0.001383  -0.002736  -0.008669   0.000437  -0.060207
    19  C    0.080992   0.002119   0.001293  -0.060324  -0.000548  -0.010156
    20  O   -0.012826   0.000082  -0.000757   0.002091   0.000025   0.003510
    21  O   -0.022343   0.000009   0.000121   0.004987   0.000002   0.008789
    22  O    0.002650  -0.000451  -0.000832  -0.001501  -0.000237  -0.000073
    23  O   -0.008331  -0.000022   0.000743   0.006369   0.000003   0.030634
    24  C   -0.005098   0.000040   0.000546   0.001728   0.000001   0.006397
    25  H   -0.000530   0.000000  -0.000001   0.000725   0.000000  -0.000327
    26  H    0.000293   0.000000   0.000001  -0.000077   0.000000   0.000727
    27  H   -0.001107   0.000001   0.000000  -0.000184   0.000000  -0.002166
    28  C   -0.021607  -0.000010   0.000331   0.018350  -0.000261   0.003316
    29  H   -0.000582   0.000000   0.000001   0.000196   0.000000   0.000981
    30  H   -0.003247  -0.000001  -0.000015   0.001617  -0.000001  -0.000748
    31  H    0.002121   0.000000   0.000002  -0.000548   0.000000  -0.000125
              13         14         15         16         17         18
     1  C    0.020273  -0.009479  -0.013291   0.713684  -0.675690   0.013872
     2  C    0.023875   0.417530  -0.012398  -0.369195   0.219885   0.049216
     3  C   -0.043695   0.013891   0.471078  -0.482886   0.532332   0.019686
     4  C   -0.041704   0.019815  -0.029089   0.272795  -0.457104  -0.102063
     5  H    0.000114   0.000220  -0.000048  -0.051565   0.009785   0.006364
     6  H   -0.004101  -0.000015  -0.004176   0.019544  -0.013238  -0.013038
     7  C    0.015202  -0.055098  -0.012515  -0.078806   0.406060   0.017180
     8  H   -0.000003  -0.001468  -0.001548   0.006244  -0.005599   0.001383
     9  H    0.000081   0.000172  -0.002483   0.026394  -0.025912  -0.002736
    10  C   -0.032585  -0.016461   0.003058   0.155879  -0.247077  -0.008669
    11  H   -0.003020  -0.001825   0.000106   0.001149  -0.002097   0.000437
    12  C    0.427801   0.022934  -0.032930   0.002359  -0.083623  -0.060207
    13  H    0.482891   0.000031  -0.002959  -0.000982  -0.000157   0.001799
    14  H    0.000031   0.472627   0.000022   0.002548  -0.020869   0.000527
    15  H   -0.002959   0.000022   0.476560   0.003891   0.000357  -0.004293
    16  N   -0.000982   0.002548   0.003891   9.620289  -2.407655  -0.103410
    17  N   -0.000157  -0.020869   0.000357  -2.407655   9.518189   0.254841
    18  C    0.001799   0.000527  -0.004293  -0.103410   0.254841   5.091091
    19  C   -0.000188  -0.008823   0.000220  -0.196971   0.493002  -0.108113
    20  O   -0.000009   0.000305   0.000030  -0.007584  -0.103909  -0.020978
    21  O    0.000075  -0.000040  -0.002288  -0.043297   0.001867   0.460941
    22  O    0.000005  -0.003376   0.000087  -0.097373  -0.055465  -0.007951
    23  O    0.000250   0.000166  -0.000229   0.108070  -0.206035   0.152557
    24  C   -0.000324   0.000014   0.000543   0.040293  -0.017509  -0.097802
    25  H   -0.000001   0.000000   0.000004   0.004212  -0.007467   0.021301
    26  H    0.000000   0.000000  -0.000011   0.008234  -0.009722  -0.028976
    27  H    0.000012   0.000000   0.000027  -0.006427   0.014452  -0.013306
    28  C    0.000057  -0.000803  -0.000076   0.016793  -0.020945  -0.014400
    29  H    0.000000   0.000070   0.000000   0.003609  -0.003106   0.000054
    30  H    0.000000   0.000259   0.000000  -0.008321   0.002577   0.000804
    31  H    0.000000  -0.000078   0.000000   0.006549   0.005280  -0.000914
              19         20         21         22         23         24
     1  C   -0.192205   0.028519   0.005507  -0.011975   0.007058   0.007217
     2  C   -0.024737   0.007490   0.001078  -0.000602  -0.034674  -0.004891
     3  C    0.031283   0.000995  -0.022005   0.014875   0.017501   0.000183
     4  C    0.018659   0.006713   0.015473  -0.005369   0.043069   0.011315
     5  H    0.001260  -0.003565   0.000048   0.002303  -0.002607  -0.000364
     6  H    0.000114   0.000301  -0.001251  -0.000754  -0.007470   0.000520
     7  C    0.080992  -0.012826  -0.022343   0.002650  -0.008331  -0.005098
     8  H    0.002119   0.000082   0.000009  -0.000451  -0.000022   0.000040
     9  H    0.001293  -0.000757   0.000121  -0.000832   0.000743   0.000546
    10  C   -0.060324   0.002091   0.004987  -0.001501   0.006369   0.001728
    11  H   -0.000548   0.000025   0.000002  -0.000237   0.000003   0.000001
    12  C   -0.010156   0.003510   0.008789  -0.000073   0.030634   0.006397
    13  H   -0.000188  -0.000009   0.000075   0.000005   0.000250  -0.000324
    14  H   -0.008823   0.000305  -0.000040  -0.003376   0.000166   0.000014
    15  H    0.000220   0.000030  -0.002288   0.000087  -0.000229   0.000543
    16  N   -0.196971  -0.007584  -0.043297  -0.097373   0.108070   0.040293
    17  N    0.493002  -0.103909   0.001867  -0.055465  -0.206035  -0.017509
    18  C   -0.108113  -0.020978   0.460941  -0.007951   0.152557  -0.097802
    19  C    4.936280   0.513391   0.008244   0.272098  -0.016666   0.002096
    20  O    0.513391   8.158527   0.001659  -0.140585  -0.000175   0.001146
    21  O    0.008244   0.001659   8.181496  -0.000378  -0.155970  -0.006791
    22  O    0.272098  -0.140585  -0.000378   8.189890  -0.003200  -0.001651
    23  O   -0.016666  -0.000175  -0.155970  -0.003200   8.257846   0.145777
    24  C    0.002096   0.001146  -0.006791  -0.001651   0.145777   4.910407
    25  H   -0.001761  -0.000002   0.005075   0.000007  -0.067584   0.419957
    26  H    0.000287  -0.000066  -0.002944  -0.000013  -0.022868   0.431866
    27  H    0.001432   0.000063  -0.008105  -0.000018  -0.024467   0.407888
    28  C   -0.055551  -0.012179   0.000423   0.168645  -0.000042   0.000564
    29  H    0.002169   0.005676   0.000003  -0.070002  -0.000014   0.000012
    30  H   -0.007541  -0.006736  -0.000012  -0.018365  -0.000020   0.000006
    31  H   -0.003649  -0.005853   0.000001  -0.031832   0.000132  -0.000031
              25         26         27         28         29         30
     1  C    0.007591  -0.003632   0.001664   0.015626   0.014102  -0.004117
     2  C    0.001191  -0.001693   0.001968   0.005813  -0.005889   0.013088
     3  C   -0.004261   0.001876  -0.000742  -0.010231   0.000380  -0.001173
     4  C   -0.005239   0.004640   0.006054  -0.001926   0.002971  -0.001949
     5  H   -0.000002   0.000008  -0.000064  -0.002725   0.000058  -0.000020
     6  H   -0.000607   0.000224  -0.000148   0.000219   0.000000   0.000000
     7  C   -0.000530   0.000293  -0.001107  -0.021607  -0.000582  -0.003247
     8  H    0.000000   0.000000   0.000001  -0.000010   0.000000  -0.000001
[...]
 000090,-0.00001426,0.00000196,-0.00002822,-0.00003211,0.00002448,0.000
 00295,-0.00001914,-0.00000339,-0.00000189,0.00000375,-0.00000068,-0.00
 000372,0.00001344,0.00000063,-0.00043856,-0.00001255,-0.00069924,-0.00
 035748,-0.00001552,0.00011897,-0.00009226,0.00072996,0.00216891,0.0005
 8758,-0.00021500,-0.00000239,-0.00016391,0.00014754,-0.00004342,-0.000
 72475,-0.00026834,-0.00017291,-0.00024397,-0.00004557,0.00010980,-0.00
 463986,-0.00329697,-0.01079497,0.02227367,-0.05625105,-0.31580390,-0.0
 1898069,0.06316354,0.33892215,0.00007716,0.00036037,-0.00002340,0.0000
 5948,-0.00000452,0.00005368,0.00003241,0.00006930,0.00002556,0.0000078
 6,-0.00024210,0.00004164,0.00001540,-0.00003789,0.00001029,-0.00023339
 ,-0.00003975,-0.00009435,-0.00000126,0.00001383,-0.00002296,0.00000647
 ,-0.00001598,-0.00000195,0.00000860,0.00000709,0.00002378,-0.00000352,
 -0.00003245,-0.00000205,-0.00000341,-0.00001299,0.00000136,-0.00003926
 ,-0.00004376,0.00002949,-0.00000177,-0.00003363,-0.00000573,0.00000068
 ,0.00000266,-0.00000146,-0.00000682,-0.00001213,-0.00002691,-0.0009897
 0,0.00066253,-0.00082483,0.00009678,0.00001183,-0.00029425,-0.00009511
 ,0.00082360,0.00826766,0.00063303,-0.00021876,0.00002012,-0.00021379,0
 .00017390,-0.00003954,0.00164246,-0.00019950,-0.00210365,-0.00026574,-
 0.00003961,0.00009870,-0.03036653,-0.02951306,0.00659398,-0.08721879,-
 0.07559661,0.05056228,0.00072160,-0.00117572,0.00180075,0.10702824,0.0
 0005139,-0.00008025,-0.00004369,-0.00004384,0.00002908,-0.00001650,-0.
 00003005,0.00004828,0.00000087,0.00004015,0.00013840,0.00006457,0.0000
 0871,0.00000720,-0.00000177,0.00018321,0.00020583,-0.00005148,0.000005
 56,-0.00003167,0.00000462,-0.00001361,-0.00000651,-0.00001152,-0.00000
 598,0.00000815,-0.00000410,0.00002552,-0.00000154,-0.00000297,-0.00001
 137,-0.00000611,-0.00000440,-0.00004160,-0.00000184,0.00000993,0.00000
 145,0.00000976,0.00000201,-0.00001006,-0.00001184,-0.00000989,0.000000
 40,0.00000670,0.00001631,-0.00018790,-0.00027513,-0.00022837,0.0000890
 2,0.00000034,-0.00014363,-0.00165083,0.00103912,0.00389629,0.00010501,
 -0.00000536,0.00003902,-0.00004032,0.00003107,-0.00002495,0.00219200,0
 .00044767,-0.00039308,-0.00004074,0.00000633,0.00000379,-0.00633625,0.
 00091471,-0.00412504,-0.08154025,-0.21185971,0.10550263,0.00441711,0.0
 0745999,-0.00417100,0.09262700,0.22063919,0.00003779,0.00006613,0.0000
 1879,-0.00000269,0.00001089,0.00000904,0.00002454,0.00001437,0.0000007
 4,-0.00007589,-0.00002048,0.00001482,-0.00000466,-0.00002411,0.0000037
 7,0.00006169,-0.00002430,-0.00006586,-0.00000162,0.00001006,0.00000030
 ,0.00000497,0.00000055,0.00000337,-0.00000540,0.00000073,0.00000382,-0
 .00000555,-0.00000354,-0.00000267,0.00000171,0.00000014,0.00000157,0.0
 0001607,-0.00000896,0.00001335,0.00000313,-0.00001212,-0.00000874,0.00
 000353,-0.00000123,0.00000004,0.00000388,-0.00001072,-0.00000038,-0.00
 025801,0.00087722,-0.00066697,0.00026968,0.00004295,-0.00000950,-0.002
 07575,-0.00149146,0.00311272,0.00003976,0.00002559,-0.00007190,-0.0000
 2234,-0.00001770,0.00002389,0.00054915,-0.00006471,-0.00071679,-0.0000
 1056,-0.00002289,0.00002163,-0.00854175,-0.01349575,0.00679969,0.05662
 714,0.11017174,-0.12206056,0.01099057,0.02403993,-0.01227403,-0.055872
 95,-0.11464485,0.12263071,-0.00011282,0.00048193,-0.00009228,0.0001466
 6,-0.00005411,0.00013684,0.00006447,-0.00003969,-0.00000822,-0.0001105
 1,-0.00012724,-0.00012676,0.00002858,-0.00005313,0.00002309,-0.0003083
 1,-0.00044977,0.00003258,-0.00001842,0.00005919,-0.00002852,0.00003247
 ,-0.00001371,0.00001341,0.00000756,-0.00000052,0.00003706,-0.00007158,
 -0.00000404,-0.00003448,0.00002948,-0.00001158,0.00002049,0.00012826,-
 0.00002518,0.00002859,0.00000435,-0.00003446,-0.00000998,0.00001854,0.
 00002167,0.00001265,0.00000379,-0.00003200,-0.00003419,-0.00077127,-0.
 00083437,-0.00074262,-0.00050896,0.00004473,-0.00001383,0.00013774,0.0
 0336019,0.00842791,0.00086658,-0.00023757,0.00003729,-0.00019650,0.000
 15747,-0.00008099,0.00203820,-0.00046571,-0.00180418,-0.00031640,-0.00
 009724,0.00014162,-0.03458506,0.02279965,-0.00582037,-0.11856634,0.112
 94851,0.01965128,0.00078089,0.00145845,0.00100271,0.00904557,-0.009815
 01,-0.00175481,0.14216610,-0.00005063,-0.00002729,-0.00000765,-0.00000
 180,0.00001569,0.00000268,-0.00000477,-0.00005852,-0.00000887,-0.00022
 458,0.00021207,-0.00023054,0.00001818,-0.00001259,0.00000972,0.0001105
 3,-0.00006017,0.00006636,-0.00000645,0.00001549,0.00000002,0.00000812,
 0.00000279,0.00000416,0.00000455,-0.00000290,0.00000326,-0.00002028,0.
 00002999,0.00000176,0.00001565,0.00000042,0.00000353,0.00012038,0.0000
 1358,0.00002218,-0.00000018,-0.00000337,-0.00000292,0.00000128,-0.0000
 0293,0.00000171,0.00000537,0.00001075,-0.00000205,-0.00030463,-0.00036
 371,0.00026996,-0.00020108,-0.00008804,0.00003328,0.00107523,0.0005663
 8,-0.00229840,0.00003863,-0.00008633,0.00001952,0.00000006,0.00004414,
 -0.00000958,-0.00146051,-0.00001806,0.00021131,0.00000210,0.00001246,-
 0.00000400,-0.00330091,0.01169288,0.00286209,0.11949805,-0.24379377,-0
 .03385111,0.00121506,-0.00330232,0.00026952,0.01249011,-0.01870677,-0.
 00542089,-0.12901641,0.25391309,0.00000029,-0.00002655,-0.00004464,-0.
 00001400,0.00001381,0.00000465,-0.00006338,-0.00000967,-0.00002991,0.0
 0006815,0.00012043,0.00004061,0.00002361,-0.00001058,0.00000332,0.0000
 8933,-0.00000757,0.00025904,0.00000551,-0.00001434,-0.00002478,-0.0000
 0591,-0.00000429,-0.00000624,-0.00001091,0.00000704,-0.00000187,0.0000
 2056,0.00001344,-0.00002988,-0.00000178,-0.00000226,0.00000586,0.00002
 933,0.00000811,0.00000042,0.00000057,0.00002261,0.00000974,-0.00000352
 ,-0.00000712,-0.00001007,0.00000538,-0.00003961,-0.00001951,-0.0002678
 1,-0.00063989,-0.00025219,-0.00012837,0.00000773,0.00004530,-0.0023916
 4,0.00213527,0.00334359,0.00019913,-0.00007649,0.00004873,-0.00004121,
 0.00006868,-0.00003933,0.00116900,0.00006949,-0.00069727,-0.00005302,-
 0.00000202,0.00001257,-0.01087368,0.00951546,-0.00072061,0.02375094,-0
 .03769221,-0.05708907,0.01570270,-0.02583793,-0.00143351,-0.00821250,0
 .01434024,0.00321956,-0.01901178,0.03805554,0.05340990,-0.00028944,0.0
 0129090,-0.00079760,-0.00013403,-0.00013784,0.00019215,0.00028155,0.00
 018864,-0.00006430,-0.00013961,-0.00032987,-0.00042560,-0.00039694,0.0
 0015896,-0.00057748,0.00015276,-0.00003229,-0.00007441,0.00007467,-0.0
 0009121,0.00008230,0.00009480,-0.00018028,-0.00008857,-0.00000744,0.00
 003838,0.00014965,0.00005255,0.00011338,-0.00019220,0.00006956,-0.0001
 9476,0.00001703,0.00010694,-0.00017794,0.00032778,0.00007836,-0.000092
 45,-0.00001465,0.00039242,0.00058245,0.00041231,0.00006830,-0.00006573
 ,-0.00002248,0.00271359,-0.00064981,0.00061767,0.00660937,-0.00119754,
 0.00046850,-0.00409111,-0.00032001,-0.00116552,-0.06022403,-0.01331467
 ,0.02534293,0.00314743,0.01303289,-0.01185468,0.00197671,0.00021198,-0
 .00048186,-0.18685993,0.03832655,0.00280060,0.00133787,0.00043967,0.00
 129161,-0.00070556,-0.00018530,-0.00027729,0.00006028,0.00001000,0.000
 08654,0.00010182,0.00002790,-0.00000003,0.00011078,-0.00000966,0.00002
 431,0.47095973,0.00003867,-0.00071889,0.00068539,0.00011092,0.00009096
 ,0.00001207,0.00001172,-0.00003552,-0.00000716,0.00006915,0.00022573,-
 0.00009684,0.00035766,-0.00016009,-0.00015349,-0.00000905,-0.00000958,
 0.00000991,-0.00001963,-0.00003501,-0.00003945,-0.00000301,0.00003650,
 0.00000330,0.00000107,-0.00001542,-0.00003817,0.00002431,0.00000701,0.
 00003364,-0.00000110,0.00001207,-0.00001601,-0.00008860,0.00003675,-0.
 00003675,-0.00001532,0.00002715,0.00000562,0.00014010,-0.00020000,-0.0
 0013442,-0.00001533,-0.00001361,-0.00000574,-0.00235558,0.00066001,0.0
 0066597,-0.00271544,-0.00091968,0.00434497,0.00129600,0.00008392,0.000
 42050,-0.01905085,0.01197300,-0.00538835,-0.00310596,-0.00481575,0.001
 28430,-0.00064535,-0.00007664,0.00013698,0.06076800,-0.09618204,0.0086
 6425,-0.00044183,-0.00018395,-0.00043947,0.00019495,0.00005290,0.00006
 007,-0.00003003,0.00000155,-0.00003062,-0.00003476,-0.00000672,0.00000
 340,-0.00002974,-0.00000428,-0.00001080,0.05373760,0.59942807,-0.00038
 525,0.00031459,-0.00045215,0.00004418,-0.00009689,-0.00011254,-0.00010
 771,-0.00001206,-0.00000324,-0.00006945,-0.00001799,0.00032742,-0.0000
 2451,-0.00017243,0.00046910,-0.00003223,0.00001420,-0.00000511,-0.0000
 0903,0.00000193,0.00000223,-0.00000410,-0.00000234,0.00001233,0.000032
 20,0.00001363,-0.00001264,-0.00000581,-0.00004208,-0.00003924,-0.00002
 140,0.00004248,0.00002541,0.00001059,0.00001472,-0.00007108,-0.0000129
 3,0.00001490,0.00000156,0.00005268,-0.00015832,0.00006343,-0.00000556,
 0.00004279,0.00000832,0.00102828,0.00051732,0.00111068,0.00107425,0.00
 430231,-0.00011621,0.00042138,-0.00008661,-0.00024363,0.02984498,-0.00
 733218,-0.00395381,0.00047424,-0.00289086,-0.00215614,0.00013775,-0.00
 000364,-0.00004448,-0.01439760,0.01477296,-0.07090505,-0.00011551,-0.0
 0005099,-0.00010589,0.00003399,0.00002374,0.00001801,-0.00000902,0.000
 00019,-0.00000827,-0.00000442,-0.00000283,0.00000032,-0.00000564,-0.00
 000188,-0.00000521,-0.00726994,-0.01413022,0.61242202,0.00004254,-0.00
 037106,0.00030283,-0.00003029,0.00002208,-0.00006406,0.00002201,-0.000
 04242,-0.00002211,0.00003690,0.00007404,-0.00000979,0.00000037,-0.0000
 0465,-0.00001953,-0.00000855,-0.00000280,0.00001351,0.00001071,-0.0000
 0749,0.00002593,-0.00000639,0.00001654,0.00000032,0.00000169,-0.000000
 10,-0.00002852,0.00000887,0.00000477,-0.00001050,-0.00001296,0.0000315
 2,0.00000658,-0.00001711,0.00004240,-0.00004408,-0.00000112,0.00001589
 ,0.00000625,-0.00001476,-0.00003653,0.00002227,0.00000104,0.00000281,-
 0.00000093,-0.00092357,0.00018518,-0.00014717,-0.00092567,-0.00101680,
 0.00110436,0.00056481,0.00006362,0.00028463,-0.00352746,0.00541600,-0.
 00318556,0.00143304,-0.00097088,0.00050631,-0.00032955,-0.00003293,0.0
 0006011,-0.03255282,-0.02028923,0.02399031,-0.00018616,-0.00005807,-0.
 00020516,0.00008725,0.00001866,0.00003119,-0.00001191,-0.00000377,-0.0
 0001252,-0.00001359,-0.00000105,-0.00000155,-0.00001664,-0.00000003,-0
 .00000154,-0.10460448,-0.07990818,0.07437458,0.13034840,-0.00005759,0.
 00003953,-0.00002088,0.00002586,0.00000139,0.00001163,-0.00001862,0.00
 000214,0.00000746,-0.00000354,-0.00000111,0.00000976,-0.00001134,0.000
 01919,0.00003728,-0.00000742,-0.00000115,0.00000324,-0.00001129,-0.000
 00189,-0.00001616,0.00000121,0.00000230,0.00000038,0.00000079,-0.00000
 104,-0.00000114,-0.00000362,-0.00000275,0.00000790,0.00000541,-0.00000
 450,-0.00000054,-0.00000293,-0.00000009,-0.00000212,-0.00000567,0.0000
 0167,-0.00000024,-0.00001948,0.00000237,-0.00002525,-0.00000470,0.0000
 0045,-0.00000058,0.00015477,0.00004933,0.00003433,0.00019857,0.0005447
 5,-0.00040258,0.00011445,0.00001347,-0.00002122,0.00314001,-0.00229255
 ,0.00097783,-0.00154094,0.00121988,-0.00011684,-0.00000804,-0.00000388
 ,0.00000150,0.01223353,0.00955068,-0.00991126,-0.00003610,-0.00001195,
 -0.00003896,0.00001866,0.00000382,0.00001178,-0.00000186,-0.00000139,-
 0.00000264,-0.00000180,-0.00000104,-0.00000084,-0.00000264,0.00000102,
 -0.00000039,-0.09193465,-0.16931056,0.11182975,0.08913696,0.17272036,0
 .00000242,0.00009571,-0.00002871,0.00006885,-0.00000340,0.00004517,-0.
 00000540,0.00001807,0.00001082,-0.00002080,-0.00004020,-0.00003313,0.0
 0000372,0.00000359,-0.00002486,-0.00000240,-0.00000005,-0.00000244,-0.
 00001303,0.00000643,-0.00003014,0.00000734,-0.00000950,-0.00000555,-0.
 00000561,-0.00000024,0.00001064,0.00000008,-0.00000657,0.00000133,0.00
 001044,-0.00001801,0.00000271,-0.00000145,-0.00001106,0.00002210,-0.00
 000464,-0.00000617,-0.00000068,0.00002738,0.00002060,-0.00003861,-0.00
 000353,-0.00000543,-0.00000503,0.00010387,-0.00005890,0.00009743,0.000
 16765,-0.00000430,0.00017013,-0.00019050,-0.00003784,-0.00006192,-0.00
 147760,0.00041067,0.00017511,0.00094221,-0.00028467,0.00048597,0.00009
 955,0.00000813,-0.00002671,-0.00072682,-0.00147781,0.00185243,0.000053
 00,0.00001353,0.00005105,-0.00003058,-0.00000370,-0.00001023,0.0000013
 1,0.00000058,0.00000307,0.00000392,0.00000081,0.00000013,0.00000541,-0
 .00000109,0.00000044,0.08347059,0.10872212,-0.15708210,-0.08961654,-0.
 11839076,0.15996771,0.00008691,-0.00027026,-0.00002191,-0.00007177,-0.
 00004704,-0.00008335,-0.00005950,-0.00004243,0.00000236,0.00001213,0.0
 0003962,0.00014375,0.00007532,-0.00006990,0.00018933,-0.00001793,0.000
 00564,0.00001036,0.00000618,0.00002754,0.00001376,-0.00001539,0.000024
 54,0.00001437,-0.00001629,-0.00001340,-0.00001571,0.00002115,0.0000166
 7,0.00002002,-0.00000846,0.00002472,-0.00000170,0.00001412,0.00000005,
 -0.00004368,-0.00000271,0.00001670,0.00000591,-0.00001619,-0.00001602,
 -0.00005415,-0.00000092,0.00001988,0.00001187,-0.00032405,0.00022732,0
 .00012470,-0.00090112,0.00049508,0.00077937,0.00059439,-0.00001066,0.0
 0012560,0.00363347,0.00537030,-0.00756081,0.00046034,-0.00243834,0.001
 72805,-0.00024678,-0.00002358,0.00006121,-0.03236919,0.00150526,-0.028
 06787,-0.00018520,-0.00005514,-0.00016182,0.00008586,0.00002842,0.0000
 2902,-0.00000967,-0.00000091,-0.00001120,-0.00001240,-0.00000359,0.000
 00008,-0.00001499,-0.00000006,-0.00000431,-0.08199315,-0.00473898,-0.0
 8316073,0.00821878,0.00178749,0.01408817,0.10056949,0.00002328,0.00014
 721,-0.00000069,0.00011765,0.00002574,0.00005833,0.00001458,0.00002531
 ,0.00000637,-0.00002692,-0.00006103,-0.00005774,-0.00002924,0.00000723
 ,-0.00006881,0.00000332,0.00000014,-0.00000690,-0.00001215,-0.00000034
 ,-0.00003028,0.00001189,-0.00001516,-0.00000785,0.00000767,0.00000834,
 0.00000847,-0.00001864,-0.00002934,-0.00000372,0.00000728,-0.00001446,
 0.00000488,-0.00000851,-0.00000143,0.00002112,-0.00000525,-0.00001133,
 -0.00000477,0.00000542,-0.00000149,0.00001939,-0.00000455,-0.00000964,
 -0.00000916,0.00016635,-0.00009981,-0.00001671,0.00035600,-0.00032312,
 0.00003558,-0.00027418,-0.00001399,-0.00007910,-0.00234059,0.00077502,
 0.00010158,0.00075985,0.00000633,-0.00010468,0.00011665,0.00000303,-0.
 00002252,0.01035898,0.00018209,0.01155246,0.00008170,0.00002703,0.0000
 9067,-0.00003762,-0.00000609,-0.00001615,0.00000538,0.00000101,0.00000
 569,0.00000583,0.00000069,0.00000073,0.00000687,-0.00000022,0.00000144
 ,-0.00561799,-0.05096605,-0.01413695,0.00783912,0.00236969,0.01891279,
 -0.00070283,0.04736567,0.00004093,-0.00003499,-0.00008235,-0.00001681,
 0.00000333,-0.00000985,-0.00001384,0.00000076,0.00000354,0.00000937,0.
 00000847,0.00002899,0.00001872,-0.00001303,0.00003849,-0.00000062,0.00
 000182,-0.00000027,0.00000142,0.00000792,0.00000206,-0.00000597,0.0000
 0754,0.00000795,-0.00000031,-0.00000355,0.00000099,0.00000122,-0.00000
 428,0.00001425,-0.00000267,0.00000566,-0.00000559,0.00000076,-0.000006
 42,-0.00000251,-0.00000001,0.00000013,-0.00000142,-0.00004929,-0.00000
 101,-0.00001888,-0.00000085,0.00000276,0.00000389,-0.00007059,-0.00006
 187,0.00003428,0.00006739,-0.00047790,-0.00036701,0.00000595,-0.000009
 42,-0.00003646,0.00125539,0.00172292,0.00017910,0.00098037,-0.00054690
 ,0.00046685,-0.00003397,0.00000478,0.00002724,-0.00154375,0.00224629,0
 .00850891,-0.00001377,0.00000547,0.00002146,0.00001564,-0.00000046,0.0
 0000192,0.00000249,0.00000025,0.00000075,-0.00000177,-0.00000152,0.000
 00085,-0.00000066,0.00000196,0.00000030,-0.09351723,-0.01257718,-0.291
 95304,-0.00599125,-0.00273643,-0.01430515,0.10142894,0.01148957,0.3061
 5453,0.00018266,-0.00023127,0.00007656,0.00001764,0.00003579,-0.000038
 09,-0.00004851,-0.00002665,0.00001236,0.00002191,0.00000405,0.00007360
 ,-0.00000183,0.00005545,0.00011568,-0.00002792,0.00000788,0.00001446,-
 0.00000891,0.00002027,-0.00001138,-0.00001784,0.00002642,0.00001308,-0
 .00000250,-0.00000326,-0.00002032,-0.00002004,-0.00001670,0.00003701,-
 0.00001411,0.00003256,-0.00000241,-0.00000293,0.00002869,-0.00004980,-
 0.00001043,0.00001006,0.00000195,-0.00013287,-0.00006730,-0.00005974,-
 0.00000851,0.00001190,0.00000383,-0.00026991,0.00001935,-0.00038913,-0
 .00127039,-0.00050584,-0.00043203,0.00052758,0.00008821,0.00032481,0.0
 0440935,0.00696717,-0.00349690,0.00013731,-0.00204762,0.00138405,-0.00
 028710,-0.00004143,0.00003255,-0.01926238,0.03633233,0.01615264,-0.000
 15315,-0.00006920,-0.00020689,0.00007617,0.00002572,0.00003467,-0.0000
 1072,-0.00000060,-0.00001286,-0.00001248,-0.00000199,-0.00000012,-0.00
 001219,-0.00000133,-0.00000344,-0.04894378,-0.00354141,-0.00188828,0.0
 0240663,-0.01314548,-0.00695699,0.00248757,-0.01080936,-0.00256521,0.0
 6025169,-0.00004256,0.00003530,-0.00007536,-0.00006610,0.00000166,0.00
 000929,0.00003911,0.00000483,-0.00001572,-0.00000434,0.00000397,-0.000
 02453,-0.00004250,-0.00000304,-0.00007161,0.00002389,-0.00000660,-0.00
 000599,0.00001823,-0.00000857,0.00003454,0.00000507,-0.00000951,-0.000
 00656,-0.00000476,0.00000043,0.00000596,0.00000857,0.00001724,-0.00002
 550,0.00000041,-0.00000781,0.00000207,0.00001264,-0.00001339,0.0000221
 7,0.00001300,-0.00000663,-0.00000117,0.00003470,0.00006413,0.00006524,
 0.00001073,-0.00000529,0.00000072,0.00026638,0.00001372,0.00009564,0.0
 0016055,-0.00015629,-0.00040624,-0.00024923,-0.00004714,-0.00014204,-0
 .00250027,-0.00151897,0.00298921,-0.00085546,0.00132885,-0.00061112,0.
 00012302,0.00002162,-0.00001164,0.01106011,-0.00553731,-0.00205245,0.0
 0007705,0.00004333,0.00010653,-0.00004337,-0.00001537,-0.00002462,0.00
 000610,0.00000044,0.00000782,0.00000697,0.00000198,0.00000011,0.000005
 47,0.00000051,0.00000243,0.00637269,-0.28898182,-0.09276724,-0.0001235
 7,-0.01490814,-0.00785335,-0.00115612,0.00060897,0.00096534,-0.0131564
 0,0.30907890,-0.00006992,-0.00002156,0.00003166,-0.00004065,0.00001299
 ,-0.00001773,0.00000245,-0.00000874,-0.00000485,0.00000845,0.00003278,
 -0.00001050,-0.00000621,0.00003198,0.00000265,-0.00000207,-0.00000212,
 0.00000490,0.00000042,-0.00000450,0.00000670,-0.00000214,0.00000372,-0
 .00000008,-0.00000545,-0.00000455,-0.00000046,0.00000696,0.00001165,-0
 .00000082,0.00000006,0.00000067,-0.00000154,-0.00000130,0.00000352,-0.
 00000396,0.00000139,0.00000467,0.00000338,-0.00000868,0.00002005,-0.00
 002065,0.00000217,-0.00000019,0.00000182,-0.00003276,0.00004878,-0.000
 00494,-0.00003763,0.00025009,-0.00019704,0.00006406,0.00000877,0.00002
 010,0.00057536,-0.00300138,0.00189588,-0.00105249,0.00093747,-0.000309
 41,-0.00001626,0.00000469,-0.00000190,0.00219221,0.00282759,0.00156245
 ,-0.00001724,-0.00000595,-0.00003369,0.00000580,-0.00000296,0.00000811
 ,-0.00000269,-0.00000157,-0.00000188,-0.00000046,0.00000051,-0.0000017
 4,-0.00000163,0.00000040,0.00000006,0.00153987,-0.09194783,-0.08719100
 ,-0.00136834,0.01875600,0.00875903,0.00041037,-0.02774304,-0.00871383,
 -0.00214366,0.09978806,0.08421927\\-0.00000312,0.00000608,-0.00000806,
 -0.00000910,-0.00000167,0.00000562,-0.00000643,-0.00000248,0.00001831,
 0.00000100,0.00001127,0.00000429,0.00000306,0.00000095,0.00000309,-0.0
 0000166,-0.00000466,-0.00000432,-0.00000234,-0.00000459,-0.00000674,-0
 .00001148,-0.00000191,0.00000498,-0.00000550,-0.00000392,0.00000231,0.
 00000247,-0.00000391,0.00000104,-0.00000920,0.00000493,0.00001261,-0.0
 0000622,-0.00000747,-0.00000573,-0.00000350,-0.00000514,0.00000303,-0.
 00000515,0.00000438,0.00000645,-0.00000431,-0.00000570,-0.00001072,-0.
 00000438,0.00000620,-0.00000632,0.00001500,-0.00000543,0.00000542,-0.0
 0002483,0.00001089,0.00004768,-0.00001173,0.00000300,-0.00000817,0.000
 00445,-0.00000070,0.00000469,0.00002549,-0.00001317,-0.00003583,-0.000
 01070,0.00001860,0.00001010,0.00001826,-0.00001459,-0.00002553,-0.0000
 1540,0.00000447,-0.00001388,0.00001099,-0.00000178,-0.00001046,0.00000
 967,-0.00000735,-0.00001217,0.00000981,-0.00001231,-0.00000904,0.00003
 923,-0.00000381,0.00000497,-0.00000147,0.00000921,0.00001007,-0.000004
 09,0.00000835,0.00000436,0.00000118,0.00001227,0.00000794\\\@


 NATURE REVEALS EVERY SECRET ONCE.
                    - RALPH WALDO EMERSON
 Job cpu time:       4 days 17 hours  5 minutes 18.1 seconds.
 File lengths (MBytes):  RWF=   3840 Int=      0 D2E=      0 Chk=     42 Scr=      1
 Normal termination of Gaussian 09 at Sat Feb 12 03:34:45 2022.
