 Entering Gaussian System, Link 0=g09
 Input=quadri_ma_freq.com
 Output=quadri_ma_freq.log
 Initial command:
 /apps/applications/gaussian/G09.D01/2/default/g09/l1.exe "/nobackup/pmmass/Temp/Gau-13444.inp" -scrdir="/nobackup/pmmass/Temp/"
 Entering Link 1 = /apps/applications/gaussian/G09.D01/2/default/g09/l1.exe PID=     13445.
  
 Copyright (c) 1988,1990,1992,1993,1995,1998,2003,2009,2013,
            Gaussian, Inc.  All Rights Reserved.
  
 This is part of the Gaussian(R) 09 program.  It is based on
 the Gaussian(R) 03 system (copyright 2003, Gaussian, Inc.),
 the Gaussian(R) 98 system (copyright 1998, Gaussian, Inc.),
 the Gaussian(R) 94 system (copyright 1995, Gaussian, Inc.),
 the Gaussian 92(TM) system (copyright 1992, Gaussian, Inc.),
 the Gaussian 90(TM) system (copyright 1990, Gaussian, Inc.),
 the Gaussian 88(TM) system (copyright 1988, Gaussian, Inc.),
 the Gaussian 86(TM) system (copyright 1986, Carnegie Mellon
 University), and the Gaussian 82(TM) system (copyright 1983,
 Carnegie Mellon University). Gaussian is a federally registered
 trademark of Gaussian, Inc.
  
 This software contains proprietary and confidential information,
 including trade secrets, belonging to Gaussian, Inc.
  
 This software is provided under written license and may be
 used, copied, transmitted, or stored only in accord with that
 written license.
  
 The following legend is applicable only to US Government
 contracts under FAR:
  
                    RESTRICTED RIGHTS LEGEND
  
 Use, reproduction and disclosure by the US Government is
 subject to restrictions as set forth in subparagraphs (a)
 and (c) of the Commercial Computer Software - Restricted
 Rights clause in FAR 52.227-19.
  
 Gaussian, Inc.
 340 Quinnipiac St., Bldg. 40, Wallingford CT 06492
  
  
 ---------------------------------------------------------------
 Warning -- This program may not be used in any manner that
 competes with the business of Gaussian, Inc. or will provide
 assistance to any competitor of Gaussian, Inc.  The licensee
 of this program is prohibited from giving any competitor of
 Gaussian, Inc. access to this program.  By using this program,
 the user acknowledges that Gaussian, Inc. is engaged in the
 business of creating and licensing software in the field of
 computational chemistry and represents and warrants to the
 licensee that it is not a competitor of Gaussian, Inc. and that
 it will not use this program in any manner prohibited above.
 ---------------------------------------------------------------
  

 Cite this work as:
 Gaussian 09, Revision D.01,
 M. J. Frisch, G. W. Trucks, H. B. Schlegel, G. E. Scuseria, 
 M. A. Robb, J. R. Cheeseman, G. Scalmani, V. Barone, B. Mennucci, 
 G. A. Petersson, H. Nakatsuji, M. Caricato, X. Li, H. P. Hratchian, 
 A. F. Izmaylov, J. Bloino, G. Zheng, J. L. Sonnenberg, M. Hada, 
 M. Ehara, K. Toyota, R. Fukuda, J. Hasegawa, M. Ishida, T. Nakajima, 
 Y. Honda, O. Kitao, H. Nakai, T. Vreven, J. A. Montgomery, Jr., 
 J. E. Peralta, F. Ogliaro, M. Bearpark, J. J. Heyd, E. Brothers, 
 K. N. Kudin, V. N. Staroverov, T. Keith, R. Kobayashi, J. Normand, 
 K. Raghavachari, A. Rendell, J. C. Burant, S. S. Iyengar, J. Tomasi, 
 M. Cossi, N. Rega, J. M. Millam, M. Klene, J. E. Knox, J. B. Cross, 
 V. Bakken, C. Adamo, J. Jaramillo, R. Gomperts, R. E. Stratmann, 
 O. Yazyev, A. J. Austin, R. Cammi, C. Pomelli, J. W. Ochterski, 
 R. L. Martin, K. Morokuma, V. G. Zakrzewski, G. A. Voth, 
 P. Salvador, J. J. Dannenberg, S. Dapprich, A. D. Daniels, 
 O. Farkas, J. B. Foresman, J. V. Ortiz, J. Cioslowski, 
 and D. J. Fox, Gaussian, Inc., Wallingford CT, 2013.
 
 ******************************************
 Gaussian 09:  ES64L-G09RevD.01 24-Apr-2013
                 9-Feb-2022 
 ******************************************
 %nprocshared=8
 Will use up to    8 processors via shared memory.
 %mem=4GB
 %NoSave
 %chk="quadri_ma_freq.chk"
 --------------------------------------------
 #n wB97XD/Gen scrf(smd,solvent=toluene) freq
 --------------------------------------------
 1/10=4,30=1,38=1/1,3;
 2/12=2,17=6,18=5,40=1/2;
 3/5=7,11=2,16=1,25=1,30=1,70=32201,71=2,72=13,74=-58,140=1/1,2,3;
 4//1;
 5/5=2,38=5,53=13,98=1/2;
 8/6=4,10=90,11=11/1;
 11/6=1,8=1,9=11,15=111,16=1/1,2,10;
 10/6=1/2;
 6/7=2,8=2,9=2,10=2,18=1,28=1/1;
 7/8=1,10=1,25=1/1,2,3,16;
 1/10=4,30=1/3;
 99//99;
 ------------------------------------------
 quadricyclane cycloaddition toluene - freq
 ------------------------------------------
 Symbolic Z-matrix:
 Charge =  0 Multiplicity = 1
 C                     0.77053  -0.70448   0.75444 
 C                     1.14488   0.54728   0. 
 C                    -1.1449    0.54725   0. 
 C                    -0.77052  -0.7045    0.75444 
 H                     1.42116  -1.22559   1.43957 
 H                    -1.42113  -1.22563   1.43956 
 C                    -0.00002   1.52941   0. 
 H                    -0.00003   2.16444  -0.88901 
 H                    -0.00003   2.16444   0.88901 
 C                     0.77053  -0.70448  -0.75444 
 H                     1.42116  -1.22559  -1.43956 
 C                    -0.77051  -0.7045   -0.75444 
 H                    -1.42112  -1.22563  -1.43956 
 H                     2.17697   0.86885   0. 
 H                    -2.17699   0.86879   0. 
 

 GradGradGradGradGradGradGradGradGradGradGradGradGradGradGradGradGradGrad
 Berny optimization.
 Initialization pass.
 Trust Radius=3.00D-01 FncErr=1.00D-07 GrdErr=1.00D-07
 Number of steps in this run=      2 maximum allowed number of steps=      2.
 GradGradGradGradGradGradGradGradGradGradGradGradGradGradGradGradGradGrad

                          Input orientation:                          
 ---------------------------------------------------------------------
 Center     Atomic      Atomic             Coordinates (Angstroms)
 Number     Number       Type             X           Y           Z
 ---------------------------------------------------------------------
      1          6           0        0.770530   -0.704480    0.754440
      2          6           0        1.144880    0.547280    0.000000
      3          6           0       -1.144900    0.547250    0.000000
      4          6           0       -0.770520   -0.704500    0.754440
      5          1           0        1.421160   -1.225590    1.439570
      6          1           0       -1.421130   -1.225630    1.439560
      7          6           0       -0.000020    1.529410    0.000000
      8          1           0       -0.000030    2.164440   -0.889010
      9          1           0       -0.000030    2.164440    0.889010
     10          6           0        0.770530   -0.704480   -0.754440
     11          1           0        1.421160   -1.225590   -1.439560
     12          6           0       -0.770510   -0.704500   -0.754440
     13          1           0       -1.421120   -1.225630   -1.439560
     14          1           0        2.176970    0.868850    0.000000
     15          1           0       -2.176990    0.868790    0.000000
 ---------------------------------------------------------------------
                    Distance matrix (angstroms):
                    1          2          3          4          5
     1  C    0.000000
     2  C    1.508715   0.000000
     3  C    2.409332   2.289780   0.000000
     4  C    1.541050   2.409334   1.508714   0.000000
     5  H    1.079017   2.300383   3.435111   2.354655   0.000000
     6  H    2.354647   3.435106   2.300378   1.079008   2.842290
     7  C    2.480563   1.508435   1.508439   2.480565   3.417914
     8  H    3.394907   2.171719   2.171720   3.394908   4.351364
     9  H    2.973647   2.171719   2.171720   2.973648   3.716881
    10  C    1.508880   1.508715   2.409332   2.156746   2.347031
    11  H    2.347022   2.300376   3.435107   3.144620   2.879130
    12  C    2.156739   2.409326   1.508717   1.508880   3.144620
    13  H    3.144609   3.435098   2.300377   2.347018   4.045732
    14  H    2.241120   1.081026   3.337401   3.425246   2.651469
    15  H    3.425235   3.337393   1.081017   2.241111   4.405164
                    6          7          8          9         10
     6  H    0.000000
     7  C    3.417913   0.000000
     8  H    4.351360   1.092521   0.000000
     9  H    3.716881   1.092521   1.778020   0.000000
    10  C    3.144616   2.480563   2.973647   3.394907   0.000000
    11  H    4.045732   3.417910   3.716879   4.351359   1.079011
    12  C    2.347023   2.480562   2.973645   3.394906   1.541040
    13  H    2.879120   3.417909   3.716877   4.351357   2.354637
    14  H    4.405168   2.275000   2.684813   2.684813   2.241120
    15  H    2.651462   2.274998   2.684810   2.684810   3.425235
                   11         12         13         14         15
    11  H    0.000000
    12  C    2.354643   0.000000
    13  H    2.842280   1.079008   0.000000
    14  H    2.651464   3.425237   4.405160   0.000000
    15  H    4.405161   2.241117   2.651465   4.353960   0.000000
 Stoichiometry    C7H8
 Framework group  C1[X(C7H8)]
 Deg. of freedom    39
 Full point group                 C1      NOp   1
 Largest Abelian subgroup         C1      NOp   1
 Largest concise Abelian subgroup C1      NOp   1
                         Standard orientation:                         
 ---------------------------------------------------------------------
 Center     Atomic      Atomic             Coordinates (Angstroms)
 Number     Number       Type             X           Y           Z
 ---------------------------------------------------------------------
      1          6           0        0.770515   -0.704497    0.754440
      2          6           0        1.144894    0.547254    0.000000
      3          6           0       -1.144886    0.547278    0.000000
      4          6           0       -0.770535   -0.704481    0.754440
      5          1           0        1.421132   -1.225623    1.439570
      6          1           0       -1.421158   -1.225595    1.439560
      7          6           0        0.000018    1.529411    0.000000
      8          1           0        0.000023    2.164441   -0.889010
      9          1           0        0.000023    2.164441    0.889010
     10          6           0        0.770515   -0.704497   -0.754440
     11          1           0        1.421132   -1.225623   -1.439560
     12          6           0       -0.770525   -0.704481   -0.754440
     13          1           0       -1.421148   -1.225595   -1.439560
     14          1           0        2.176992    0.868799    0.000000
     15          1           0       -2.176968    0.868842    0.000000
 ---------------------------------------------------------------------
 Rotational constants (GHZ):      4.4584473      4.3977074      3.2873154
 General basis read from cards:  (5D, 7F)
 There are   328 symmetry adapted cartesian basis functions of A   symmetry.
 There are   293 symmetry adapted basis functions of A   symmetry.
   293 basis functions,   449 primitive gaussians,   328 cartesian basis functions
    25 alpha electrons       25 beta electrons
       nuclear repulsion energy       297.7806793218 Hartrees.
 NAtoms=   15 NActive=   15 NUniq=   15 SFac= 1.00D+00 NAtFMM=   60 NAOKFM=F Big=F
 Integral buffers will be    131072 words long.
 Raffenetti 2 integral format.
 Two-electron integral symmetry is turned on.
 Nuclear repulsion after empirical dispersion term =      297.7732652116 Hartrees.
 Force inversion solution in PCM.
 ------------------------------------------------------------------------------
 Polarizable Continuum Model (PCM)
 =================================
 Model                : PCM (using non-symmetric T matrix).
 Atomic radii         : SMD-Coulomb.
 Polarization charges : Total charges.
 Charge compensation  : None.
 Solution method      : Matrix inversion.
 Cavity type          : VdW (van der Waals Surface) (Alpha=1.000).
 Cavity algorithm     : GePol (No added spheres)
                        Default sphere list used, NSphG=   15.
                        Lebedev-Laikov grids with approx.  5.0 points / Ang**2.
                        Smoothing algorithm: Karplus/York (Gamma=1.0000).
                        Polarization charges: spherical gaussians, with
                                              point-specific exponents (IZeta= 3).
                        Self-potential: point-specific (ISelfS= 7).
                        Self-field    : sphere-specific E.n sum rule (ISelfD= 2).
 1st derivatives      : Analytical E(r).r(x)/FMM algorithm (CHGder, D1EAlg=3).
                        Cavity 1st derivative terms included.
 2nd derivatives      : Analytical E(r).r(xy)/FMM algorithm (CHGder, D2EAlg=3).
                        Cavity 2nd derivative terms included.
 Solvent              : Toluene, Eps=   2.374100 Eps(inf)=   2.238315
 ------------------------------------------------------------------------------
 Spheres list:
 ISph  on   Nord     Re0    Alpha      Xe            Ye            Ze
    1   C      1    1.8500  1.000      0.770515     -0.704497      0.754440
    2   C      2    1.8500  1.000      1.144894      0.547254      0.000000
    3   C      3    1.8500  1.000     -1.144886      0.547278      0.000000
    4   C      4    1.8500  1.000     -0.770535     -0.704481      0.754440
    5   H      5    1.2000  1.000      1.421132     -1.225623      1.439570
    6   H      6    1.2000  1.000     -1.421158     -1.225595      1.439560
    7   C      7    1.8500  1.000      0.000018      1.529411      0.000000
    8   H      8    1.2000  1.000      0.000023      2.164441     -0.889010
    9   H      9    1.2000  1.000      0.000023      2.164441      0.889010
   10   C     10    1.8500  1.000      0.770515     -0.704497     -0.754440
   11   H     11    1.2000  1.000      1.421132     -1.225623     -1.439560
   12   C     12    1.8500  1.000     -0.770525     -0.704481     -0.754440
   13   H     13    1.2000  1.000     -1.421148     -1.225595     -1.439560
   14   H     14    1.2000  1.000      2.176992      0.868799      0.000000
   15   H     15    1.2000  1.000     -2.176968      0.868842      0.000000
 ------------------------------------------------------------------------------
 ------------------------------------------------------------------------------
 Atomic radii for non-electrostatic terms: SMD-CDS.
 ------------------------------------------------------------------------------
 Nuclear repulsion after PCM non-electrostatic terms =      297.7637957553 Hartrees.
 One-electron integrals computed using PRISM.
 NBasis=   293 RedAO= T EigKep=  3.94D-06  NBF=   293
 NBsUse=   291 1.00D-06 EigRej=  4.91D-07 NBFU=   291
 ExpMin= 3.17D-02 ExpMax= 1.36D+04 ExpMxC= 4.63D+02 IAcc=3 IRadAn=         5 AccDes= 0.00D+00
 Harris functional with IExCor= 4639 and IRadAn=       5 diagonalized for initial guess.
 HarFok:  IExCor= 4639 AccDes= 0.00D+00 IRadAn=         5 IDoV= 1 UseB2=F ITyADJ=14
 ICtDFT=  3500011 ScaDFX=  1.000000  1.000000  1.000000  1.000000
 FoFCou: FMM=F IPFlag=           0 FMFlag=      100000 FMFlg1=           0
         NFxFlg=           0 DoJE=T BraDBF=F KetDBF=T FulRan=T
         wScrn=  0.000000 ICntrl=     500 IOpCl=  0 I1Cent=   200000004 NGrid=           0
         NMat0=    1 NMatS0=      1 NMatT0=    0 NMatD0=    1 NMtDS0=    0 NMtDT0=    0
 Petite list used in FoFCou.
 Requested convergence on RMS density matrix=1.00D-08 within 128 cycles.
 Requested convergence on MAX density matrix=1.00D-06.
 Requested convergence on             energy=1.00D-06.
 No special actions if energy rises.
 Inv3:  Mode=1 IEnd=     3623403.
 Iteration    1 A*A^-1 deviation from unit magnitude is 4.55D-15 for   1077.
 Iteration    1 A*A^-1 deviation from orthogonality  is 1.90D-15 for    969    710.
 Iteration    1 A^-1*A deviation from unit magnitude is 4.88D-15 for   1077.
 Iteration    1 A^-1*A deviation from orthogonality  is 1.46D-15 for   1086     91.
 DSYEVD-2 returned Info=       64239 IAlg= 4 N=   291 NDim=   291 NE2=     1843782 trying  DSYEV.
 DSYEVD-2 returned Info=       64239 IAlg= 4 N=   291 NDim=   291 NE2=     1843782 trying  DSYEV.
 DSYEVD-2 returned Info=       64239 IAlg= 4 N=   291 NDim=   291 NE2=     1843782 trying  DSYEV.
 Error on total polarization charges =  0.02411
 SCF Done:  E(RwB97XD) =  -271.471471348     A.U. after   12 cycles
            NFock= 12  Conv=0.24D-08     -V/T= 2.0053
 SMD-CDS (non-electrostatic) energy       (kcal/mol) =      -5.94
 (included in total energy above)
 DoSCS=F DFT=T ScalE2(SS,OS)=  1.000000  1.000000
 Range of M.O.s used for correlation:     1   291
 NBasis=   293 NAE=    25 NBE=    25 NFC=     0 NFV=     0
 NROrb=    291 NOA=    25 NOB=    25 NVA=   266 NVB=   266

 **** Warning!!: The largest alpha MO coefficient is  0.12719316D+03

 Symmetrizing basis deriv contribution to polar:
 IMax=3 JMax=2 DiffMx= 0.00D+00
 G2DrvN: will do    16 centers at a time, making    1 passes.
 Calling FoFCou, ICntrl=  3107 FMM=F I1Cent=   0 AccDes= 0.00D+00.
 NEqPCM:  Using equilibrium solvation (IEInf=0, Eps=   2.3741, EpsInf=   2.2383)
 G2PCM: DoFxE=T DoFxN=T DoGrad=T DoDP/DQ/DG/TGxP=FFFF NFrqRd=   0 IEInf=0 SqF1=F DoCFld=F IF1Alg=4.
 End of G2Drv F.D. properties file   721 does not exist.
 End of G2Drv F.D. properties file   722 does not exist.
 End of G2Drv F.D. properties file   788 does not exist.
          IDoAtm=111111111111111
 NEqPCM:  Using equilibrium solvation (IEInf=0, Eps=   2.3741, EpsInf=   2.2383)
          Differentiating once with respect to electric field.
                with respect to dipole field.
          Differentiating once with respect to nuclear coordinates.
          There are    48 degrees of freedom in the 1st order CPHF.  IDoFFX=6 NUNeed=     3.
     45 vectors produced by pass  0 Test12= 1.39D-14 2.08D-09 XBig12= 2.91D+01 1.74D+00.
 AX will form    45 AO Fock derivatives at one time.
     45 vectors produced by pass  1 Test12= 1.39D-14 2.08D-09 XBig12= 3.18D+00 3.46D-01.
     45 vectors produced by pass  2 Test12= 1.39D-14 2.08D-09 XBig12= 7.30D-02 5.49D-02.
     45 vectors produced by pass  3 Test12= 1.39D-14 2.08D-09 XBig12= 4.83D-04 6.87D-03.
     45 vectors produced by pass  4 Test12= 1.39D-14 2.08D-09 XBig12= 4.95D-06 5.47D-04.
     45 vectors produced by pass  5 Test12= 1.39D-14 2.08D-09 XBig12= 3.21D-08 2.94D-05.
     45 vectors produced by pass  6 Test12= 1.39D-14 2.08D-09 XBig12= 2.66D-10 2.78D-06.
     20 vectors produced by pass  7 Test12= 1.39D-14 2.08D-09 XBig12= 2.14D-12 2.95D-07.
     12 vectors produced by pass  8 Test12= 1.39D-14 2.08D-09 XBig12= 6.13D-14 5.86D-08.
      9 vectors produced by pass  9 Test12= 1.39D-14 2.08D-09 XBig12= 4.27D-15 1.92D-08.
      4 vectors produced by pass 10 Test12= 1.39D-14 2.08D-09 XBig12= 2.25D-16 3.02D-09.
      4 vectors produced by pass 11 Test12= 1.39D-14 2.08D-09 XBig12= 3.97D-16 4.24D-09.
      4 vectors produced by pass 12 Test12= 1.39D-14 2.08D-09 XBig12= 4.72D-16 5.12D-09.
      4 vectors produced by pass 13 Test12= 1.39D-14 2.08D-09 XBig12= 1.22D-15 6.92D-09.
      4 vectors produced by pass 14 Test12= 1.39D-14 2.08D-09 XBig12= 3.04D-16 2.96D-09.
      3 vectors produced by pass 15 Test12= 1.39D-14 2.08D-09 XBig12= 4.20D-16 3.47D-09.
      2 vectors produced by pass 16 Test12= 1.39D-14 2.08D-09 XBig12= 1.82D-16 2.63D-09.
      1 vectors produced by pass 17 Test12= 1.39D-14 2.08D-09 XBig12= 1.52D-16 3.57D-09.
 InvSVY:  IOpt=1 It=  1 EMax= 4.44D-15
 Solved reduced A of dimension   382 with    48 vectors.
 Isotropic polarizability for W=    0.000000       79.81 Bohr**3.
 End of Minotr F.D. properties file   721 does not exist.
 End of Minotr F.D. properties file   722 does not exist.
 End of Minotr F.D. properties file   788 does not exist.

 **********************************************************************

            Population analysis using the SCF density.

 **********************************************************************

 Orbital symmetries:
       Occupied  (A) (A) (A) (A) (A) (A) (A) (A) (A) (A) (A) (A)
                 (A) (A) (A) (A) (A) (A) (A) (A) (A) (A) (A) (A)
                 (A)
       Virtual   (A) (A) (A) (A) (A) (A) (A) (A) (A) (A) (A) (A)
                 (A) (A) (A) (A) (A) (A) (A) (A) (A) (A) (A) (A)
                 (A) (A) (A) (A) (A) (A) (A) (A) (A) (A) (A) (A)
                 (A) (A) (A) (A) (A) (A) (A) (A) (A) (A) (A) (A)
                 (A) (A) (A) (A) (A) (A) (A) (A) (A) (A) (A) (A)
                 (A) (A) (A) (A) (A) (A) (A) (A) (A) (A) (A) (A)
                 (A) (A) (A) (A) (A) (A) (A) (A) (A) (A) (A) (A)
                 (A) (A) (A) (A) (A) (A) (A) (A) (A) (A) (A) (A)
                 (A) (A) (A) (A) (A) (A) (A) (A) (A) (A) (A) (A)
                 (A) (A) (A) (A) (A) (A) (A) (A) (A) (A) (A) (A)
                 (A) (A) (A) (A) (A) (A) (A) (A) (A) (A) (A) (A)
                 (A) (A) (A) (A) (A) (A) (A) (A) (A) (A) (A) (A)
                 (A) (A) (A) (A) (A) (A) (A) (A) (A) (A) (A) (A)
                 (A) (A) (A) (A) (A) (A) (A) (A) (A) (A) (A) (A)
                 (A) (A) (A) (A) (A) (A) (A) (A) (A) (A) (A) (A)
                 (A) (A) (A) (A) (A) (A) (A) (A) (A) (A) (A) (A)
                 (A) (A) (A) (A) (A) (A) (A) (A) (A) (A) (A) (A)
                 (A) (A) (A) (A) (A) (A) (A) (A) (A) (A) (A) (A)
                 (A) (A) (A) (A) (A) (A) (A) (A) (A) (A) (A) (A)
                 (A) (A) (A) (A) (A) (A) (A) (A) (A) (A) (A) (A)
                 (A) (A) (A) (A) (A) (A) (A) (A) (A) (A) (A) (A)
                 (A) (A) (A) (A) (A) (A) (A) (A) (A) (A) (A) (A)
                 (A) (A)
 The electronic state is 1-A.
 Alpha  occ. eigenvalues --  -10.28355 -10.28349 -10.28319 -10.28312 -10.28308
 Alpha  occ. eigenvalues --  -10.28294 -10.27279  -1.04658  -0.88031  -0.82948
 Alpha  occ. eigenvalues --   -0.72970  -0.65773  -0.64144  -0.62656  -0.60647
 Alpha  occ. eigenvalues --   -0.52195  -0.51779  -0.51472  -0.47532  -0.42974
 Alpha  occ. eigenvalues --   -0.42118  -0.39206  -0.35833  -0.34755  -0.29987
 Alpha virt. eigenvalues --    0.04958   0.06307   0.06620   0.06772   0.09483
 Alpha virt. eigenvalues --    0.09554   0.09821   0.10113   0.10318   0.12892
 Alpha virt. eigenvalues --    0.13253   0.13275   0.13475   0.13910   0.14015
 Alpha virt. eigenvalues --    0.14045   0.16318   0.16461   0.16855   0.17424
 Alpha virt. eigenvalues --    0.17674   0.17694   0.18242   0.18969   0.19253
 Alpha virt. eigenvalues --    0.20147   0.20580   0.22047   0.22048   0.25612
 Alpha virt. eigenvalues --    0.26487   0.26655   0.27037   0.27505   0.28678
 Alpha virt. eigenvalues --    0.29270   0.29426   0.30416   0.31042   0.32202
 Alpha virt. eigenvalues --    0.32620   0.33400   0.35820   0.36948   0.39617
 Alpha virt. eigenvalues --    0.39903   0.39913   0.43615   0.47309   0.48376
 Alpha virt. eigenvalues --    0.49895   0.49990   0.50367   0.52639   0.52694
 Alpha virt. eigenvalues --    0.53479   0.54276   0.54341   0.55364   0.55618
 Alpha virt. eigenvalues --    0.56396   0.56953   0.57276   0.58148   0.59145
 Alpha virt. eigenvalues --    0.60432   0.60658   0.61126   0.61147   0.62092
 Alpha virt. eigenvalues --    0.63471   0.63853   0.64767   0.69088   0.70169
 Alpha virt. eigenvalues --    0.73861   0.75862   0.78276   0.83269   0.92148
 Alpha virt. eigenvalues --    0.92361   0.92441   0.96325   0.98509   1.02440
 Alpha virt. eigenvalues --    1.03383   1.07369   1.08797   1.10679   1.12122
 Alpha virt. eigenvalues --    1.12431   1.12865   1.15102   1.16595   1.21587
 Alpha virt. eigenvalues --    1.21953   1.24032   1.28105   1.28507   1.29972
 Alpha virt. eigenvalues --    1.30874   1.31240   1.32631   1.32730   1.33134
 Alpha virt. eigenvalues --    1.35566   1.36364   1.38289   1.39742   1.41694
 Alpha virt. eigenvalues --    1.44971   1.48636   1.51412   1.52084   1.54507
 Alpha virt. eigenvalues --    1.61816   1.67883   1.69862   1.72198   1.73180
 Alpha virt. eigenvalues --    1.75800   1.77347   1.78053   1.80148   1.81229
 Alpha virt. eigenvalues --    1.82710   1.84161   1.84793   1.85181   1.92781
 Alpha virt. eigenvalues --    2.02513   2.05807   2.08301   2.09825   2.11350
 Alpha virt. eigenvalues --    2.13405   2.14661   2.18150   2.18787   2.23767
 Alpha virt. eigenvalues --    2.30376   2.31595   2.33050   2.35801   2.37153
 Alpha virt. eigenvalues --    2.41305   2.42218   2.44693   2.47846   2.48077
 Alpha virt. eigenvalues --    2.52000   2.52276   2.53668   2.53781   2.55555
 Alpha virt. eigenvalues --    2.56203   2.61689   2.65220   2.65904   2.66702
 Alpha virt. eigenvalues --    2.70776   2.73722   2.76326   2.76947   2.77879
 Alpha virt. eigenvalues --    2.79314   2.79436   2.84257   2.85837   2.86218
 Alpha virt. eigenvalues --    2.88153   2.89432   2.89488   2.91406   2.94706
 Alpha virt. eigenvalues --    2.98530   2.99645   3.01805   3.08462   3.09821
 Alpha virt. eigenvalues --    3.12211   3.13348   3.17010   3.17011   3.18255
 Alpha virt. eigenvalues --    3.18532   3.18660   3.19856   3.21577   3.22751
 Alpha virt. eigenvalues --    3.27914   3.28118   3.30402   3.30459   3.33850
 Alpha virt. eigenvalues --    3.34732   3.35365   3.45340   3.49003   3.49246
 Alpha virt. eigenvalues --    3.51592   3.55357   3.56518   3.58722   3.58803
 Alpha virt. eigenvalues --    3.61794   3.65345   3.65384   3.74924   3.78980
 Alpha virt. eigenvalues --    3.78990   3.79674   3.87274   3.93107   3.93263
 Alpha virt. eigenvalues --    3.95789   3.98081   4.02077   4.02123   4.04985
 Alpha virt. eigenvalues --    4.07163   4.10200   4.11213   4.13442   4.13749
 Alpha virt. eigenvalues --    4.19688   4.20123   4.23536   4.24268   4.28642
 Alpha virt. eigenvalues --    4.29149   4.29304   4.30560   4.31992   4.34779
 Alpha virt. eigenvalues --    4.41578   4.42725   4.44461   4.45382   4.50801
 Alpha virt. eigenvalues --    4.59722   4.59784   4.62839   4.71251   4.76808
 Alpha virt. eigenvalues --    4.78410   4.79728   4.97312   4.97792   4.97921
 Alpha virt. eigenvalues --    5.03101   5.05198   5.06298   5.09004   5.15175
 Alpha virt. eigenvalues --    5.16987   5.21198   5.22163   5.45289  22.56090
 Alpha virt. eigenvalues --   22.59867  22.64345  22.64969  22.78524  22.78536
 Alpha virt. eigenvalues --   22.88219
          Condensed to atoms (all electrons):
               1          2          3          4          5          6
     1  C    5.468736   0.025327  -0.275099   0.476602   0.440217  -0.053724
     2  C    0.025327   6.034300   0.578796  -0.275093  -0.029966   0.012991
     3  C   -0.275099   0.578796   6.034301   0.025330   0.012991  -0.029966
     4  C    0.476602  -0.275093   0.025330   5.468724  -0.053724   0.440219
     5  H    0.440217  -0.029966   0.012991  -0.053724   0.514633  -0.003935
     6  H   -0.053724   0.012991  -0.029966   0.440219  -0.003935   0.514631
     7  C    0.076780  -0.104856  -0.104855   0.076778  -0.004963  -0.004963
     8  H    0.034505  -0.060564  -0.060564   0.034505   0.000000   0.000000
     9  H   -0.022446  -0.060564  -0.060564  -0.022446   0.000228   0.000228
    10  C    0.149949   0.025332  -0.275092  -0.192564  -0.032158   0.023694
    11  H   -0.032158  -0.029967   0.012991   0.023694  -0.002222  -0.000071
    12  C   -0.192566  -0.275091   0.025335   0.149948   0.023695  -0.032158
    13  H    0.023695   0.012991  -0.029967  -0.032159  -0.000071  -0.002222
    14  H   -0.033563   0.404925   0.000363   0.010292  -0.005076   0.000060
    15  H    0.010292   0.000362   0.404926  -0.033562   0.000060  -0.005076
               7          8          9         10         11         12
     1  C    0.076780   0.034505  -0.022446   0.149949  -0.032158  -0.192566
     2  C   -0.104856  -0.060564  -0.060564   0.025332  -0.029967  -0.275091
     3  C   -0.104855  -0.060564  -0.060564  -0.275092   0.012991   0.025335
     4  C    0.076778   0.034505  -0.022446  -0.192564   0.023694   0.149948
     5  H   -0.004963   0.000000   0.000228  -0.032158  -0.002222   0.023695
     6  H   -0.004963   0.000000   0.000228   0.023694  -0.000071  -0.032158
     7  C    5.165614   0.459683   0.459684   0.076777  -0.004962   0.076775
     8  H    0.459683   0.552139  -0.026805  -0.022446   0.000228  -0.022446
     9  H    0.459684  -0.026805   0.552139   0.034505   0.000000   0.034505
    10  C    0.076777  -0.022446   0.034505   5.468726   0.440220   0.476598
    11  H   -0.004962   0.000228   0.000000   0.440220   0.514632  -0.053724
    12  C    0.076775  -0.022446   0.034505   0.476598  -0.053724   5.468729
    13  H   -0.004962   0.000228   0.000000  -0.053725  -0.003935   0.440221
    14  H    0.001797  -0.001681  -0.001681  -0.033562  -0.005076   0.010292
    15  H    0.001798  -0.001681  -0.001681   0.010292   0.000060  -0.033562
              13         14         15
     1  C    0.023695  -0.033563   0.010292
     2  C    0.012991   0.404925   0.000362
     3  C   -0.029967   0.000363   0.404926
     4  C   -0.032159   0.010292  -0.033562
     5  H   -0.000071  -0.005076   0.000060
     6  H   -0.002222   0.000060  -0.005076
     7  C   -0.004962   0.001797   0.001798
     8  H    0.000228  -0.001681  -0.001681
     9  H    0.000000  -0.001681  -0.001681
    10  C   -0.053725  -0.033562   0.010292
    11  H   -0.003935  -0.005076   0.000060
    12  C    0.440221   0.010292  -0.033562
    13  H    0.514633   0.000060  -0.005076
    14  H    0.000060   0.513232   0.000017
    15  H   -0.005076   0.000017   0.513231
 Mulliken charges:
               1
     1  C   -0.096547
     2  C   -0.258924
     3  C   -0.258925
     4  C   -0.096545
     5  H    0.140291
     6  H    0.140291
     7  C   -0.166126
     8  H    0.114899
     9  H    0.114899
    10  C   -0.096546
    11  H    0.140290
    12  C   -0.096551
    13  H    0.140289
    14  H    0.139603
    15  H    0.139603
 Sum of Mulliken charges =   0.00000
 Mulliken charges with hydrogens summed into heavy atoms:
               1
     1  C    0.043743
     2  C   -0.119321
     3  C   -0.119322
     4  C    0.043745
     7  C    0.063672
    10  C    0.043744
    12  C    0.043739
 APT charges:
               1
     1  C   -0.033753
     2  C    0.015829
     3  C    0.015825
     4  C   -0.033761
     5  H    0.014360
     6  H    0.014363
     7  C    0.069765
     8  H   -0.030861
     9  H   -0.030861
    10  C   -0.033757
    11  H    0.014363
    12  C   -0.033755
    13  H    0.014361
    14  H    0.018939
    15  H    0.018941
 Sum of APT charges =   0.00000
 APT charges with hydrogens summed into heavy atoms:
               1
     1  C   -0.019393
     2  C    0.034768
     3  C    0.034766
     4  C   -0.019398
     7  C    0.008044
    10  C   -0.019394
    12  C   -0.019393
 Electronic spatial extent (au):  <R**2>=            510.5942
 Charge=              0.0000 electrons
 Dipole moment (field-independent basis, Debye):
    X=              0.0000    Y=              0.0012    Z=              0.0000  Tot=              0.0012
 Quadrupole moment (field-independent basis, Debye-Ang):
   XX=            -38.9771   YY=            -41.6506   ZZ=            -41.7947
   XY=              0.0000   XZ=              0.0000   YZ=              0.0000
 Traceless Quadrupole moment (field-independent basis, Debye-Ang):
   XX=              1.8304   YY=             -0.8432   ZZ=             -0.9872
   XY=              0.0000   XZ=              0.0000   YZ=              0.0000
 Octapole moment (field-independent basis, Debye-Ang**2):
  XXX=             -0.0001  YYY=              3.1538  ZZZ=              0.0000  XYY=              0.0000
  XXY=             -0.9458  XXZ=              0.0000  XZZ=              0.0000  YZZ=             -3.6574
  YYZ=              0.0000  XYZ=              0.0000
 Hexadecapole moment (field-independent basis, Debye-Ang**3):
 XXXX=           -255.2189 YYYY=           -279.5916 ZZZZ=           -158.7500 XXXY=             -0.0001
 XXXZ=             -0.0001 YYYX=             -0.0002 YYYZ=              0.0001 ZZZX=              0.0000
 ZZZY=              0.0000 XXYY=            -87.6678 XXZZ=            -69.8978 YYZZ=            -64.3200
 XXYZ=              0.0000 YYXZ=              0.0000 ZZXY=              0.0000
 N-N= 2.977637957553D+02 E-N=-1.224909640043D+03  KE= 2.700288035100D+02
  Exact polarizability:  80.089   0.000  83.280   0.000   0.000  76.066
 Approx polarizability:  74.289   0.000  78.766   0.000   0.000  78.196
 D2PCM: PCM CHGder 2nd derivatives, FixD1E=F FixD2E=F DoIter=F DoCFld=F I1PDM=0
 Calling FoFJK, ICntrl=    100127 FMM=F ISym2X=0 I1Cent= 0 IOpClX= 0 NMat=1 NMatS=1 NMatT=0.
 Full mass-weighted force constant matrix:
 Low frequencies ---  -55.1661   -8.2633    0.0004    0.0006    0.0010   11.5126
 Low frequencies ---  379.0626  542.4261  685.0599
 Diagonal vibrational polarizability:
        0.6358702       2.2105238       3.7815379
 Harmonic frequencies (cm**-1), IR intensities (KM/Mole), Raman scattering
 activities (A**4/AMU), depolarization ratios for plane and unpolarized
 incident light, reduced masses (AMU), force constants (mDyne/A),
 and normal coordinates:
                      1                      2                      3
                      A                      A                      A
 Frequencies --    378.8547               542.4236               685.0540
 Red. masses --      1.7895                 2.7952                 3.0564
 Frc consts  --      0.1513                 0.4846                 0.8451
 IR Inten    --      1.1801                 0.0000                 0.0011
  Atom  AN      X      Y      Z        X      Y      Z        X      Y      Z
     1   6     0.01   0.08   0.00     0.06  -0.11  -0.08    -0.09   0.15   0.00
     2   6     0.00   0.00  -0.11     0.00   0.00   0.20     0.11   0.11   0.00
     3   6     0.00   0.00  -0.11     0.00   0.00  -0.20     0.11  -0.11   0.00
     4   6    -0.01   0.08   0.00     0.06   0.11   0.08    -0.09  -0.15   0.00
     5   1     0.00   0.14   0.05     0.04  -0.33  -0.22    -0.05  -0.25  -0.35
     6   1     0.00   0.14   0.05     0.04   0.33   0.22    -0.05   0.25   0.35
     7   6     0.00   0.00   0.15     0.00   0.00   0.00     0.12   0.00   0.00
     8   1     0.00   0.43   0.46     0.31   0.00   0.00     0.03   0.00   0.00
     9   1     0.00  -0.43   0.46    -0.31   0.00   0.00     0.03   0.00   0.00
    10   6    -0.01  -0.08   0.00    -0.06   0.11  -0.08    -0.09   0.15   0.00
    11   1     0.00  -0.14   0.05    -0.04   0.33  -0.22    -0.05  -0.25   0.35
    12   6     0.01  -0.08   0.00    -0.06  -0.11   0.08    -0.09  -0.15   0.00
    13   1     0.00  -0.14   0.05    -0.04  -0.33   0.22    -0.05   0.25  -0.35
    14   1     0.00   0.00  -0.15     0.00   0.00   0.07     0.14   0.02   0.00
    15   1     0.00   0.00  -0.15     0.00   0.00  -0.07     0.14  -0.02   0.00
                      4                      5                      6
                      A                      A                      A
 Frequencies --    714.0861               731.5113               745.3966
 Red. masses --      1.8719                 3.3440                 4.7008
 Frc consts  --      0.5624                 1.0543                 1.5389
 IR Inten    --      1.8625                 0.0000                 0.9273
  Atom  AN      X      Y      Z        X      Y      Z        X      Y      Z
     1   6    -0.02   0.09   0.07     0.15   0.05   0.16    -0.02  -0.15  -0.04
     2   6    -0.03  -0.04   0.00     0.00   0.00   0.07    -0.21   0.06   0.00
     3   6    -0.03   0.04   0.00     0.00   0.00  -0.07     0.21   0.06   0.00
     4   6    -0.02  -0.09  -0.07     0.15  -0.05  -0.16     0.02  -0.15  -0.04
     5   1    -0.01   0.36   0.26     0.10  -0.10   0.09     0.07   0.21   0.15
     6   1    -0.01  -0.36  -0.26     0.10   0.10  -0.09    -0.07   0.21   0.15
     7   6     0.12   0.00   0.00     0.00   0.00   0.00     0.00   0.38   0.00
     8   1     0.19   0.00   0.00     0.17   0.00   0.00     0.00   0.37  -0.01
     9   1     0.19   0.00   0.00    -0.17   0.00   0.00     0.00   0.37   0.01
    10   6    -0.02   0.09  -0.07    -0.15  -0.05   0.16    -0.02  -0.15   0.04
    11   1    -0.01   0.36  -0.26    -0.10   0.10   0.09     0.07   0.21  -0.15
    12   6    -0.02  -0.09   0.07    -0.15   0.05  -0.16     0.02  -0.15   0.04
    13   1    -0.01  -0.36   0.26    -0.10  -0.10  -0.09    -0.07   0.21  -0.15
    14   1     0.02  -0.19   0.00     0.00   0.00  -0.55    -0.13  -0.19   0.00
    15   1     0.02   0.19   0.00     0.00   0.00   0.55     0.13  -0.19   0.00
                      7                      8                      9
                      A                      A                      A
 Frequencies --    788.0646               810.8081               843.5052
 Red. masses --      1.9564                 1.4247                 1.5946
 Frc consts  --      0.7159                 0.5518                 0.6685
 IR Inten    --     65.2586                38.9765                 0.0000
  Atom  AN      X      Y      Z        X      Y      Z        X      Y      Z
     1   6     0.08  -0.08   0.07     0.00   0.03   0.05     0.05   0.08  -0.04
     2   6     0.00   0.00  -0.08    -0.07  -0.06   0.00     0.00   0.00   0.09
     3   6     0.00   0.00  -0.08     0.07  -0.06   0.00     0.00   0.00  -0.09
     4   6    -0.08  -0.08   0.07     0.00   0.03   0.05     0.05  -0.08   0.04
     5   1     0.18  -0.22  -0.12     0.01   0.37   0.30     0.20   0.33   0.01
     6   1    -0.18  -0.22  -0.12    -0.01   0.37   0.30     0.20  -0.33  -0.01
     7   6     0.00   0.00   0.00     0.00  -0.09   0.00     0.00   0.00   0.00
     8   1     0.00   0.01   0.00     0.00  -0.10  -0.01     0.15   0.00   0.00
     9   1     0.00  -0.01   0.00     0.00  -0.10   0.01    -0.15   0.00   0.00
    10   6    -0.08   0.08   0.07     0.00   0.03  -0.05    -0.05  -0.08  -0.04
    11   1    -0.18   0.22  -0.12     0.01   0.37  -0.30    -0.20  -0.33   0.01
    12   6     0.08   0.08   0.07     0.00   0.03  -0.05    -0.05   0.08   0.04
    13   1     0.18   0.22  -0.12    -0.01   0.37  -0.30    -0.20   0.33  -0.01
    14   1     0.00   0.00  -0.52    -0.06  -0.08   0.00     0.00   0.00   0.39
    15   1     0.00   0.00  -0.52     0.06  -0.08   0.00     0.00   0.00  -0.39
                     10                     11                     12
                      A                      A                      A
 Frequencies --    877.2574               926.3666               927.0919
 Red. masses --      1.9066                 1.9182                 1.4256
 Frc consts  --      0.8645                 0.9699                 0.7219
 IR Inten    --      0.9640                 5.5773                 6.1581
  Atom  AN      X      Y      Z        X      Y      Z        X      Y      Z
     1   6     0.05   0.10  -0.04    -0.10   0.04   0.04    -0.09  -0.02   0.02
     2   6     0.00   0.00   0.08     0.02  -0.08   0.00     0.00   0.00  -0.03
     3   6     0.00   0.00   0.08    -0.02  -0.08   0.00     0.00   0.00  -0.03
     4   6    -0.05   0.10  -0.04     0.10   0.04   0.04     0.09  -0.02   0.02
     5   1    -0.17  -0.16  -0.04    -0.31  -0.17   0.07    -0.37  -0.25   0.12
     6   1     0.17  -0.16  -0.04     0.31  -0.17   0.07     0.37  -0.25   0.12
     7   6     0.00   0.00   0.12     0.00   0.10   0.00     0.00   0.00  -0.04
     8   1     0.00  -0.35  -0.14     0.00   0.09  -0.01     0.00   0.13   0.06
     9   1     0.00   0.35  -0.14     0.00   0.09   0.01     0.00  -0.13   0.06
    10   6    -0.05  -0.10  -0.04    -0.10   0.04  -0.04     0.09   0.02   0.02
    11   1     0.17   0.16  -0.04    -0.31  -0.17  -0.07     0.37   0.25   0.12
    12   6     0.05  -0.10  -0.04     0.10   0.04  -0.04    -0.09   0.02   0.02
    13   1    -0.17   0.16  -0.04     0.31  -0.17  -0.07    -0.37   0.25   0.12
    14   1     0.00   0.00  -0.45     0.12  -0.42   0.00     0.00   0.00  -0.20
    15   1     0.00   0.00  -0.45    -0.12  -0.42   0.00     0.00   0.00  -0.20
                     13                     14                     15
                      A                      A                      A
 Frequencies --    944.7600               975.5154               988.6403
 Red. masses --      1.7464                 2.4605                 2.5244
 Frc consts  --      0.9184                 1.3796                 1.4537
 IR Inten    --     10.8407                 1.7338                 0.9246
  Atom  AN      X      Y      Z        X      Y      Z        X      Y      Z
     1   6    -0.04  -0.03  -0.04     0.06  -0.05  -0.03     0.03   0.03   0.15
     2   6     0.13   0.09   0.00     0.22   0.03   0.00     0.07  -0.07   0.00
     3   6     0.13  -0.09   0.00    -0.22   0.03   0.00     0.07   0.07   0.00
     4   6    -0.04   0.03   0.04    -0.06  -0.05  -0.03     0.03  -0.03  -0.15
     5   1    -0.14   0.21   0.25    -0.12   0.18   0.33    -0.23  -0.32   0.13
     6   1    -0.14  -0.21  -0.25     0.12   0.18   0.33    -0.23   0.32  -0.13
     7   6    -0.02   0.00   0.00     0.00   0.08   0.00    -0.16   0.00   0.00
     8   1    -0.40   0.00   0.00     0.00   0.13   0.03    -0.28   0.00   0.00
     9   1    -0.40   0.00   0.00     0.00   0.13  -0.03    -0.28   0.00   0.00
    10   6    -0.04  -0.03   0.04     0.06  -0.05   0.03     0.03   0.03  -0.15
    11   1    -0.14   0.21  -0.25    -0.12   0.18  -0.33    -0.23  -0.32  -0.13
    12   6    -0.04   0.03  -0.04    -0.06  -0.05   0.03     0.03  -0.03   0.15
    13   1    -0.14  -0.21   0.25     0.12   0.18  -0.33    -0.23   0.32   0.13
    14   1     0.21  -0.13   0.00     0.29  -0.13   0.00     0.06  -0.01   0.00
    15   1     0.21   0.13   0.00    -0.29  -0.13   0.00     0.06   0.01   0.00
                     16                     17                     18
                      A                      A                      A
 Frequencies --   1015.2922              1024.1405              1036.2470
 Red. masses --      1.6230                 1.4974                 1.2547
 Frc consts  --      0.9857                 0.9254                 0.7938
 IR Inten    --      0.1045                 0.0830                 0.0000
  Atom  AN      X      Y      Z        X      Y      Z        X      Y      Z
     1   6     0.07   0.03   0.05    -0.04  -0.06  -0.01    -0.01  -0.06  -0.04
     2   6     0.02  -0.09   0.00     0.00   0.00  -0.05     0.00   0.00   0.03
     3   6    -0.02  -0.09   0.00     0.00   0.00  -0.05     0.00   0.00  -0.03
     4   6    -0.07   0.03   0.05     0.04  -0.06  -0.01    -0.01   0.06   0.04
     5   1     0.34   0.04  -0.19    -0.01   0.30   0.23    -0.03   0.29   0.24
     6   1    -0.34   0.04  -0.19     0.01   0.30   0.23    -0.03  -0.29  -0.24
     7   6     0.00   0.09   0.00     0.00   0.00   0.13     0.00   0.00   0.00
     8   1     0.00   0.09   0.00     0.00  -0.35  -0.12     0.16   0.00   0.00
     9   1     0.00   0.09   0.00     0.00   0.35  -0.12    -0.16   0.00   0.00
    10   6     0.07   0.03  -0.05     0.04   0.06  -0.01     0.01   0.06  -0.04
    11   1     0.34   0.04   0.19     0.01  -0.30   0.23     0.03  -0.29   0.24
    12   6    -0.07   0.03  -0.05    -0.04   0.06  -0.01     0.01  -0.06   0.04
    13   1    -0.34   0.04   0.19    -0.01  -0.30   0.23     0.03   0.29  -0.24
    14   1     0.12  -0.38   0.00     0.00   0.00  -0.24     0.00   0.00  -0.41
    15   1    -0.12  -0.38   0.00     0.00   0.00  -0.24     0.00   0.00   0.41
                     19                     20                     21
                      A                      A                      A
 Frequencies --   1048.3563              1062.8610              1082.1360
 Red. masses --      1.1855                 2.2988                 1.7507
 Frc consts  --      0.7676                 1.5301                 1.2079
 IR Inten    --      0.3063                 0.0000                 0.1332
  Atom  AN      X      Y      Z        X      Y      Z        X      Y      Z
     1   6     0.00   0.02  -0.01     0.07  -0.14   0.06     0.02  -0.03  -0.04
     2   6     0.00  -0.07   0.00     0.00   0.00  -0.06     0.00   0.00   0.14
     3   6     0.00   0.07   0.00     0.00   0.00   0.06     0.00   0.00   0.14
     4   6     0.00  -0.02   0.01     0.07   0.14  -0.06    -0.02  -0.03  -0.04
     5   1     0.20   0.05  -0.18     0.13   0.11   0.21     0.01   0.20   0.16
     6   1     0.20  -0.05   0.18     0.13  -0.11  -0.21    -0.01   0.20   0.16
     7   6    -0.06   0.00   0.00     0.00   0.00   0.00     0.00   0.00  -0.14
     8   1    -0.27   0.00   0.00    -0.27   0.00   0.00     0.00   0.36   0.13
     9   1    -0.27   0.00   0.00     0.27   0.00   0.00     0.00  -0.36   0.13
    10   6     0.00   0.02   0.01    -0.07   0.14   0.06    -0.02   0.03  -0.04
    11   1     0.20   0.05   0.18    -0.13  -0.11   0.21    -0.01  -0.20   0.16
    12   6     0.00  -0.02  -0.01    -0.07  -0.14  -0.06     0.02   0.03  -0.04
    13   1     0.20  -0.05  -0.18    -0.13   0.11  -0.21     0.01  -0.20   0.16
    14   1     0.13  -0.50   0.00     0.00   0.00   0.48     0.00   0.00  -0.44
    15   1     0.13   0.50   0.00     0.00   0.00  -0.48     0.00   0.00  -0.44
                     22                     23                     24
                      A                      A                      A
 Frequencies --   1110.0626              1201.4360              1228.3300
 Red. masses --      2.2908                 1.2133                 1.3611
 Frc consts  --      1.6631                 1.0318                 1.2099
 IR Inten    --      2.7807                 0.0000                 0.0000
  Atom  AN      X      Y      Z        X      Y      Z        X      Y      Z
     1   6     0.07  -0.02   0.15     0.01   0.00   0.00    -0.06  -0.03   0.05
     2   6    -0.01  -0.02   0.00     0.00   0.00  -0.09     0.00   0.00  -0.02
     3   6     0.01  -0.02   0.00     0.00   0.00   0.09     0.00   0.00   0.02
     4   6    -0.07  -0.02   0.15     0.01   0.00   0.00    -0.06   0.03  -0.05
     5   1    -0.10  -0.24   0.17    -0.11  -0.06   0.08     0.37   0.10  -0.26
     6   1     0.10  -0.24   0.17    -0.11   0.06  -0.08     0.37  -0.10   0.26
     7   6     0.00   0.09   0.00     0.00   0.00   0.00     0.00   0.00   0.00
     8   1     0.00   0.09   0.00     0.65   0.00   0.00     0.21   0.00   0.00
     9   1     0.00   0.09   0.00    -0.65   0.00   0.00    -0.21   0.00   0.00
    10   6     0.07  -0.02  -0.15    -0.01   0.00   0.00     0.06   0.03   0.05
    11   1    -0.10  -0.24  -0.17     0.11   0.06   0.08    -0.37  -0.10  -0.26
    12   6    -0.07  -0.02  -0.15    -0.01   0.00   0.00     0.06  -0.03  -0.05
    13   1     0.10  -0.24  -0.17     0.11  -0.06  -0.08    -0.37   0.10   0.26
    14   1    -0.15   0.47   0.00     0.00   0.00   0.17     0.00   0.00  -0.10
    15   1     0.15   0.47   0.00     0.00   0.00  -0.17     0.00   0.00   0.10
                     25                     26                     27
                      A                      A                      A
 Frequencies --   1250.7995              1289.0132              1302.6112
 Red. masses --      1.4856                 1.8075                 2.8968
 Frc consts  --      1.3694                 1.7695                 2.8960
 IR Inten    --      0.0306                22.0704                 2.8982
  Atom  AN      X      Y      Z        X      Y      Z        X      Y      Z
     1   6     0.05   0.01  -0.03    -0.13   0.03   0.02     0.15   0.06  -0.09
     2   6    -0.09   0.09   0.00     0.00   0.00   0.04    -0.11  -0.05   0.00
     3   6    -0.09  -0.09   0.00     0.00   0.00   0.04     0.11  -0.05   0.00
     4   6     0.05  -0.01   0.03     0.13   0.03   0.02    -0.15   0.06  -0.09
     5   1    -0.24  -0.18   0.11     0.26   0.06  -0.35    -0.31  -0.21   0.14
     6   1    -0.24   0.18  -0.11    -0.26   0.06  -0.35     0.31  -0.21   0.14
     7   6     0.02   0.00   0.00     0.00   0.00   0.01     0.00   0.00   0.00
     8   1     0.15   0.00   0.00     0.00  -0.01   0.01     0.00  -0.09  -0.05
     9   1     0.15   0.00   0.00     0.00   0.01   0.01     0.00  -0.09   0.05
    10   6     0.05   0.01   0.03     0.13  -0.03   0.02     0.15   0.06   0.09
    11   1    -0.24  -0.18  -0.11    -0.26  -0.06  -0.35    -0.31  -0.21  -0.14
    12   6     0.05  -0.01  -0.03    -0.13  -0.03   0.02    -0.15   0.06   0.09
    13   1    -0.24   0.18   0.11     0.26  -0.06  -0.35     0.31  -0.21  -0.14
    14   1     0.09  -0.49   0.00     0.00   0.00  -0.29    -0.06  -0.28   0.00
    15   1     0.09   0.49   0.00     0.00   0.00  -0.29     0.06  -0.28   0.00
                     28                     29                     30
                      A                      A                      A
 Frequencies --   1309.6912              1377.0505              1408.1004
 Red. masses --      2.1128                 2.5930                 2.8338
 Frc consts  --      2.1353                 2.8970                 3.3105
 IR Inten    --      4.5513                 0.5883                 0.0308
  Atom  AN      X      Y      Z        X      Y      Z        X      Y      Z
     1   6     0.01  -0.03   0.05     0.02  -0.04   0.08     0.04   0.09  -0.13
     2   6    -0.09   0.04   0.00    -0.05   0.21   0.00    -0.01  -0.17   0.00
     3   6    -0.09  -0.04   0.00     0.05   0.21   0.00    -0.01   0.17   0.00
     4   6     0.01   0.03  -0.05    -0.02  -0.04   0.08     0.04  -0.09   0.13
     5   1     0.06  -0.08  -0.03     0.01  -0.13   0.05    -0.33  -0.03   0.10
     6   1     0.06   0.08   0.03    -0.01  -0.13   0.05    -0.33   0.03  -0.10
     7   6     0.26   0.00   0.00     0.00  -0.12   0.00     0.05   0.00   0.00
     8   1    -0.64   0.00   0.00     0.00  -0.18  -0.04    -0.33   0.00   0.00
     9   1    -0.64   0.00   0.00     0.00  -0.18   0.04    -0.33   0.00   0.00
    10   6     0.01  -0.03  -0.05     0.02  -0.04  -0.08     0.04   0.09   0.13
    11   1     0.06  -0.08   0.03     0.01  -0.13  -0.05    -0.33  -0.03  -0.10
    12   6     0.01   0.03   0.05    -0.02  -0.04  -0.08     0.04  -0.09  -0.13
    13   1     0.06   0.08  -0.03    -0.01  -0.13  -0.05    -0.33   0.03   0.10
    14   1    -0.11   0.06   0.00     0.20  -0.56   0.00    -0.15   0.23   0.00
    15   1    -0.11  -0.06   0.00    -0.20  -0.56   0.00    -0.15  -0.23   0.00
                     31                     32                     33
                      A                      A                      A
 Frequencies --   1477.8894              3060.9670              3107.1074
 Red. masses --      1.1228                 1.0585                 1.1063
 Frc consts  --      1.4449                 5.8435                 6.2928
 IR Inten    --      1.7348                59.7552                30.5758
  Atom  AN      X      Y      Z        X      Y      Z        X      Y      Z
     1   6     0.01   0.00   0.00     0.00   0.00   0.00     0.00   0.00   0.00
     2   6    -0.02   0.00   0.00     0.00   0.00   0.00     0.00   0.00   0.00
     3   6     0.02   0.00   0.00     0.00   0.00   0.00     0.00   0.00   0.00
     4   6    -0.01   0.00   0.00     0.00   0.00   0.00     0.00   0.00   0.00
     5   1    -0.01  -0.02   0.00     0.00   0.00   0.00     0.00   0.00   0.00
     6   1     0.01  -0.02   0.00     0.00   0.00   0.00     0.00   0.00   0.00
     7   6     0.00  -0.10   0.00     0.00   0.07   0.00     0.00   0.00   0.09
     8   1     0.00   0.55   0.44     0.00  -0.40   0.58     0.00   0.42  -0.57
     9   1     0.00   0.55  -0.44     0.00  -0.40  -0.58     0.00  -0.42  -0.57
    10   6     0.01   0.00   0.00     0.00   0.00   0.00     0.00   0.00   0.00
    11   1    -0.01  -0.02   0.00     0.00   0.00   0.00     0.00   0.00   0.00
    12   6    -0.01   0.00   0.00     0.00   0.00   0.00     0.00   0.00   0.00
    13   1     0.01  -0.02   0.00     0.00   0.00   0.00     0.00   0.00   0.00
    14   1    -0.01  -0.04   0.00     0.03   0.01   0.00     0.00   0.00   0.00
    15   1     0.01  -0.04   0.00    -0.03   0.01   0.00     0.00   0.00   0.00
                     34                     35                     36
                      A                      A                      A
 Frequencies --   3213.6073              3216.7657              3234.0774
 Red. masses --      1.0909                 1.0923                 1.0897
 Frc consts  --      6.6380                 6.6595                 6.7150
 IR Inten    --     16.6506                 7.2164                 0.0002
  Atom  AN      X      Y      Z        X      Y      Z        X      Y      Z
     1   6    -0.01   0.00   0.00     0.01   0.00   0.00     0.03  -0.02   0.03
     2   6     0.06   0.02   0.00    -0.06  -0.02   0.00     0.00   0.00   0.00
     3   6     0.06  -0.02   0.00     0.06  -0.02   0.00     0.00   0.00   0.00
     4   6    -0.01   0.00   0.00    -0.01   0.00   0.00     0.03   0.02  -0.03
     5   1     0.06  -0.04   0.06    -0.06   0.04  -0.06    -0.30   0.24  -0.32
     6   1     0.06   0.04  -0.06     0.06   0.04  -0.06    -0.30  -0.24   0.31
     7   6     0.00   0.00   0.00     0.00  -0.01   0.00     0.00   0.00   0.00
     8   1     0.00   0.00   0.00     0.00   0.02  -0.02     0.00   0.00   0.00
     9   1     0.00   0.00   0.00     0.00   0.02   0.02     0.00   0.00   0.00
    10   6    -0.01   0.00   0.00     0.01   0.00   0.00    -0.03   0.02   0.03
    11   1     0.06  -0.04  -0.06    -0.06   0.04   0.06     0.30  -0.24  -0.32
    12   6    -0.01   0.00   0.00    -0.01   0.00   0.00    -0.03  -0.02  -0.03
    13   1     0.06   0.04   0.06     0.06   0.04   0.06     0.30   0.24   0.31
    14   1    -0.67  -0.21   0.00     0.65   0.20   0.00     0.00   0.00   0.00
    15   1    -0.65   0.20   0.00    -0.67   0.21   0.00     0.00   0.00   0.00
                     37                     38                     39
                      A                      A                      A
 Frequencies --   3243.3289              3244.7089              3254.7609
 Red. masses --      1.0926                 1.0964                 1.1037
 Frc consts  --      6.7717                 6.8008                 6.8889
 IR Inten    --     22.7018                24.2404                 6.5467
  Atom  AN      X      Y      Z        X      Y      Z        X      Y      Z
     1   6    -0.03   0.02  -0.03     0.02  -0.02   0.03    -0.03   0.02  -0.03
     2   6     0.00   0.00   0.00     0.01   0.01   0.00    -0.01  -0.01   0.00
     3   6     0.00   0.00   0.00     0.01  -0.01   0.00     0.01  -0.01   0.00
     4   6     0.03   0.02  -0.03     0.03   0.02  -0.03     0.03   0.02  -0.03
     5   1     0.31  -0.24   0.32    -0.29   0.24  -0.31     0.30  -0.24   0.31
     6   1    -0.30  -0.24   0.31    -0.30  -0.24   0.31    -0.30  -0.24   0.31
     7   6     0.00   0.00   0.00     0.00   0.00   0.00     0.00   0.00   0.00
     8   1     0.00   0.00   0.00     0.00   0.00   0.00     0.00   0.01  -0.01
     9   1     0.00   0.00   0.00     0.00   0.00   0.00     0.00   0.01   0.01
    10   6     0.03  -0.02  -0.03     0.03  -0.02  -0.03    -0.03   0.02   0.03
    11   1    -0.30   0.24   0.31    -0.30   0.24   0.31     0.30  -0.24  -0.31
    12   6    -0.03  -0.02  -0.03     0.02   0.02   0.03     0.03   0.02   0.03
    13   1     0.31   0.24   0.32    -0.29  -0.23  -0.31    -0.30  -0.24  -0.31
    14   1     0.00   0.00   0.00    -0.12  -0.04   0.00     0.13   0.04   0.00
    15   1     0.00   0.00   0.00    -0.12   0.04   0.00    -0.13   0.04   0.00

 -------------------
 - Thermochemistry -
 -------------------
 Temperature   298.150 Kelvin.  Pressure   1.00000 Atm.
 Atom     1 has atomic number  6 and mass  12.00000
 Atom     2 has atomic number  6 and mass  12.00000
 Atom     3 has atomic number  6 and mass  12.00000
 Atom     4 has atomic number  6 and mass  12.00000
 Atom     5 has atomic number  1 and mass   1.00783
 Atom     6 has atomic number  1 and mass   1.00783
 Atom     7 has atomic number  6 and mass  12.00000
 Atom     8 has atomic number  1 and mass   1.00783
 Atom     9 has atomic number  1 and mass   1.00783
 Atom    10 has atomic number  6 and mass  12.00000
 Atom    11 has atomic number  1 and mass   1.00783
 Atom    12 has atomic number  6 and mass  12.00000
 Atom    13 has atomic number  1 and mass   1.00783
 Atom    14 has atomic number  1 and mass   1.00783
 Atom    15 has atomic number  1 and mass   1.00783
 Molecular mass:    92.06260 amu.
 Principal axes and moments of inertia in atomic units:
                           1         2         3
     Eigenvalues --   404.79142 410.38228 549.00154
           X            1.00000   0.00000   0.00000
           Y            0.00000   1.00000   0.00000
           Z            0.00000   0.00000   1.00000
 This molecule is an asymmetric top.
 Rotational symmetry number  1.
 Rotational temperatures (Kelvin)      0.21397     0.21106     0.15777
 Rotational constants (GHZ):           4.45845     4.39771     3.28732
 Zero-point vibrational energy     339013.8 (Joules/Mol)
                                   81.02623 (Kcal/Mol)
 Warning -- explicit consideration of   2 degrees of freedom as
           vibrations may cause significant error
 Vibrational temperatures:    545.09   780.43   985.64  1027.41  1052.48
          (Kelvin)           1072.46  1133.85  1166.57  1213.61  1262.18
                             1332.83  1333.88  1359.30  1403.55  1422.43
                             1460.78  1473.51  1490.93  1508.35  1529.22
                             1556.95  1597.13  1728.60  1767.29  1799.62
                             1854.60  1874.16  1884.35  1981.27  2025.94
                             2126.35  4404.04  4470.43  4623.66  4628.20
                             4653.11  4666.42  4668.41  4682.87
 
 Zero-point correction=                           0.129124 (Hartree/Particle)
 Thermal correction to Energy=                    0.133718
 Thermal correction to Enthalpy=                  0.134663
 Thermal correction to Gibbs Free Energy=         0.101253
 Sum of electronic and zero-point Energies=           -271.342348
 Sum of electronic and thermal Energies=              -271.337753
 Sum of electronic and thermal Enthalpies=            -271.336809
 Sum of electronic and thermal Free Energies=         -271.370219
 
                     E (Thermal)             CV                S
                      KCal/Mol        Cal/Mol-Kelvin    Cal/Mol-Kelvin
 Total                   83.910             19.958             70.317
 Electronic               0.000              0.000              0.000
 Translational            0.889              2.981             39.472
 Rotational               0.889              2.981             26.014
 Vibrational             82.132             13.997              4.831
 Vibration     1          0.749              1.515              1.044
 Vibration     2          0.898              1.156              0.560
                       Q            Log10(Q)             Ln(Q)
 Total Bot       0.267369D-46        -46.572889       -107.238041
 Total V=0       0.660210D+13         12.819682         29.518409
 Vib (Bot)       0.712340D-59        -59.147313       -136.191720
 Vib (Bot)    1  0.477624D+00         -0.320913         -0.738931
 Vib (Bot)    2  0.291417D+00         -0.535485         -1.232999
 Vib (V=0)       0.175897D+01          0.245259          0.564730
 Vib (V=0)    1  0.119147D+01          0.076082          0.175184
 Vib (V=0)    2  0.107873D+01          0.032911          0.075781
 Electronic      0.100000D+01          0.000000          0.000000
 Translational   0.347200D+08          7.540580         17.362827
 Rotational      0.108104D+06          5.033843         11.590852
 ***** Axes restored to original set *****
 -------------------------------------------------------------------
 Center     Atomic                   Forces (Hartrees/Bohr)
 Number     Number              X              Y              Z
 -------------------------------------------------------------------
      1        6           0.000106072    0.000058885   -0.000213005
      2        6           0.000023934   -0.000033316    0.000000352
      3        6          -0.000016460   -0.000034634   -0.000000312
      4        6          -0.000100231    0.000061421   -0.000217764
      5        1           0.000037235   -0.000017406    0.000034445
      6        1          -0.000041010   -0.000020115    0.000038263
      7        6          -0.000001912   -0.000328474    0.000000244
      8        1           0.000000082    0.000079724   -0.000015926
      9        1           0.000000194    0.000079753    0.000015924
     10        6           0.000106682    0.000060463    0.000217293
     11        1           0.000039538   -0.000019381   -0.000037638
     12        6          -0.000107442    0.000060876    0.000217180
     13        1          -0.000040944   -0.000019973   -0.000038682
     14        1           0.000093171    0.000035082    0.000000056
     15        1          -0.000098911    0.000037096   -0.000000428
 -------------------------------------------------------------------
 Cartesian Forces:  Max     0.000328474 RMS     0.000094833

 GradGradGradGradGradGradGradGradGradGradGradGradGradGradGradGradGradGrad
 Berny optimization.
 Search for a local minimum.
 Step number   1 out of a maximum of    2
 All quantities printed in internal units (Hartrees-Bohrs-Radians)
 Second derivative matrix not updated -- analytic derivatives used.
 ITU=  0
     Eigenvalues ---    0.00971   0.02206   0.02256   0.02912   0.03135
     Eigenvalues ---    0.03190   0.04184   0.04241   0.04301   0.04357
     Eigenvalues ---    0.04805   0.05398   0.07952   0.08347   0.13104
     Eigenvalues ---    0.13307   0.15631   0.15969   0.17197   0.17510
     Eigenvalues ---    0.19297   0.26264   0.26566   0.26619   0.32755
     Eigenvalues ---    0.36508   0.39627   0.44735   0.44832   0.59543
     Eigenvalues ---    0.62494   0.80939   0.83204   0.95930   0.96616
     Eigenvalues ---    0.96840   1.00496   1.11344   1.14511
 Angle between quadratic step and forces=  44.78 degrees.
 Linear search not attempted -- first point.
 TrRot=  0.000001 -0.000060  0.000001  0.000000  0.000000  0.000000
 Variable       Old X    -DE/DX   Delta X   Delta X   Delta X     New X
                                 (Linear)    (Quad)   (Total)
    X1        1.45609   0.00011   0.00000   0.00031   0.00031   1.45640
    Y1       -1.33127   0.00006   0.00000   0.00001  -0.00005  -1.33132
    Z1        1.42568  -0.00021   0.00000  -0.00030  -0.00030   1.42539
    X2        2.16351   0.00002   0.00000   0.00041   0.00041   2.16392
    Y2        1.03421  -0.00003   0.00000   0.00001  -0.00005   1.03416
    Z2        0.00000   0.00000   0.00000   0.00000   0.00000   0.00000
    X3       -2.16355  -0.00002   0.00000  -0.00041  -0.00041  -2.16395
    Y3        1.03415  -0.00003   0.00000   0.00001  -0.00005   1.03410
    Z3        0.00000   0.00000   0.00000   0.00000   0.00000   0.00000
    X4       -1.45607  -0.00010   0.00000  -0.00030  -0.00029  -1.45637
    Y4       -1.33131   0.00006   0.00000   0.00001  -0.00005  -1.33136
    Z4        1.42568  -0.00022   0.00000  -0.00030  -0.00030   1.42538
    X5        2.68560   0.00004   0.00000   0.00032   0.00032   2.68593
    Y5       -2.31603  -0.00002   0.00000   0.00002  -0.00004  -2.31607
    Z5        2.72039   0.00003   0.00000  -0.00008  -0.00008   2.72032
    X6       -2.68555  -0.00004   0.00000  -0.00033  -0.00032  -2.68587
    Y6       -2.31611  -0.00002   0.00000   0.00002  -0.00004  -2.31614
    Z6        2.72037   0.00004   0.00000  -0.00006  -0.00006   2.72031
    X7       -0.00004   0.00000   0.00000   0.00000   0.00000  -0.00004
    Y7        2.89017  -0.00033   0.00000  -0.00070  -0.00076   2.88940
    Z7        0.00000   0.00000   0.00000   0.00000   0.00000   0.00000
    X8       -0.00006   0.00000   0.00000   0.00000   0.00000  -0.00005
    Y8        4.09020   0.00008   0.00000   0.00021   0.00015   4.09035
    Z8       -1.67999  -0.00002   0.00000   0.00037   0.00037  -1.67962
    X9       -0.00006   0.00000   0.00000   0.00000   0.00000  -0.00006
    Y9        4.09020   0.00008   0.00000   0.00021   0.00015   4.09035
    Z9        1.67999   0.00002   0.00000  -0.00037  -0.00037   1.67962
   X10        1.45609   0.00011   0.00000   0.00031   0.00031   1.45640
   Y10       -1.33127   0.00006   0.00000   0.00001  -0.00005  -1.33132
   Z10       -1.42568   0.00022   0.00000   0.00030   0.00031  -1.42538
   X11        2.68560   0.00004   0.00000   0.00033   0.00033   2.68593
   Y11       -2.31603  -0.00002   0.00000   0.00002  -0.00004  -2.31607
   Z11       -2.72037  -0.00004   0.00000   0.00007   0.00007  -2.72031
   X12       -1.45605  -0.00011   0.00000  -0.00031  -0.00031  -1.45636
   Y12       -1.33131   0.00006   0.00000   0.00001  -0.00005  -1.33136
   Z12       -1.42568   0.00022   0.00000   0.00030   0.00030  -1.42538
   X13       -2.68553  -0.00004   0.00000  -0.00034  -0.00034  -2.68587
   Y13       -2.31611  -0.00002   0.00000   0.00002  -0.00004  -2.31615
   Z13       -2.72037  -0.00004   0.00000   0.00006   0.00006  -2.72031
   X14        4.11388   0.00009   0.00000   0.00051   0.00051   4.11439
   Y14        1.64189   0.00004   0.00000   0.00051   0.00045   1.64234
   Z14        0.00000   0.00000   0.00000   0.00000   0.00001   0.00001
   X15       -4.11391  -0.00010   0.00000  -0.00052  -0.00052  -4.11444
   Y15        1.64178   0.00004   0.00000   0.00052   0.00046   1.64223
   Z15        0.00000   0.00000   0.00000   0.00000   0.00000   0.00000
         Item               Value     Threshold  Converged?
 Maximum Force            0.000328     0.000450     YES
 RMS     Force            0.000095     0.000300     YES
 Maximum Displacement     0.000763     0.001800     YES
 RMS     Displacement     0.000275     0.001200     YES
 Predicted change in Energy=-4.196646D-07
 Optimization completed.
    -- Stationary point found.
 GradGradGradGradGradGradGradGradGradGradGradGradGradGradGradGradGradGrad

 1\1\GINC-D11S0B3\Freq\RwB97XD\Gen\C7H8\PMMASS\09-Feb-2022\0\\#n wB97XD
 /Gen scrf(smd,solvent=toluene) freq\\quadricyclane cycloaddition tolue
 ne - freq\\0,1\C,0.77053,-0.70448,0.75444\C,1.14488,0.54728,0.\C,-1.14
 49,0.54725,0.\C,-0.77052,-0.7045,0.75444\H,1.42116,-1.22559,1.43957\H,
 -1.42113,-1.22563,1.43956\C,-0.00002,1.52941,0.\H,-0.00003,2.16444,-0.
 88901\H,-0.00003,2.16444,0.88901\C,0.77053,-0.70448,-0.75444\H,1.42116
 ,-1.22559,-1.43956\C,-0.77051,-0.7045,-0.75444\H,-1.42112,-1.22563,-1.
 43956\H,2.17697,0.86885,0.\H,-2.17699,0.86879,0.\\Version=ES64L-G09Rev
 D.01\State=1-A\HF=-271.4714713\RMSD=2.395e-09\RMSF=9.483e-05\ZeroPoint
 =0.1291235\Thermal=0.1337183\Dipole=-0.0000029,0.0004795,0.0000007\Dip
 oleDeriv=0.0592551,0.0196025,0.1066524,0.0496749,-0.0067843,0.1170915,
 0.0377152,0.1102296,-0.1537294,-0.0014401,-0.0238483,-0.0000002,-0.090
 9691,-0.0737809,0.0000005,0.0000002,0.000001,0.122709,-0.0014574,0.023
 8547,-0.0000003,0.0909703,-0.0737785,-0.0000005,-0.0000005,0.000002,0.
 1227117,0.059249,-0.019605,-0.1066487,-0.0496714,-0.0067874,0.1170908,
 -0.0377162,0.1102308,-0.1537443,-0.0236992,0.0537088,-0.0784899,0.0356
 084,0.05821,0.0935361,-0.0541582,0.0867251,0.0085692,-0.0236938,-0.053
 7083,0.0784834,-0.0356101,0.0582073,0.0935382,0.0541529,0.0867237,0.00
 85757,-0.0539718,-0.0000031,0.0000006,-0.0000041,0.0568429,-0.0000002,
 0.0000002,0.,0.2064254,0.0698653,0.0000025,-0.0000015,0.0000026,-0.079
 6726,0.0858225,-0.0000025,0.1624765,-0.0827747,0.0698657,0.0000021,0.0
 000012,0.0000024,-0.0796727,-0.0858226,0.0000022,-0.1624767,-0.0827746
 ,0.0592505,0.0196028,-0.1066524,0.0496754,-0.0067856,-0.1170909,-0.037
 719,-0.1102324,-0.1537361,-0.0236956,0.053707,0.078488,0.0356082,0.058
 2104,-0.0935365,0.0541559,-0.0867231,0.0085733,0.0592594,-0.0196014,0.
 1066529,-0.0496706,-0.0067871,-0.1170896,0.0377234,-0.1102314,-0.15373
 67,-0.0236944,-0.0537087,-0.0784848,-0.0356114,0.0582063,-0.0935398,-0
 .0541539,-0.0867246,0.0085724,-0.1125473,-0.054918,0.,-0.0398981,0.022
 1847,0.0000003,0.0000004,0.,0.1471793,-0.1125454,0.0549124,-0.0000007,
 0.0398925,0.0221875,0.0000001,-0.0000002,-0.0000005,0.1471799\Polar=80
 .0885164,-0.0000458,83.2798928,0.0000299,-0.0000821,76.0662185\PG=C01 
 [X(C7H8)]\NImag=0\\0.52307300,-0.10159332,0.36844791,0.12779869,-0.205
 23614,0.52934796,-0.07705509,-0.01731664,0.01538148,0.71120351,-0.0230
 5572,-0.14556846,0.10189189,0.07605798,0.52254999,0.00864413,0.0557016
 2,-0.06449621,0.00000033,0.00000027,0.24289588,-0.02008432,0.02632608,
 -0.00416792,-0.05153640,-0.00411121,0.00000004,0.71122348,0.01611547,-
 0.00059757,-0.00311163,0.00410819,0.00917136,-0.00000009,-0.07606089,0
 .52254491,-0.01379033,0.00623974,-0.00200922,-0.00000003,-0.00000004,0
 .00213567,0.00000048,-0.00000155,0.24289517,-0.18080316,0.00323887,0.0
 1357742,-0.02008345,-0.01611571,0.01378979,-0.07705788,0.02305710,-0.0
 0864500,0.52307510,-0.00324126,-0.06532566,0.02173035,-0.02632645,-0.0
 0059830,0.00623985,0.01731947,-0.14556909,0.05570248,0.10160342,0.3684
 6023,-0.01357835,0.02172996,-0.03716419,0.00416806,-0.00311177,-0.0020
 0907,-0.01538405,0.10189262,-0.06449683,-0.12780071,-0.20524771,0.5293
 5258,-0.16530428,0.09424415,-0.11668804,0.00634881,-0.00427794,0.00806
 827,-0.00297413,-0.00142766,-0.00015265,-0.00179075,0.01270205,-0.0137
 7400,0.16330565,0.09293867,-0.10701982,0.10056628,0.01846167,-0.005395
 37,0.01251752,-0.00006620,-0.00226722,0.00002227,-0.00354624,-0.000474
 39,-0.00364174,-0.09607940,0.11003892,-0.11465851,0.10154401,-0.165752
 66,0.00225700,-0.00100354,-0.00465836,0.00210535,-0.00131493,-0.000239
 48,0.00130979,-0.00764038,0.00474303,0.12359835,-0.10677277,0.16918408
 ,-0.00179063,-0.01270229,0.01377416,-0.00297421,0.00142765,0.00015262,
 0.00634936,0.00427840,-0.00806872,-0.16530430,-0.09425281,0.11669245,0
 .00089058,0.00047374,-0.00051403,0.16330557,0.00354620,-0.00047454,-0.
 00364149,0.00006622,-0.00226718,0.00002226,-0.01846147,-0.00539587,0.0
 1251707,-0.09294738,-0.10702924,0.10057683,-0.00047372,0.00059478,0.00
 060781,0.09608795,0.11004824,-0.00130969,-0.00764057,0.00474306,-0.002
 10535,-0.00131500,-0.00023946,-0.00225709,-0.00100369,-0.00465833,0.11
 466292,0.10155417,-0.16575703,0.00051401,0.00060783,0.00055045,-0.1236
 0242,-0.10678311,0.16918830,0.00211988,0.00522899,-0.00135221,-0.15023
 648,0.06447924,0.00000004,-0.15022934,-0.06447683,-0.00000012,0.002119
 92,-0.00522856,0.00135233,-0.00082205,-0.00043331,0.00055579,-0.000822
 10,0.00043331,-0.00055580,0.40564907,0.00617632,-0.02437429,0.00265458
 ,0.05961048,-0.12444621,0.00000005,-0.05960893,-0.12444789,0.00000005,
 -0.00617554,-0.02437453,0.00265463,-0.00030610,-0.00088317,-0.00098373
 ,0.00030612,-0.00088319,-0.00098378,-0.00000505,0.59079072,-0.01530407
 ,0.02155472,-0.00343646,-0.00000008,0.00000009,-0.06911242,-0.00000006
 ,0.00000016,-0.06911340,0.01530355,0.02155499,-0.00343646,0.00177845,0
 .00395432,0.00063079,-0.00177860,0.00395431,0.00063081,0.00000010,0.00
 000009,0.60625560,-0.00502203,0.00240821,-0.00057307,0.00159265,0.0170
 2912,-0.02327315,0.00159303,-0.01702875,0.02327278,-0.00502191,-0.0024
 0831,0.00057305,0.00060847,0.00112269,0.00018357,0.00060851,-0.0011226
 7,-0.00018357,-0.04563028,0.00000131,-0.00000181,0.04847557,0.00161315
 ,-0.00204610,0.00157638,-0.00198867,-0.01065799,0.01422045,0.00198897,
 -0.01065834,0.01422102,-0.00161318,-0.00204619,0.00157637,-0.00019328,
 -0.00097175,-0.00029000,0.00019333,-0.00097176,-0.00029001,0.00000129,
 -0.13245758,0.12037359,-0.00000148,0.14588092,0.00020846,-0.00132451,0
 .00101000,-0.00032179,-0.00138153,0.00085357,0.00032188,-0.00138156,0.
 00085361,-0.00020844,-0.00132452,0.00100999,-0.00010227,-0.00008361,0.
 00010494,0.00010227,-0.00008361,0.00010494,-0.00000185,0.12323219,-0.2
 2673201,0.00000199,-0.13585628,0.24043107,0.00117318,-0.00126914,-0.00
 093257,0.00159265,0.01702913,0.02327312,0.00159304,-0.01702874,-0.0232
 7275,0.00117314,0.00126915,0.00093256,0.00009094,0.00020080,-0.0001175
 1,0.00009095,-0.00020079,0.00011751,-0.04563022,0.00000131,0.00000178,
 -0.00026387,-0.00000017,-0.00000020,0.04847552,-0.00053317,0.00082244,
 0.00007248,-0.00198870,-0.01065795,-0.01422042,0.00198896,-0.01065833,
 -0.01422101,0.00053320,0.00082245,0.00007251,0.00007198,0.00001795,0.0
 0003868,-0.00007197,0.00001794,0.00003868,0.00000132,-0.13245758,-0.12
 037358,-0.00000016,0.01152232,0.01478644,-0.00000146,0.14588093,-0.000
 05480,-0.00111528,0.00112284,0.00032179,0.00138153,0.00085356,-0.00032
 189,0.00138152,0.00085361,0.00005482,-0.00111529,0.00112284,-0.0001398
 4,-0.00022395,0.00007554,0.00013985,-0.00022395,0.00007554,0.00000185,
 -0.12323219,-0.22673200,0.00000019,-0.01478644,-0.01997037,-0.00000194
 ,0.13585628,0.24043106,-0.02680155,0.01801519,-0.01520340,-0.07705512,
 -0.02305569,-0.00864404,-0.02008440,0.01611545,0.01379033,-0.04650683,
 0.01245956,0.02568907,0.00034445,-0.01094356,-0.01289678,-0.00217272,0
 .00195398,0.00143540,0.00211987,0.00617623,0.01530403,0.00117318,-0.00
 053317,0.00005479,-0.00502203,0.00161310,-0.00020847,0.52309043,0.0180
 1507,-0.03228971,-0.02756080,-0.01731653,-0.14556841,-0.05570173,0.026
 32605,-0.00059747,-0.00623957,-0.01246059,0.01074697,0.00892322,-0.005
 34217,0.00434626,0.01557427,0.00058956,0.00022179,0.00118616,0.0052289
 4,-0.02437430,-0.02155477,-0.00126912,0.00082243,0.00111529,0.00240822
 ,-0.00204612,0.00132453,-0.10159866,0.36845052,0.01520337,0.02756059,-
 0.21148566,-0.01538154,-0.10189208,-0.06449606,0.00416792,0.00311156,-
 0.00200930,0.02569010,-0.00892286,-0.04381278,0.00251212,-0.00342557,-
 0.00582746,0.00232984,-0.00278163,-0.00264584,0.00135216,-0.00265460,-
 0.00343644,0.00093258,-0.00007249,0.00112283,0.00057310,-0.00157639,0.
 00100998,-0.12780315,0.20524150,0.52934912,0.00034444,-0.00534218,-0.0
 0251212,0.00634894,-0.00427802,-0.00806836,-0.00297412,-0.00142764,0.0
 0015262,-0.00217264,-0.00058963,0.00232977,0.00098072,0.00049155,0.000
 18331,-0.00020165,0.00068729,0.00066427,-0.00082205,-0.00030612,-0.001
 77848,0.00009095,0.00007198,0.00013985,0.00060848,-0.00019329,0.000102
 27,-0.16530960,0.09424937,0.11669315,0.16331086,-0.01094359,0.00434636
 ,0.00342563,0.01846176,-0.00539549,-0.01251752,-0.00006618,-0.00226724
 ,-0.00002229,-0.00195409,0.00022171,0.00278174,0.00049155,-0.00000814,
 -0.00175199,-0.00068731,0.00038687,0.00042002,-0.00043333,-0.00088317,
 -0.00395433,0.00020079,0.00001794,0.00022395,0.00112269,-0.00097174,0.
 00008361,0.09294406,-0.10702259,-0.10057100,-0.09608468,0.11004163,0.0
 1289703,-0.01557450,-0.00582772,-0.00225704,0.00100351,-0.00465838,-0.
 00210540,0.00131498,-0.00023944,0.00143547,-0.00118610,-0.00264589,-0.
 00018332,0.00175201,0.00276524,0.00066429,-0.00042000,0.00003000,-0.00
 055580,0.00098375,0.00063079,0.00011751,-0.00003868,0.00007554,-0.0001
 8357,0.00029000,0.00010494,0.11466355,-0.10154838,-0.16575480,-0.12360
 348,0.10677716,0.16918644,-0.04650689,-0.01246094,-0.02568986,-0.02008
 361,-0.01611596,-0.01379015,-0.07705732,0.02305730,0.00864478,-0.02680
 118,-0.01801550,0.01520491,-0.00217268,-0.00195400,-0.00143545,0.00034
 394,0.01094355,0.01289650,0.00211995,-0.00617558,-0.01530338,0.0011731
 4,0.00053320,-0.00005483,-0.00502192,-0.00161314,0.00020843,-0.1808150
 1,0.00323889,-0.01357793,-0.00179083,-0.00354630,-0.00130988,0.5230869
 2,0.01245964,0.01074730,0.00892282,-0.02632681,-0.00059849,-0.00623995
 ,0.01731840,-0.14556619,-0.05570075,-0.01801513,-0.03229138,-0.0275607
 9,-0.00058965,0.00022172,0.00118611,0.00534209,0.00434695,0.01557486,-
 0.00522860,-0.02437484,-0.02155527,0.00126914,0.00082247,0.00111529,-0
 .00240835,-0.00204624,0.00132452,-0.00324142,-0.06532536,-0.02173056,0
 .01270224,-0.00047431,0.00764052,0.10160435,0.36845665,-0.02568997,-0.
 00892359,-0.04381337,-0.00416823,0.00311164,-0.00200905,0.01538370,-0.
 10189102,-0.06449581,-0.01520306,0.02756041,-0.21148570,-0.00232978,-0
 .00278167,-0.00264585,-0.00251209,-0.00342568,-0.00582750,-0.00135225,
 -0.00265485,-0.00343662,-0.00093256,-0.00007249,0.00112284,-0.00057310
 ,-0.00157640,0.00100999,0.01357844,-0.02173019,-0.03716434,0.01377423,
 0.00364194,0.00474307,0.12779956,0.20524668,0.52935151,-0.00217270,0.0
 0058960,-0.00232980,-0.00297422,0.00142764,-0.00015262,0.00634936,0.00
 427835,0.00806879,0.00034409,0.00534215,0.00251206,-0.00020165,-0.0006
 8731,-0.00066430,0.00098076,-0.00049155,-0.00018328,-0.00082209,0.0003
 0614,0.00177860,0.00009095,-0.00007198,-0.00013985,0.00060851,0.000193
 33,-0.00010227,-0.00179082,-0.01270246,-0.01377445,0.00089060,0.000473
 74,0.00051405,-0.16530453,-0.09425250,-0.11669198,0.16330582,0.0019539
 5,0.00022176,0.00278164,0.00006619,-0.00226720,-0.00002229,-0.01846139
 ,-0.00539592,-0.01251729,0.01094349,0.00434695,0.00342592,0.00068730,0
 .00038686,0.00042000,-0.00049153,-0.00000820,-0.00175204,0.00043330,-0
 .00088319,-0.00395428,-0.00020079,0.00001794,0.00022395,-0.00112266,-0
 .00097176,0.00008362,0.00354629,-0.00047447,0.00364151,-0.00047373,0.0
 0059478,-0.00060782,-0.09294729,-0.10702902,-0.10057684,0.09608777,0.1
 1004808,-0.00143539,-0.00118611,-0.00264596,0.00210535,0.00131504,-0.0
 0023943,0.00225711,0.00100377,-0.00465828,-0.01289675,-0.01557501,-0.0
 0582801,-0.00066430,-0.00042001,0.00003000,0.00018329,0.00175204,0.002
 76531,0.00055578,0.00098378,0.00063083,-0.00011751,-0.00003868,0.00007
 554,0.00018357,0.00029001,0.00010494,0.00130971,0.00764048,0.00474310,
 -0.00051402,-0.00060782,0.00055044,-0.11466242,-0.10155408,-0.16575685
 ,0.12360215,0.10678307,0.16918865,-0.00100984,0.00121026,-0.00124655,-
 0.32216269,-0.08474506,-0.00000001,-0.00292549,0.00169543,0.,-0.000160
 01,0.00057692,-0.00016379,0.00062340,-0.00012906,-0.00001691,0.0000725
 2,-0.00014997,-0.00011031,-0.00955728,-0.00965532,0.,0.00026582,0.0001
 9724,-0.00037858,0.00026582,0.00019724,0.00037858,-0.00100981,0.001210
 27,0.00124655,0.00062340,-0.00012906,0.00001691,-0.00016003,0.00057692
 ,0.00016378,0.00007252,-0.00014997,0.00011032,0.33581573,-0.01418397,-
 0.00438716,-0.00316888,-0.08156233,-0.07483409,-0.00000002,0.00400637,
 -0.00346599,-0.00000002,-0.00073251,-0.00250242,-0.00090309,0.00023036
 ,0.00147323,0.00084248,-0.00026252,-0.00005987,-0.00045602,0.01826013,
 0.01202465,0.,-0.00090077,0.00036284,0.00036925,-0.00090077,0.00036283
 ,-0.00036925,-0.01418395,-0.00438713,0.00316887,0.00023036,0.00147325,
 -0.00084249,-0.00073253,-0.00250244,0.00090311,-0.00026252,-0.00005987
 ,0.00045603,0.09014445,0.07517316,0.02304763,0.00306999,0.00129521,0.0
 0000004,0.,-0.03285087,-0.00000002,0.,-0.00196936,0.00197806,0.0036000
 5,-0.00088760,-0.00122639,-0.00230924,0.00023801,0.00121058,0.00023836
 ,0.00080174,0.00000001,-0.00000001,-0.00167150,0.00009025,-0.00026137,
 -0.00003124,-0.00009025,0.00026136,-0.00003124,-0.02304769,-0.00306997
 ,0.00129521,0.00122641,0.00230925,0.00023800,-0.00197807,-0.00360010,-
 0.00088762,-0.00121059,-0.00023837,0.00080173,0.00000003,0.00000003,0.
 03297209,-0.00016003,-0.00057684,0.00016379,-0.00292528,-0.00169545,0.
 ,-0.32218488,0.08474482,-0.00000016,-0.00101013,-0.00121022,0.00124664
 ,0.00007251,0.00014997,0.00011032,0.00062340,0.00012904,0.00001691,-0.
 00955681,0.00965472,-0.00000004,0.00026581,-0.00019723,0.00037857,0.00
 026579,-0.00019723,-0.00037857,-0.00016004,-0.00057686,-0.00016380,0.0
 0007252,0.00014997,-0.00011032,-0.00100995,-0.00121032,-0.00124668,0.0
 0062339,0.00012906,-0.00001689,-0.00075408,0.00085021,0.,0.33583777,0.
 00073256,-0.00250246,-0.00090312,-0.00400635,-0.00346621,0.,0.08156199
 ,-0.07482914,-0.00000010,0.01418428,-0.00438712,-0.00316869,0.00026252
 ,-0.00005986,-0.00045602,-0.00023041,0.00147327,0.00084250,-0.01826084
 ,0.01202459,-0.00000005,0.00090078,0.00036286,0.00036927,0.00090077,0.
 00036285,-0.00036927,0.00073258,-0.00250240,0.00090314,0.00026251,-0.0
 0005986,0.00045602,0.01418394,-0.00438681,0.00316896,-0.00023040,0.001
 47325,-0.00084249,-0.00085029,0.00132901,0.,-0.09014364,0.07516803,-0.
 00197819,0.00360006,-0.00088762,0.00000002,0.,-0.00196938,-0.00000005,
 -0.00000015,-0.03284862,-0.02304794,0.00306957,0.00129513,-0.00121060,
 0.00023834,0.00080173,0.00122650,-0.00230924,0.00023800,-0.00000004,0.
 00000004,-0.00167152,-0.00009023,-0.00026136,-0.00003124,0.00009024,0.
 00026136,-0.00003125,0.00197820,-0.00360005,-0.00088758,0.00121059,-0.
 00023834,0.00080175,0.02304778,-0.00306931,0.00129529,-0.00122651,0.00
 230923,0.00023798,0.,0.,0.00068743,0.00000023,-0.00000015,0.03296989\\
 -0.00010607,-0.00005888,0.00021301,-0.00002393,0.00003332,-0.00000035,
 0.00001646,0.00003463,0.00000031,0.00010023,-0.00006142,0.00021776,-0.
 00003723,0.00001741,-0.00003444,0.00004101,0.00002012,-0.00003826,0.00
 000191,0.00032847,-0.00000024,-0.00000008,-0.00007972,0.00001593,-0.00
 000019,-0.00007975,-0.00001592,-0.00010668,-0.00006046,-0.00021729,-0.
 00003954,0.00001938,0.00003764,0.00010744,-0.00006088,-0.00021718,0.00
 004094,0.00001997,0.00003868,-0.00009317,-0.00003508,-0.00000006,0.000
 09891,-0.00003710,0.00000043\\\@


 THOSE WHO TRY TO PASS CHEMISTRY OFF AS A NEW SCIENCE
 SHOW HOW LITTLE KNOWLEDGE THEY HAVE OF THE CHARACTER
 AND LITERATURE OF THE ANCIENTS.
   -- NICOLAS LEFEVRE
 "COURS DE CHYMIE" J.-N.LELOUP, PARIS, 1751
 Job cpu time:       0 days  1 hours 53 minutes 11.7 seconds.
 File lengths (MBytes):  RWF=    130 Int=      0 D2E=      0 Chk=      9 Scr=      1
 Normal termination of Gaussian 09 at Wed Feb  9 15:24:22 2022.
