 Entering Gaussian System, Link 0=g09
 Input=quadri_ma.com
 Output=quadri_ma.log
 Initial command:
 /apps/applications/gaussian/G09.D01/2/default/g09/l1.exe "/nobackup/pmmass/Temp/Gau-120348.inp" -scrdir="/nobackup/pmmass/Temp/"
 Entering Link 1 = /apps/applications/gaussian/G09.D01/2/default/g09/l1.exe PID=    120349.
  
 Copyright (c) 1988,1990,1992,1993,1995,1998,2003,2009,2013,
            Gaussian, Inc.  All Rights Reserved.
  
 This is part of the Gaussian(R) 09 program.  It is based on
 the Gaussian(R) 03 system (copyright 2003, Gaussian, Inc.),
 the Gaussian(R) 98 system (copyright 1998, Gaussian, Inc.),
 the Gaussian(R) 94 system (copyright 1995, Gaussian, Inc.),
 the Gaussian 92(TM) system (copyright 1992, Gaussian, Inc.),
 the Gaussian 90(TM) system (copyright 1990, Gaussian, Inc.),
 the Gaussian 88(TM) system (copyright 1988, Gaussian, Inc.),
 the Gaussian 86(TM) system (copyright 1986, Carnegie Mellon
 University), and the Gaussian 82(TM) system (copyright 1983,
 Carnegie Mellon University). Gaussian is a federally registered
 trademark of Gaussian, Inc.
  
 This software contains proprietary and confidential information,
 including trade secrets, belonging to Gaussian, Inc.
  
 This software is provided under written license and may be
 used, copied, transmitted, or stored only in accord with that
 written license.
  
 The following legend is applicable only to US Government
 contracts under FAR:
  
                    RESTRICTED RIGHTS LEGEND
  
 Use, reproduction and disclosure by the US Government is
 subject to restrictions as set forth in subparagraphs (a)
 and (c) of the Commercial Computer Software - Restricted
 Rights clause in FAR 52.227-19.
  
 Gaussian, Inc.
 340 Quinnipiac St., Bldg. 40, Wallingford CT 06492
  
  
 ---------------------------------------------------------------
 Warning -- This program may not be used in any manner that
 competes with the business of Gaussian, Inc. or will provide
 assistance to any competitor of Gaussian, Inc.  The licensee
 of this program is prohibited from giving any competitor of
 Gaussian, Inc. access to this program.  By using this program,
 the user acknowledges that Gaussian, Inc. is engaged in the
 business of creating and licensing software in the field of
 computational chemistry and represents and warrants to the
 licensee that it is not a competitor of Gaussian, Inc. and that
 it will not use this program in any manner prohibited above.
 ---------------------------------------------------------------
  

 Cite this work as:
 Gaussian 09, Revision D.01,
 M. J. Frisch, G. W. Trucks, H. B. Schlegel, G. E. Scuseria, 
 M. A. Robb, J. R. Cheeseman, G. Scalmani, V. Barone, B. Mennucci, 
 G. A. Petersson, H. Nakatsuji, M. Caricato, X. Li, H. P. Hratchian, 
 A. F. Izmaylov, J. Bloino, G. Zheng, J. L. Sonnenberg, M. Hada, 
 M. Ehara, K. Toyota, R. Fukuda, J. Hasegawa, M. Ishida, T. Nakajima, 
 Y. Honda, O. Kitao, H. Nakai, T. Vreven, J. A. Montgomery, Jr., 
 J. E. Peralta, F. Ogliaro, M. Bearpark, J. J. Heyd, E. Brothers, 
 K. N. Kudin, V. N. Staroverov, T. Keith, R. Kobayashi, J. Normand, 
 K. Raghavachari, A. Rendell, J. C. Burant, S. S. Iyengar, J. Tomasi, 
 M. Cossi, N. Rega, J. M. Millam, M. Klene, J. E. Knox, J. B. Cross, 
 V. Bakken, C. Adamo, J. Jaramillo, R. Gomperts, R. E. Stratmann, 
 O. Yazyev, A. J. Austin, R. Cammi, C. Pomelli, J. W. Ochterski, 
 R. L. Martin, K. Morokuma, V. G. Zakrzewski, G. A. Voth, 
 P. Salvador, J. J. Dannenberg, S. Dapprich, A. D. Daniels, 
 O. Farkas, J. B. Foresman, J. V. Ortiz, J. Cioslowski, 
 and D. J. Fox, Gaussian, Inc., Wallingford CT, 2013.
 
 ******************************************
 Gaussian 09:  ES64L-G09RevD.01 24-Apr-2013
                 9-Feb-2022 
 ******************************************
 %nprocshared=8
 Will use up to    8 processors via shared memory.
 %mem=4GB
 %NoSave
 %chk="quadri_ma.chk"
 -------------------------------------------
 #n wB97XD/Gen scrf(smd,solvent=toluene) opt
 -------------------------------------------
 1/14=-1,18=20,19=15,26=3,38=1/1,3;
 2/9=110,12=2,17=6,18=5,40=1/2;
 3/5=7,11=2,16=1,25=1,30=1,70=32201,71=1,72=13,74=-58/1,2,3;
 4//1;
 5/5=2,38=5,53=13/2;
 6/7=2,8=2,9=2,10=2,28=1/1;
 7//1,2,3,16;
 1/14=-1,18=20,19=15,26=3/3(2);
 2/9=110/2;
 99//99;
 2/9=110/2;
 3/5=7,6=1,11=2,16=1,25=1,30=1,70=32205,71=1,72=13,74=-58,82=7/1,2,3;
 4/5=5,16=3,69=1/1;
 5/5=2,38=5,53=13/2;
 7//1,2,3,16;
 1/14=-1,18=20,19=15,26=3/3(-5);
 2/9=110/2;
 6/7=2,8=2,9=2,10=2,19=2,28=1/1;
 99/9=1/99;
 -----------------------------------------
 Quadricyclane cycloaddition toluene - opt
 -----------------------------------------
 Symbolic Z-matrix:
 Charge =  0 Multiplicity = 1
 C                     0.75515   0.77227  -0.70573 
 C                    -0.00005   1.14849   0.54717 
 C                     0.00005  -1.14849   0.54717 
 C                     0.75521  -0.77221  -0.70573 
 H                     1.44202   1.42479  -1.22864 
 H                     1.44212  -1.42468  -1.22865 
 C                     0.        0.        1.53254 
 H                    -0.89125  -0.00004   2.16944 
 H                     0.89125   0.00004   2.16944 
 C                    -0.75521   0.77221  -0.70573 
 H                    -1.44212   1.42468  -1.22865 
 C                    -0.75515  -0.77227  -0.70573 
 H                    -1.44201  -1.42479  -1.22865 
 H                    -0.00008   2.18416   0.86819 
 H                     0.00008  -2.18416   0.86819 
 

 GradGradGradGradGradGradGradGradGradGradGradGradGradGradGradGradGradGrad
 Berny optimization.
 Initialization pass.
                           ----------------------------
                           !    Initial Parameters    !
                           ! (Angstroms and Degrees)  !
 --------------------------                            --------------------------
 ! Name  Definition              Value          Derivative Info.                !
 --------------------------------------------------------------------------------
 ! R1    R(1,2)                  1.5105         estimate D2E/DX2                !
 ! R2    R(1,4)                  1.5445         estimate D2E/DX2                !
 ! R3    R(1,5)                  1.0821         estimate D2E/DX2                !
 ! R4    R(1,10)                 1.5104         estimate D2E/DX2                !
 ! R5    R(2,7)                  1.5133         estimate D2E/DX2                !
 ! R6    R(2,10)                 1.5105         estimate D2E/DX2                !
 ! R7    R(2,14)                 1.0843         estimate D2E/DX2                !
 ! R8    R(3,4)                  1.5105         estimate D2E/DX2                !
 ! R9    R(3,7)                  1.5133         estimate D2E/DX2                !
 ! R10   R(3,12)                 1.5105         estimate D2E/DX2                !
 ! R11   R(3,15)                 1.0843         estimate D2E/DX2                !
 ! R12   R(4,6)                  1.0821         estimate D2E/DX2                !
 ! R13   R(4,12)                 1.5104         estimate D2E/DX2                !
 ! R14   R(7,8)                  1.0954         estimate D2E/DX2                !
 ! R15   R(7,9)                  1.0954         estimate D2E/DX2                !
 ! R16   R(10,11)                1.0821         estimate D2E/DX2                !
 ! R17   R(10,12)                1.5445         estimate D2E/DX2                !
 ! R18   R(12,13)                1.0821         estimate D2E/DX2                !
 ! A1    A(2,1,4)              104.4236         estimate D2E/DX2                !
 ! A2    A(2,1,5)              124.6089         estimate D2E/DX2                !
 ! A3    A(4,1,5)              127.083          estimate D2E/DX2                !
 ! A4    A(4,1,10)              89.9999         estimate D2E/DX2                !
 ! A5    A(5,1,10)             129.4024         estimate D2E/DX2                !
 ! A6    A(1,2,7)              110.552          estimate D2E/DX2                !
 ! A7    A(1,2,14)             118.9137         estimate D2E/DX2                !
 ! A8    A(7,2,10)             110.5523         estimate D2E/DX2                !
 ! A9    A(7,2,14)             122.1499         estimate D2E/DX2                !
 ! A10   A(10,2,14)            118.9145         estimate D2E/DX2                !
 ! A11   A(4,3,7)              110.5523         estimate D2E/DX2                !
 ! A12   A(4,3,15)             118.9145         estimate D2E/DX2                !
 ! A13   A(7,3,12)             110.552          estimate D2E/DX2                !
 ! A14   A(7,3,15)             122.1499         estimate D2E/DX2                !
 ! A15   A(12,3,15)            118.9137         estimate D2E/DX2                !
 ! A16   A(1,4,3)              104.4237         estimate D2E/DX2                !
 ! A17   A(1,4,6)              127.0832         estimate D2E/DX2                !
 ! A18   A(1,4,12)              90.0001         estimate D2E/DX2                !
 ! A19   A(3,4,6)              124.6088         estimate D2E/DX2                !
 ! A20   A(6,4,12)             129.4015         estimate D2E/DX2                !
 ! A21   A(2,7,3)               98.7428         estimate D2E/DX2                !
 ! A22   A(2,7,8)              112.2464         estimate D2E/DX2                !
 ! A23   A(2,7,9)              112.2463         estimate D2E/DX2                !
 ! A24   A(3,7,8)              112.2463         estimate D2E/DX2                !
 ! A25   A(3,7,9)              112.2464         estimate D2E/DX2                !
 ! A26   A(8,7,9)              108.8997         estimate D2E/DX2                !
 ! A27   A(1,10,11)            129.4015         estimate D2E/DX2                !
 ! A28   A(1,10,12)             90.0001         estimate D2E/DX2                !
 ! A29   A(2,10,11)            124.6088         estimate D2E/DX2                !
 ! A30   A(2,10,12)            104.4237         estimate D2E/DX2                !
 ! A31   A(11,10,12)           127.0832         estimate D2E/DX2                !
 ! A32   A(3,12,10)            104.4236         estimate D2E/DX2                !
 ! A33   A(3,12,13)            124.6092         estimate D2E/DX2                !
 ! A34   A(4,12,10)             89.9999         estimate D2E/DX2                !
 ! A35   A(4,12,13)            129.4017         estimate D2E/DX2                !
 ! A36   A(10,12,13)           127.083          estimate D2E/DX2                !
 ! D1    D(4,1,2,7)             21.0384         estimate D2E/DX2                !
 ! D2    D(4,1,2,14)           169.944          estimate D2E/DX2                !
 ! D3    D(5,1,2,7)           -138.0185         estimate D2E/DX2                !
 ! D4    D(5,1,2,14)            10.8871         estimate D2E/DX2                !
 ! D5    D(2,1,4,3)             -0.0004         estimate D2E/DX2                !
 ! D6    D(2,1,4,6)           -158.3612         estimate D2E/DX2                !
 ! D7    D(2,1,4,12)            58.9205         estimate D2E/DX2                !
 ! D8    D(5,1,4,3)            158.3599         estimate D2E/DX2                !
 ! D9    D(5,1,4,6)             -0.001          estimate D2E/DX2                !
 ! D10   D(5,1,4,12)          -142.7192         estimate D2E/DX2                !
 ! D11   D(10,1,4,3)           -58.9209         estimate D2E/DX2                !
 ! D12   D(10,1,4,6)           142.7183         estimate D2E/DX2                !
 ! D13   D(10,1,4,12)            0.0            estimate D2E/DX2                !
 ! D14   D(4,1,10,11)         -141.2909         estimate D2E/DX2                !
 ! D15   D(4,1,10,12)            0.0            estimate D2E/DX2                !
 ! D16   D(5,1,10,11)            0.0003         estimate D2E/DX2                !
 ! D17   D(5,1,10,12)          141.2912         estimate D2E/DX2                !
 ! D18   D(1,2,7,3)            -32.2719         estimate D2E/DX2                !
 ! D19   D(1,2,7,8)           -150.7452         estimate D2E/DX2                !
 ! D20   D(1,2,7,9)             86.2015         estimate D2E/DX2                !
 ! D21   D(10,2,7,3)            32.2717         estimate D2E/DX2                !
 ! D22   D(10,2,7,8)           -86.2016         estimate D2E/DX2                !
 ! D23   D(10,2,7,9)           150.7451         estimate D2E/DX2                !
 ! D24   D(14,2,7,3)          -179.9991         estimate D2E/DX2                !
 ! D25   D(14,2,7,8)            61.5276         estimate D2E/DX2                !
 ! D26   D(14,2,7,9)           -61.5257         estimate D2E/DX2                !
 ! D27   D(7,2,10,11)          138.0197         estimate D2E/DX2                !
 ! D28   D(7,2,10,12)          -21.0378         estimate D2E/DX2                !
 ! D29   D(14,2,10,11)         -10.8875         estimate D2E/DX2                !
 ! D30   D(14,2,10,12)        -169.9451         estimate D2E/DX2                !
 ! D31   D(7,3,4,1)            -21.0378         estimate D2E/DX2                !
 ! D32   D(7,3,4,6)            138.0197         estimate D2E/DX2                !
 ! D33   D(15,3,4,1)          -169.9451         estimate D2E/DX2                !
 ! D34   D(15,3,4,6)           -10.8875         estimate D2E/DX2                !
 ! D35   D(4,3,7,2)             32.2717         estimate D2E/DX2                !
 ! D36   D(4,3,7,8)            150.7451         estimate D2E/DX2                !
 ! D37   D(4,3,7,9)            -86.2016         estimate D2E/DX2                !
 ! D38   D(12,3,7,2)           -32.2719         estimate D2E/DX2                !
 ! D39   D(12,3,7,8)            86.2015         estimate D2E/DX2                !
 ! D40   D(12,3,7,9)          -150.7452         estimate D2E/DX2                !
 ! D41   D(15,3,7,2)          -179.9991         estimate D2E/DX2                !
 ! D42   D(15,3,7,8)           -61.5257         estimate D2E/DX2                !
 ! D43   D(15,3,7,9)            61.5276         estimate D2E/DX2                !
 ! D44   D(7,3,12,10)           21.0384         estimate D2E/DX2                !
 ! D45   D(7,3,12,13)         -138.0193         estimate D2E/DX2                !
 ! D46   D(15,3,12,10)         169.944          estimate D2E/DX2                !
 ! D47   D(15,3,12,13)          10.8862         estimate D2E/DX2                !
 ! D48   D(1,4,12,10)            0.0            estimate D2E/DX2                !
 ! D49   D(1,4,12,13)          141.2907         estimate D2E/DX2                !
 ! D50   D(6,4,12,10)         -141.2909         estimate D2E/DX2                !
 ! D51   D(6,4,12,13)           -0.0002         estimate D2E/DX2                !
 ! D52   D(1,10,12,3)           58.9205         estimate D2E/DX2                !
 ! D53   D(1,10,12,4)            0.0            estimate D2E/DX2                !
 ! D54   D(1,10,12,13)        -142.7183         estimate D2E/DX2                !
 ! D55   D(2,10,12,3)           -0.0004         estimate D2E/DX2                !
 ! D56   D(2,10,12,4)          -58.9209         estimate D2E/DX2                !
 ! D57   D(2,10,12,13)         158.3608         estimate D2E/DX2                !
 ! D58   D(11,10,12,3)        -158.3612         estimate D2E/DX2                !
 ! D59   D(11,10,12,4)         142.7183         estimate D2E/DX2                !
 ! D60   D(11,10,12,13)          0.0            estimate D2E/DX2                !
 --------------------------------------------------------------------------------
 Trust Radius=3.00D-01 FncErr=1.00D-07 GrdErr=1.00D-06
 Number of steps in this run=    100 maximum allowed number of steps=    100.
 GradGradGradGradGradGradGradGradGradGradGradGradGradGradGradGradGradGrad

                          Input orientation:                          
 ---------------------------------------------------------------------
 Center     Atomic      Atomic             Coordinates (Angstroms)
 Number     Number       Type             X           Y           Z
 ---------------------------------------------------------------------
      1          6           0        0.755150    0.772270   -0.705730
      2          6           0       -0.000050    1.148490    0.547170
      3          6           0        0.000050   -1.148490    0.547170
      4          6           0        0.755210   -0.772210   -0.705730
      5          1           0        1.442020    1.424790   -1.228640
      6          1           0        1.442120   -1.424680   -1.228650
      7          6           0        0.000000    0.000000    1.532540
      8          1           0       -0.891250   -0.000040    2.169440
      9          1           0        0.891250    0.000040    2.169440
     10          6           0       -0.755210    0.772210   -0.705730
     11          1           0       -1.442120    1.424680   -1.228650
     12          6           0       -0.755150   -0.772270   -0.705730
     13          1           0       -1.442010   -1.424790   -1.228650
     14          1           0       -0.000080    2.184160    0.868190
     15          1           0        0.000080   -2.184160    0.868190
 ---------------------------------------------------------------------
                    Distance matrix (angstroms):
                    1          2          3          4          5
     1  C    0.000000
     2  C    1.510506   0.000000
     3  C    2.414385   2.296980   0.000000
     4  C    1.544480   2.414387   1.510500   0.000000
     5  H    1.082131   2.304215   3.443044   2.360498   0.000000
     6  H    2.360500   3.443050   2.304210   1.082131   2.849470
     7  C    2.485258   1.513269   1.513269   2.485257   3.425429
     8  H    3.402014   2.178329   2.178328   3.402011   4.361334
     9  H    2.980179   2.178328   2.178329   2.980181   3.725615
    10  C    1.510360   1.510500   2.414387   2.160232   2.350982
    11  H    2.350974   2.304210   3.443050   3.150878   2.884140
    12  C    2.160234   2.414385   1.510506   1.510360   3.150883
    13  H    3.150878   3.443044   2.304217   2.350975   4.054348
    14  H    2.245224   1.084281   3.348076   3.433338   2.655747
    15  H    3.433341   3.348076   1.084281   2.245228   4.415927
                    6          7          8          9         10
     6  H    0.000000
     7  C    3.425433   0.000000
     8  H    4.361334   1.095431   0.000000
     9  H    3.725628   1.095431   1.782500   0.000000
    10  C    3.150878   2.485257   2.980181   3.402011   0.000000
    11  H    4.054342   3.425433   3.725628   4.361334   1.082131
    12  C    2.350974   2.485258   2.980179   3.402014   1.544480
    13  H    2.884130   3.425433   3.725623   4.361337   2.360498
    14  H    4.415926   2.282962   2.694098   2.694086   2.245228
    15  H    2.655754   2.282962   2.694086   2.694098   3.433338
                   11         12         13         14         15
    11  H    0.000000
    12  C    2.360500   0.000000
    13  H    2.849470   1.082130   0.000000
    14  H    2.655754   3.433341   4.415928   0.000000
    15  H    4.415926   2.245224   2.655749   4.368320   0.000000
 Stoichiometry    C7H8
 Framework group  C1[X(C7H8)]
 Deg. of freedom    39
 Full point group                 C1      NOp   1
 Largest Abelian subgroup         C1      NOp   1
 Largest concise Abelian subgroup C1      NOp   1
                         Standard orientation:                         
 ---------------------------------------------------------------------
 Center     Atomic      Atomic             Coordinates (Angstroms)
 Number     Number       Type             X           Y           Z
 ---------------------------------------------------------------------
      1          6           0        0.772232   -0.705428    0.755181
      2          6           0        1.148496    0.547468   -0.000005
      3          6           0       -1.148484    0.547495    0.000004
      4          6           0       -0.772248   -0.705409    0.755179
      5          1           0        1.424718   -1.228345    1.442077
      6          1           0       -1.424752   -1.228322    1.442063
      7          6           0        0.000018    1.532851    0.000000
      8          1           0        0.000021    2.169751   -0.891250
      9          1           0        0.000030    2.169751    0.891250
     10          6           0        0.772232   -0.705428   -0.755179
     11          1           0        1.424723   -1.228356   -1.442063
     12          6           0       -0.772248   -0.705410   -0.755181
     13          1           0       -1.424747   -1.228322   -1.442067
     14          1           0        2.184170    0.868476    0.000006
     15          1           0       -2.184150    0.868527   -0.000007
 ---------------------------------------------------------------------
 Rotational constants (GHZ):      4.4444095      4.3778816      3.2724802
 General basis read from cards:  (5D, 7F)
 There are   328 symmetry adapted cartesian basis functions of A   symmetry.
 There are   293 symmetry adapted basis functions of A   symmetry.
   293 basis functions,   449 primitive gaussians,   328 cartesian basis functions
    25 alpha electrons       25 beta electrons
       nuclear repulsion energy       297.1774953176 Hartrees.
 NAtoms=   15 NActive=   15 NUniq=   15 SFac= 1.00D+00 NAtFMM=   60 NAOKFM=F Big=F
 Integral buffers will be    131072 words long.
 Raffenetti 2 integral format.
 Two-electron integral symmetry is turned on.
 Nuclear repulsion after empirical dispersion term =      297.1700943751 Hartrees.
 ------------------------------------------------------------------------------
 Polarizable Continuum Model (PCM)
 =================================
 Model                : PCM (using non-symmetric T matrix).
 Atomic radii         : SMD-Coulomb.
 Polarization charges : Total charges.
 Charge compensation  : None.
 Solution method      : On-the-fly selection.
 Cavity type          : VdW (van der Waals Surface) (Alpha=1.000).
 Cavity algorithm     : GePol (No added spheres)
                        Default sphere list used, NSphG=   15.
                        Lebedev-Laikov grids with approx.  5.0 points / Ang**2.
                        Smoothing algorithm: Karplus/York (Gamma=1.0000).
                        Polarization charges: spherical gaussians, with
                                              point-specific exponents (IZeta= 3).
                        Self-potential: point-specific (ISelfS= 7).
                        Self-field    : sphere-specific E.n sum rule (ISelfD= 2).
 1st derivatives      : Analytical E(r).r(x)/FMM algorithm (CHGder, D1EAlg=3).
                        Cavity 1st derivative terms included.
 Solvent              : Toluene, Eps=   2.374100 Eps(inf)=   2.238315
 ------------------------------------------------------------------------------
 Spheres list:
 ISph  on   Nord     Re0    Alpha      Xe            Ye            Ze
    1   C      1    1.8500  1.000      0.772232     -0.705428      0.755181
    2   C      2    1.8500  1.000      1.148496      0.547468     -0.000005
    3   C      3    1.8500  1.000     -1.148484      0.547495      0.000004
    4   C      4    1.8500  1.000     -0.772248     -0.705409      0.755179
    5   H      5    1.2000  1.000      1.424718     -1.228345      1.442077
    6   H      6    1.2000  1.000     -1.424752     -1.228322      1.442063
    7   C      7    1.8500  1.000      0.000018      1.532851      0.000000
    8   H      8    1.2000  1.000      0.000021      2.169751     -0.891250
    9   H      9    1.2000  1.000      0.000030      2.169751      0.891250
   10   C     10    1.8500  1.000      0.772232     -0.705428     -0.755179
   11   H     11    1.2000  1.000      1.424723     -1.228356     -1.442063
   12   C     12    1.8500  1.000     -0.772248     -0.705410     -0.755181
   13   H     13    1.2000  1.000     -1.424747     -1.228322     -1.442067
   14   H     14    1.2000  1.000      2.184170      0.868476      0.000006
   15   H     15    1.2000  1.000     -2.184150      0.868527     -0.000007
 ------------------------------------------------------------------------------
 ------------------------------------------------------------------------------
 Atomic radii for non-electrostatic terms: SMD-CDS.
 ------------------------------------------------------------------------------
 Nuclear repulsion after PCM non-electrostatic terms =      297.1606433243 Hartrees.
 One-electron integrals computed using PRISM.
 NBasis=   293 RedAO= T EigKep=  3.99D-06  NBF=   293
 NBsUse=   291 1.00D-06 EigRej=  4.96D-07 NBFU=   291
 ExpMin= 3.17D-02 ExpMax= 1.36D+04 ExpMxC= 4.63D+02 IAcc=3 IRadAn=         5 AccDes= 0.00D+00
 Harris functional with IExCor= 4639 and IRadAn=       5 diagonalized for initial guess.
 HarFok:  IExCor= 4639 AccDes= 0.00D+00 IRadAn=         5 IDoV= 1 UseB2=F ITyADJ=14
 ICtDFT=  3500011 ScaDFX=  1.000000  1.000000  1.000000  1.000000
 FoFCou: FMM=F IPFlag=           0 FMFlag=      100000 FMFlg1=           0
         NFxFlg=           0 DoJE=T BraDBF=F KetDBF=T FulRan=T
         wScrn=  0.000000 ICntrl=     500 IOpCl=  0 I1Cent=   200000004 NGrid=           0
         NMat0=    1 NMatS0=      1 NMatT0=    0 NMatD0=    1 NMtDS0=    0 NMtDT0=    0
 Petite list used in FoFCou.
 Requested convergence on RMS density matrix=1.00D-08 within 128 cycles.
 Requested convergence on MAX density matrix=1.00D-06.
 Requested convergence on             energy=1.00D-06.
 No special actions if energy rises.
 Inv3:  Mode=1 IEnd=     3663075.
 Iteration    1 A*A^-1 deviation from unit magnitude is 4.22D-15 for   1093.
 Iteration    1 A*A^-1 deviation from orthogonality  is 3.29D-15 for    857    194.
 Iteration    1 A^-1*A deviation from unit magnitude is 4.22D-15 for   1093.
 Iteration    1 A^-1*A deviation from orthogonality  is 1.92D-15 for   1083    500.
 Error on total polarization charges =  0.02420
 SCF Done:  E(RwB97XD) =  -271.471375771     A.U. after   12 cycles
            NFock= 12  Conv=0.24D-08     -V/T= 2.0056
 SMD-CDS (non-electrostatic) energy       (kcal/mol) =      -5.93
 (included in total energy above)

 **********************************************************************

            Population analysis using the SCF density.

 **********************************************************************

 Orbital symmetries:
       Occupied  (A) (A) (A) (A) (A) (A) (A) (A) (A) (A) (A) (A)
                 (A) (A) (A) (A) (A) (A) (A) (A) (A) (A) (A) (A)
                 (A)
       Virtual   (A) (A) (A) (A) (A) (A) (A) (A) (A) (A) (A) (A)
                 (A) (A) (A) (A) (A) (A) (A) (A) (A) (A) (A) (A)
                 (A) (A) (A) (A) (A) (A) (A) (A) (A) (A) (A) (A)
                 (A) (A) (A) (A) (A) (A) (A) (A) (A) (A) (A) (A)
                 (A) (A) (A) (A) (A) (A) (A) (A) (A) (A) (A) (A)
                 (A) (A) (A) (A) (A) (A) (A) (A) (A) (A) (A) (A)
                 (A) (A) (A) (A) (A) (A) (A) (A) (A) (A) (A) (A)
                 (A) (A) (A) (A) (A) (A) (A) (A) (A) (A) (A) (A)
                 (A) (A) (A) (A) (A) (A) (A) (A) (A) (A) (A) (A)
                 (A) (A) (A) (A) (A) (A) (A) (A) (A) (A) (A) (A)
                 (A) (A) (A) (A) (A) (A) (A) (A) (A) (A) (A) (A)
                 (A) (A) (A) (A) (A) (A) (A) (A) (A) (A) (A) (A)
                 (A) (A) (A) (A) (A) (A) (A) (A) (A) (A) (A) (A)
                 (A) (A) (A) (A) (A) (A) (A) (A) (A) (A) (A) (A)
                 (A) (A) (A) (A) (A) (A) (A) (A) (A) (A) (A) (A)
                 (A) (A) (A) (A) (A) (A) (A) (A) (A) (A) (A) (A)
                 (A) (A) (A) (A) (A) (A) (A) (A) (A) (A) (A) (A)
                 (A) (A) (A) (A) (A) (A) (A) (A) (A) (A) (A) (A)
                 (A) (A) (A) (A) (A) (A) (A) (A) (A) (A) (A) (A)
                 (A) (A) (A) (A) (A) (A) (A) (A) (A) (A) (A) (A)
                 (A) (A) (A) (A) (A) (A) (A) (A) (A) (A) (A) (A)
                 (A) (A) (A) (A) (A) (A) (A) (A) (A) (A) (A) (A)
                 (A) (A)
 The electronic state is 1-A.
 Alpha  occ. eigenvalues --  -10.28463 -10.28461 -10.28425 -10.28412 -10.28411
 Alpha  occ. eigenvalues --  -10.28393 -10.27437  -1.04483  -0.87983  -0.82799
 Alpha  occ. eigenvalues --   -0.72873  -0.65725  -0.64064  -0.62532  -0.60603
 Alpha  occ. eigenvalues --   -0.52144  -0.51665  -0.51381  -0.47491  -0.42936
 Alpha  occ. eigenvalues --   -0.42064  -0.39151  -0.35828  -0.34759  -0.30020
 Alpha virt. eigenvalues --    0.04958   0.06305   0.06622   0.06770   0.09476
 Alpha virt. eigenvalues --    0.09541   0.09811   0.10114   0.10316   0.12882
 Alpha virt. eigenvalues --    0.13246   0.13268   0.13471   0.13904   0.14005
 Alpha virt. eigenvalues --    0.14040   0.16288   0.16440   0.16841   0.17419
 Alpha virt. eigenvalues --    0.17669   0.17678   0.18233   0.18970   0.19243
 Alpha virt. eigenvalues --    0.20132   0.20564   0.21923   0.22000   0.25512
 Alpha virt. eigenvalues --    0.26428   0.26534   0.26991   0.27414   0.28629
 Alpha virt. eigenvalues --    0.29196   0.29325   0.30369   0.30950   0.32147
 Alpha virt. eigenvalues --    0.32532   0.33334   0.35773   0.36933   0.39620
 Alpha virt. eigenvalues --    0.39864   0.39894   0.43482   0.47242   0.48329
 Alpha virt. eigenvalues --    0.49871   0.49910   0.50356   0.52586   0.52628
 Alpha virt. eigenvalues --    0.53360   0.54184   0.54287   0.55318   0.55556
 Alpha virt. eigenvalues --    0.56226   0.56739   0.57168   0.57974   0.59095
 Alpha virt. eigenvalues --    0.60325   0.60586   0.61029   0.61053   0.61930
 Alpha virt. eigenvalues --    0.63396   0.63723   0.64655   0.69017   0.70104
 Alpha virt. eigenvalues --    0.73650   0.75665   0.78042   0.83103   0.92002
 Alpha virt. eigenvalues --    0.92149   0.92310   0.96203   0.98447   1.02326
 Alpha virt. eigenvalues --    1.03268   1.07290   1.08707   1.10717   1.12014
 Alpha virt. eigenvalues --    1.12440   1.12823   1.14991   1.16528   1.21532
 Alpha virt. eigenvalues --    1.21863   1.23981   1.28008   1.28390   1.29838
 Alpha virt. eigenvalues --    1.30804   1.31170   1.32539   1.32623   1.33085
 Alpha virt. eigenvalues --    1.35402   1.36180   1.38162   1.39718   1.41616
 Alpha virt. eigenvalues --    1.44875   1.48471   1.51315   1.51992   1.54332
 Alpha virt. eigenvalues --    1.61773   1.67943   1.69892   1.71983   1.73170
 Alpha virt. eigenvalues --    1.75672   1.77394   1.78018   1.80046   1.81223
 Alpha virt. eigenvalues --    1.82481   1.84131   1.84706   1.84971   1.92404
 Alpha virt. eigenvalues --    2.02332   2.05420   2.07935   2.09563   2.11260
 Alpha virt. eigenvalues --    2.13156   2.14306   2.17802   2.18509   2.23569
 Alpha virt. eigenvalues --    2.29921   2.31469   2.32818   2.35515   2.36753
 Alpha virt. eigenvalues --    2.40957   2.41875   2.44225   2.47554   2.47633
 Alpha virt. eigenvalues --    2.51632   2.51725   2.53449   2.53564   2.55123
 Alpha virt. eigenvalues --    2.55621   2.61297   2.64858   2.65536   2.66510
 Alpha virt. eigenvalues --    2.70603   2.73444   2.76159   2.76555   2.77416
 Alpha virt. eigenvalues --    2.78770   2.79043   2.83903   2.85496   2.85879
 Alpha virt. eigenvalues --    2.87903   2.89075   2.89303   2.90967   2.94015
 Alpha virt. eigenvalues --    2.98473   2.99616   3.01477   3.08229   3.09635
 Alpha virt. eigenvalues --    3.11979   3.13476   3.16633   3.16674   3.17921
 Alpha virt. eigenvalues --    3.18362   3.18391   3.19698   3.21619   3.22300
 Alpha virt. eigenvalues --    3.27614   3.27894   3.30209   3.30536   3.33703
 Alpha virt. eigenvalues --    3.34740   3.35137   3.45128   3.48244   3.48937
 Alpha virt. eigenvalues --    3.51287   3.55015   3.56282   3.58427   3.58433
 Alpha virt. eigenvalues --    3.61313   3.65161   3.65193   3.74528   3.78611
 Alpha virt. eigenvalues --    3.78636   3.79290   3.86852   3.92675   3.93011
 Alpha virt. eigenvalues --    3.95377   3.97690   4.01536   4.01584   4.04710
 Alpha virt. eigenvalues --    4.06874   4.09543   4.10745   4.12561   4.12960
 Alpha virt. eigenvalues --    4.18912   4.19497   4.23100   4.24022   4.28320
 Alpha virt. eigenvalues --    4.28739   4.28764   4.30028   4.31436   4.34431
 Alpha virt. eigenvalues --    4.41104   4.42000   4.43808   4.44276   4.49869
 Alpha virt. eigenvalues --    4.58673   4.58903   4.61981   4.70575   4.75563
 Alpha virt. eigenvalues --    4.77585   4.78665   4.97122   4.97494   4.97838
 Alpha virt. eigenvalues --    5.02162   5.04896   5.05985   5.08795   5.14134
 Alpha virt. eigenvalues --    5.16746   5.20698   5.21691   5.43994  22.55116
 Alpha virt. eigenvalues --   22.58861  22.62983  22.63288  22.77115  22.77237
 Alpha virt. eigenvalues --   22.86847
          Condensed to atoms (all electrons):
               1          2          3          4          5          6
     1  C    5.462912   0.029463  -0.272259   0.477863   0.438677  -0.053059
     2  C    0.029463   6.018979   0.571098  -0.272244  -0.029593   0.012915
     3  C   -0.272259   0.571098   6.018977   0.029476   0.012914  -0.029592
     4  C    0.477863  -0.272244   0.029476   5.462884  -0.053059   0.438676
     5  H    0.438677  -0.029593   0.012914  -0.053059   0.514390  -0.003857
     6  H   -0.053059   0.012915  -0.029592   0.438676  -0.003857   0.514390
     7  C    0.074620  -0.096174  -0.096173   0.074617  -0.004947  -0.004947
     8  H    0.034452  -0.060559  -0.060559   0.034450  -0.000001  -0.000001
     9  H   -0.022249  -0.060560  -0.060559  -0.022249   0.000222   0.000222
    10  C    0.151333   0.029476  -0.272244  -0.192664  -0.032077   0.023546
    11  H   -0.032077  -0.029593   0.012915   0.023546  -0.002240  -0.000070
    12  C   -0.192669  -0.272247   0.029477   0.151328   0.023546  -0.032078
    13  H    0.023546   0.012914  -0.029593  -0.032077  -0.000070  -0.002240
    14  H   -0.033125   0.403380  -0.000074   0.010253  -0.005031   0.000059
    15  H    0.010254  -0.000074   0.403379  -0.033122   0.000059  -0.005031
               7          8          9         10         11         12
     1  C    0.074620   0.034452  -0.022249   0.151333  -0.032077  -0.192669
     2  C   -0.096174  -0.060559  -0.060560   0.029476  -0.029593  -0.272247
     3  C   -0.096173  -0.060559  -0.060559  -0.272244   0.012915   0.029477
     4  C    0.074617   0.034450  -0.022249  -0.192664   0.023546   0.151328
     5  H   -0.004947  -0.000001   0.000222  -0.032077  -0.002240   0.023546
     6  H   -0.004947  -0.000001   0.000222   0.023546  -0.000070  -0.032078
     7  C    5.162194   0.459041   0.459041   0.074616  -0.004947   0.074615
     8  H    0.459041   0.551557  -0.026703  -0.022249   0.000222  -0.022249
     9  H    0.459041  -0.026703   0.551557   0.034450  -0.000001   0.034451
    10  C    0.074616  -0.022249   0.034450   5.462885   0.438676   0.477859
    11  H   -0.004947   0.000222  -0.000001   0.438676   0.514391  -0.053059
    12  C    0.074615  -0.022249   0.034451   0.477859  -0.053059   5.462903
    13  H   -0.004947   0.000222  -0.000001  -0.053058  -0.003857   0.438677
    14  H    0.002354  -0.001631  -0.001631  -0.033122  -0.005031   0.010254
    15  H    0.002354  -0.001631  -0.001631   0.010253   0.000059  -0.033124
              13         14         15
     1  C    0.023546  -0.033125   0.010254
     2  C    0.012914   0.403380  -0.000074
     3  C   -0.029593  -0.000074   0.403379
     4  C   -0.032077   0.010253  -0.033122
     5  H   -0.000070  -0.005031   0.000059
     6  H   -0.002240   0.000059  -0.005031
     7  C   -0.004947   0.002354   0.002354
     8  H    0.000222  -0.001631  -0.001631
     9  H   -0.000001  -0.001631  -0.001631
    10  C   -0.053058  -0.033122   0.010253
    11  H   -0.003857  -0.005031   0.000059
    12  C    0.438677   0.010254  -0.033124
    13  H    0.514389   0.000059  -0.005031
    14  H    0.000059   0.512840   0.000016
    15  H   -0.005031   0.000016   0.512840
 Mulliken charges:
               1
     1  C   -0.097682
     2  C   -0.257182
     3  C   -0.257182
     4  C   -0.097679
     5  H    0.141066
     6  H    0.141066
     7  C   -0.171316
     8  H    0.115640
     9  H    0.115640
    10  C   -0.097680
    11  H    0.141066
    12  C   -0.097683
    13  H    0.141066
    14  H    0.140430
    15  H    0.140430
 Sum of Mulliken charges =   0.00000
 Mulliken charges with hydrogens summed into heavy atoms:
               1
     1  C    0.043383
     2  C   -0.116751
     3  C   -0.116752
     4  C    0.043387
     7  C    0.059964
    10  C    0.043386
    12  C    0.043383
 Electronic spatial extent (au):  <R**2>=            512.4202
 Charge=              0.0000 electrons
 Dipole moment (field-independent basis, Debye):
    X=              0.0000    Y=             -0.0030    Z=              0.0000  Tot=              0.0030
 Quadrupole moment (field-independent basis, Debye-Ang):
   XX=            -38.9606   YY=            -41.6857   ZZ=            -41.8352
   XY=              0.0000   XZ=              0.0000   YZ=              0.0000
 Traceless Quadrupole moment (field-independent basis, Debye-Ang):
   XX=              1.8666   YY=             -0.8585   ZZ=             -1.0080
   XY=              0.0000   XZ=              0.0000   YZ=              0.0000
 Octapole moment (field-independent basis, Debye-Ang**2):
  XXX=              0.0000  YYY=              3.1546  ZZZ=              0.0001  XYY=              0.0000
  XXY=             -0.9699  XXZ=              0.0000  XZZ=              0.0000  YZZ=             -3.6879
  YYZ=              0.0000  XYZ=              0.0000
 Hexadecapole moment (field-independent basis, Debye-Ang**3):
 XXXX=           -256.3521 YYYY=           -280.7776 ZZZZ=           -159.2800 XXXY=             -0.0001
 XXXZ=              0.0002 YYYX=             -0.0001 YYYZ=              0.0001 ZZZX=              0.0002
 ZZZY=              0.0000 XXYY=            -88.0816 XXZZ=            -70.1919 YYZZ=            -64.5220
 XXYZ=              0.0000 YYXZ=              0.0000 ZZXY=              0.0001
 N-N= 2.971606433243D+02 E-N=-1.223645817262D+03  KE= 2.699520867783D+02
 D1PCM: PCM CHGder 1st derivatives, ID1Alg=3 FixD1E=F DoIter=F DoCFld=F I1PDM=0.
 Calling FoFJK, ICntrl=      2127 FMM=F ISym2X=0 I1Cent= 0 IOpClX= 0 NMat=1 NMatS=1 NMatT=0.
 ***** Axes restored to original set *****
 -------------------------------------------------------------------
 Center     Atomic                   Forces (Hartrees/Bohr)
 Number     Number              X              Y              Z
 -------------------------------------------------------------------
      1        6          -0.000080153   -0.000056172   -0.000157354
      2        6           0.000002143   -0.001034503    0.000550193
      3        6          -0.000002285    0.001033873    0.000550106
      4        6          -0.000079536    0.000055008   -0.000158790
      5        1          -0.001310689   -0.001323998    0.000989346
      6        1          -0.001310025    0.001324450    0.000989569
      7        6          -0.000000086    0.000000020   -0.001136668
      8        1           0.001502883    0.000000082   -0.001132658
      9        1          -0.001502881   -0.000000105   -0.001132682
     10        6           0.000079683   -0.000054448   -0.000159394
     11        1           0.001309937   -0.001324455    0.000989628
     12        6           0.000081494    0.000056702   -0.000157437
     13        1           0.001309499    0.001323525    0.000989418
     14        1          -0.000000562   -0.002129997   -0.000511692
     15        1           0.000000580    0.002130019   -0.000511587
 -------------------------------------------------------------------
 Cartesian Forces:  Max     0.002130019 RMS     0.000926757

 GradGradGradGradGradGradGradGradGradGradGradGradGradGradGradGradGradGrad
 Berny optimization.
 FormGI is forming the generalized inverse of G from B-inverse, IUseBI=4.
 Internal  Forces:  Max     0.002742334 RMS     0.000746185
 Search for a local minimum.
 Step number   1 out of a maximum of  100
 All quantities printed in internal units (Hartrees-Bohrs-Radians)
 Mixed Optimization -- En-DIIS/RFO-DIIS
 Second derivative matrix not updated -- first step.
 ITU=  0
     Eigenvalues ---    0.01145   0.01177   0.01501   0.01699   0.01780
     Eigenvalues ---    0.01912   0.02033   0.02135   0.04667   0.05874
     Eigenvalues ---    0.06284   0.06537   0.06836   0.07169   0.07887
     Eigenvalues ---    0.08558   0.10370   0.10930   0.10941   0.15452
     Eigenvalues ---    0.15915   0.18922   0.19609   0.22186   0.22677
     Eigenvalues ---    0.26208   0.26973   0.28214   0.29655   0.29821
     Eigenvalues ---    0.31296   0.34193   0.34193   0.35482   0.35482
     Eigenvalues ---    0.35738   0.35738   0.35738   0.35738
 RFO step:  Lambda=-1.94813461D-04 EMin= 1.14490333D-02
 Linear search not attempted -- first point.
 Iteration  1 RMS(Cart)=  0.00322188 RMS(Int)=  0.00000117
 Iteration  2 RMS(Cart)=  0.00000118 RMS(Int)=  0.00000027
 Iteration  3 RMS(Cart)=  0.00000000 RMS(Int)=  0.00000027
 Variable       Old X    -DE/DX   Delta X   Delta X   Delta X     New X
                                 (Linear)    (Quad)   (Total)
    R1        2.85444  -0.00103   0.00000  -0.00338  -0.00338   2.85106
    R2        2.91864  -0.00188   0.00000  -0.00648  -0.00648   2.91216
    R3        2.04493  -0.00211   0.00000  -0.00590  -0.00590   2.03903
    R4        2.85417  -0.00096   0.00000  -0.00279  -0.00279   2.85137
    R5        2.85966  -0.00274   0.00000  -0.00913  -0.00913   2.85053
    R6        2.85443  -0.00103   0.00000  -0.00337  -0.00337   2.85106
    R7        2.04899  -0.00219   0.00000  -0.00616  -0.00616   2.04284
    R8        2.85443  -0.00103   0.00000  -0.00337  -0.00337   2.85106
    R9        2.85966  -0.00274   0.00000  -0.00913  -0.00913   2.85053
   R10        2.85444  -0.00103   0.00000  -0.00338  -0.00338   2.85106
   R11        2.04899  -0.00219   0.00000  -0.00616  -0.00616   2.04284
   R12        2.04493  -0.00211   0.00000  -0.00590  -0.00590   2.03904
   R13        2.85417  -0.00096   0.00000  -0.00279  -0.00279   2.85137
   R14        2.07006  -0.00188   0.00000  -0.00550  -0.00550   2.06456
   R15        2.07006  -0.00188   0.00000  -0.00550  -0.00550   2.06456
   R16        2.04493  -0.00211   0.00000  -0.00590  -0.00590   2.03904
   R17        2.91864  -0.00188   0.00000  -0.00648  -0.00648   2.91216
   R18        2.04493  -0.00211   0.00000  -0.00589  -0.00589   2.03903
    A1        1.82254  -0.00026   0.00000  -0.00099  -0.00099   1.82155
    A2        2.17484   0.00021   0.00000   0.00076   0.00076   2.17560
    A3        2.21802   0.00002   0.00000   0.00000   0.00000   2.21802
    A4        1.57080   0.00000   0.00000   0.00000   0.00000   1.57080
    A5        2.25850  -0.00001   0.00000   0.00025   0.00025   2.25875
    A6        1.92950   0.00018   0.00000   0.00088   0.00088   1.93037
    A7        2.07544  -0.00005   0.00000   0.00023   0.00023   2.07567
    A8        1.92950   0.00018   0.00000   0.00087   0.00087   1.93037
    A9        2.13192  -0.00016   0.00000  -0.00139  -0.00139   2.13053
   A10        2.07545  -0.00005   0.00000   0.00022   0.00022   2.07567
   A11        1.92950   0.00018   0.00000   0.00087   0.00087   1.93037
   A12        2.07545  -0.00005   0.00000   0.00022   0.00022   2.07567
   A13        1.92950   0.00018   0.00000   0.00088   0.00088   1.93037
   A14        2.13192  -0.00016   0.00000  -0.00139  -0.00139   2.13053
   A15        2.07544  -0.00005   0.00000   0.00023   0.00023   2.07567
   A16        1.82254  -0.00026   0.00000  -0.00099  -0.00099   1.82155
   A17        2.21802   0.00002   0.00000   0.00000   0.00000   2.21802
   A18        1.57080   0.00000   0.00000   0.00000   0.00000   1.57080
   A19        2.17483   0.00021   0.00000   0.00077   0.00077   2.17560
   A20        2.25848  -0.00001   0.00000   0.00026   0.00026   2.25875
   A21        1.72339   0.00017   0.00000   0.00013   0.00013   1.72352
   A22        1.95907  -0.00006   0.00000  -0.00015  -0.00015   1.95892
   A23        1.95907  -0.00006   0.00000  -0.00015  -0.00015   1.95892
   A24        1.95907  -0.00006   0.00000  -0.00015  -0.00015   1.95892
   A25        1.95907  -0.00006   0.00000  -0.00015  -0.00015   1.95892
   A26        1.90066   0.00006   0.00000   0.00041   0.00041   1.90107
   A27        2.25848  -0.00001   0.00000   0.00026   0.00026   2.25875
   A28        1.57080   0.00000   0.00000   0.00000   0.00000   1.57080
   A29        2.17483   0.00021   0.00000   0.00077   0.00077   2.17560
   A30        1.82254  -0.00026   0.00000  -0.00099  -0.00099   1.82155
   A31        2.21802   0.00002   0.00000   0.00000   0.00000   2.21802
   A32        1.82254  -0.00026   0.00000  -0.00099  -0.00099   1.82155
   A33        2.17484   0.00021   0.00000   0.00076   0.00076   2.17560
   A34        1.57080   0.00000   0.00000   0.00000   0.00000   1.57080
   A35        2.25849  -0.00001   0.00000   0.00026   0.00026   2.25875
   A36        2.21802   0.00002   0.00000   0.00000   0.00000   2.21802
    D1        0.36719  -0.00003   0.00000   0.00007   0.00007   0.36726
    D2        2.96608  -0.00013   0.00000  -0.00084  -0.00084   2.96524
    D3       -2.40888   0.00005   0.00000   0.00070   0.00070  -2.40818
    D4        0.19002  -0.00004   0.00000  -0.00021  -0.00021   0.18981
    D5       -0.00001   0.00000   0.00000   0.00001   0.00001   0.00000
    D6       -2.76392   0.00003   0.00000   0.00045   0.00045  -2.76347
    D7        1.02836   0.00003   0.00000   0.00003   0.00003   1.02839
    D8        2.76390  -0.00003   0.00000  -0.00044  -0.00044   2.76346
    D9       -0.00002   0.00000   0.00000   0.00001   0.00001  -0.00001
   D10       -2.49092  -0.00001   0.00000  -0.00041  -0.00041  -2.49133
   D11       -1.02836  -0.00003   0.00000  -0.00003  -0.00002  -1.02839
   D12        2.49090   0.00001   0.00000   0.00042   0.00042   2.49132
   D13        0.00000   0.00000   0.00000   0.00000   0.00000   0.00000
   D14       -2.46599  -0.00003   0.00000  -0.00027  -0.00027  -2.46626
   D15        0.00000   0.00000   0.00000   0.00000   0.00000   0.00000
   D16        0.00001   0.00000   0.00000   0.00000   0.00000   0.00000
   D17        2.46600   0.00003   0.00000   0.00027   0.00027   2.46626
   D18       -0.56325  -0.00006   0.00000  -0.00033  -0.00033  -0.56358
   D19       -2.63100  -0.00006   0.00000  -0.00018  -0.00018  -2.63118
   D20        1.50450  -0.00005   0.00000  -0.00049  -0.00049   1.50401
   D21        0.56325   0.00006   0.00000   0.00034   0.00034   0.56359
   D22       -1.50450   0.00005   0.00000   0.00050   0.00050  -1.50400
   D23        2.63100   0.00006   0.00000   0.00018   0.00018   2.63118
   D24       -3.14158   0.00000   0.00000  -0.00001  -0.00001  -3.14159
   D25        1.07386  -0.00001   0.00000   0.00015   0.00015   1.07401
   D26       -1.07383   0.00000   0.00000  -0.00017  -0.00017  -1.07400
   D27        2.40890  -0.00005   0.00000  -0.00072  -0.00072   2.40818
   D28       -0.36718   0.00003   0.00000  -0.00008  -0.00008  -0.36726
   D29       -0.19002   0.00004   0.00000   0.00022   0.00022  -0.18981
   D30       -2.96610   0.00013   0.00000   0.00085   0.00085  -2.96525
   D31       -0.36718   0.00003   0.00000  -0.00008  -0.00008  -0.36726
   D32        2.40890  -0.00005   0.00000  -0.00072  -0.00072   2.40818
   D33       -2.96610   0.00013   0.00000   0.00085   0.00085  -2.96525
   D34       -0.19002   0.00004   0.00000   0.00022   0.00022  -0.18980
   D35        0.56325   0.00006   0.00000   0.00034   0.00034   0.56358
   D36        2.63100   0.00006   0.00000   0.00018   0.00018   2.63118
   D37       -1.50450   0.00005   0.00000   0.00050   0.00050  -1.50401
   D38       -0.56325  -0.00006   0.00000  -0.00033  -0.00034  -0.56359
   D39        1.50450  -0.00005   0.00000  -0.00049  -0.00049   1.50401
   D40       -2.63100  -0.00006   0.00000  -0.00018  -0.00018  -2.63118
   D41       -3.14158   0.00000   0.00000  -0.00001  -0.00001  -3.14159
   D42       -1.07383   0.00000   0.00000  -0.00017  -0.00017  -1.07400
   D43        1.07386  -0.00001   0.00000   0.00015   0.00015   1.07401
   D44        0.36719  -0.00003   0.00000   0.00007   0.00007   0.36726
   D45       -2.40889   0.00005   0.00000   0.00071   0.00071  -2.40818
   D46        2.96608  -0.00013   0.00000  -0.00084  -0.00084   2.96524
   D47        0.19000  -0.00004   0.00000  -0.00020  -0.00020   0.18980
   D48        0.00000   0.00000   0.00000   0.00000   0.00000   0.00000
   D49        2.46599   0.00003   0.00000   0.00027   0.00027   2.46626
   D50       -2.46599  -0.00003   0.00000  -0.00027  -0.00027  -2.46626
   D51        0.00000   0.00000   0.00000   0.00000   0.00000   0.00000
   D52        1.02836   0.00003   0.00000   0.00003   0.00003   1.02839
   D53        0.00000   0.00000   0.00000   0.00000   0.00000   0.00000
   D54       -2.49090  -0.00001   0.00000  -0.00042  -0.00042  -2.49132
   D55       -0.00001   0.00000   0.00000   0.00001   0.00001   0.00000
   D56       -1.02836  -0.00003   0.00000  -0.00003  -0.00003  -1.02839
   D57        2.76392  -0.00003   0.00000  -0.00045  -0.00045   2.76347
   D58       -2.76392   0.00003   0.00000   0.00046   0.00045  -2.76347
   D59        2.49090   0.00001   0.00000   0.00042   0.00042   2.49133
   D60        0.00000   0.00000   0.00000   0.00000   0.00000   0.00000
         Item               Value     Threshold  Converged?
 Maximum Force            0.002742     0.000450     NO 
 RMS     Force            0.000746     0.000300     NO 
 Maximum Displacement     0.013569     0.001800     NO 
 RMS     Displacement     0.003222     0.001200     NO 
 Predicted change in Energy=-9.746730D-05
 GradGradGradGradGradGradGradGradGradGradGradGradGradGradGradGradGradGrad

                          Input orientation:                          
 ---------------------------------------------------------------------
 Center     Atomic      Atomic             Coordinates (Angstroms)
 Number     Number       Type             X           Y           Z
 ---------------------------------------------------------------------
      1          6           0        0.754412    0.770555   -0.704853
      2          6           0       -0.000045    1.144888    0.546905
      3          6           0        0.000046   -1.144889    0.546905
      4          6           0        0.754472   -0.770496   -0.704851
      5          1           0        1.439513    1.421196   -1.225973
      6          1           0        1.439620   -1.421086   -1.225974
      7          6           0       -0.000001   -0.000001    1.529052
      8          1           0       -0.889015   -0.000037    2.164075
      9          1           0        0.889013    0.000036    2.164077
     10          6           0       -0.754470    0.770497   -0.704852
     11          1           0       -1.439618    1.421087   -1.225974
     12          6           0       -0.754410   -0.770554   -0.704853
     13          1           0       -1.439508   -1.421195   -1.225977
     14          1           0       -0.000082    2.176980    0.868461
     15          1           0        0.000082   -2.176980    0.868461
 ---------------------------------------------------------------------
                    Distance matrix (angstroms):
                    1          2          3          4          5
     1  C    0.000000
     2  C    1.508717   0.000000
     3  C    2.409334   2.289777   0.000000
     4  C    1.541051   2.409333   1.508715   0.000000
     5  H    1.079011   2.300385   3.435106   2.354647   0.000000
     6  H    2.354648   3.435107   2.300382   1.079011   2.842282
     7  C    2.480569   1.508437   1.508437   2.480567   3.417917
     8  H    3.394910   2.171718   2.171717   3.394907   4.351365
     9  H    2.973646   2.171717   2.171718   2.973645   3.716878
    10  C    1.508881   1.508715   2.409334   2.156748   2.347027
    11  H    2.347025   2.300382   3.435108   3.144620   2.879132
    12  C    2.156747   2.409333   1.508717   1.508882   3.144620
    13  H    3.144618   3.435106   2.300385   2.347026   4.045733
    14  H    2.241118   1.081023   3.337395   3.425241   2.651471
    15  H    3.425243   3.337395   1.081023   2.241119   4.405166
                    6          7          8          9         10
     6  H    0.000000
     7  C    3.417917   0.000000
     8  H    4.351362   1.092521   0.000000
     9  H    3.716880   1.092521   1.778027   0.000000
    10  C    3.144620   2.480567   2.973646   3.394907   0.000000
    11  H    4.045733   3.417917   3.716880   4.351362   1.079011
    12  C    2.347025   2.480568   2.973645   3.394909   1.541051
    13  H    2.879128   3.417918   3.716879   4.351364   2.354647
    14  H    4.405165   2.274999   2.684813   2.684808   2.241118
    15  H    2.651472   2.274999   2.684807   2.684812   3.425242
                   11         12         13         14         15
    11  H    0.000000
    12  C    2.354648   0.000000
    13  H    2.842282   1.079011   0.000000
    14  H    2.651471   3.425242   4.405166   0.000000
    15  H    4.405165   2.241118   2.651472   4.353960   0.000000
 Stoichiometry    C7H8
 Framework group  C1[X(C7H8)]
 Deg. of freedom    39
 Full point group                 C1      NOp   1
 Largest Abelian subgroup         C1      NOp   1
 Largest concise Abelian subgroup C1      NOp   1
                         Standard orientation:                         
 ---------------------------------------------------------------------
 Center     Atomic      Atomic             Coordinates (Angstroms)
 Number     Number       Type             X           Y           Z
 ---------------------------------------------------------------------
      1          6           0        0.770535   -0.704481    0.754441
      2          6           0        1.144881    0.547282    0.000000
      3          6           0       -1.144896    0.547252    0.000001
      4          6           0       -0.770516   -0.704500    0.754441
      5          1           0        1.421156   -1.225593    1.439567
      6          1           0       -1.421126   -1.225632    1.439563
      7          6           0       -0.000021    1.529414    0.000000
      8          1           0       -0.000031    2.164438   -0.889014
      9          1           0       -0.000028    2.164438    0.889014
     10          6           0        0.770535   -0.704479   -0.754441
     11          1           0        1.421159   -1.225592   -1.439565
     12          6           0       -0.770515   -0.704501   -0.754441
     13          1           0       -1.421123   -1.225633   -1.439565
     14          1           0        2.176968    0.868852    0.000003
     15          1           0       -2.176992    0.868794   -0.000003
 ---------------------------------------------------------------------
 Rotational constants (GHZ):      4.4584350      4.3976993      3.2873083
 Basis read from rwf:  (5D, 7F)
 There are   328 symmetry adapted cartesian basis functions of A   symmetry.
 There are   293 symmetry adapted basis functions of A   symmetry.
   293 basis functions,   449 primitive gaussians,   328 cartesian basis functions
    25 alpha electrons       25 beta electrons
       nuclear repulsion energy       297.7803640599 Hartrees.
 NAtoms=   15 NActive=   15 NUniq=   15 SFac= 1.00D+00 NAtFMM=   60 NAOKFM=F Big=F
 Integral buffers will be    131072 words long.
 Raffenetti 2 integral format.
 Two-electron integral symmetry is turned on.
 Nuclear repulsion after empirical dispersion term =      297.7729499490 Hartrees.
 ------------------------------------------------------------------------------
 Polarizable Continuum Model (PCM)
 =================================
 Model                : PCM (using non-symmetric T matrix).
 Atomic radii         : SMD-Coulomb.
 Polarization charges : Total charges.
 Charge compensation  : None.
 Solution method      : On-the-fly selection.
 Cavity type          : VdW (van der Waals Surface) (Alpha=1.000).
 Cavity algorithm     : GePol (No added spheres)
                        Default sphere list used, NSphG=   15.
                        Lebedev-Laikov grids with approx.  5.0 points / Ang**2.
                        Smoothing algorithm: Karplus/York (Gamma=1.0000).
                        Polarization charges: spherical gaussians, with
                                              point-specific exponents (IZeta= 3).
                        Self-potential: point-specific (ISelfS= 7).
                        Self-field    : sphere-specific E.n sum rule (ISelfD= 2).
 1st derivatives      : Analytical E(r).r(x)/FMM algorithm (CHGder, D1EAlg=3).
                        Cavity 1st derivative terms included.
 Solvent              : Toluene, Eps=   2.374100 Eps(inf)=   2.238315
 ------------------------------------------------------------------------------
 Spheres list:
 ISph  on   Nord     Re0    Alpha      Xe            Ye            Ze
    1   C      1    1.8500  1.000      0.770535     -0.704481      0.754441
    2   C      2    1.8500  1.000      1.144881      0.547282      0.000000
    3   C      3    1.8500  1.000     -1.144896      0.547252      0.000001
    4   C      4    1.8500  1.000     -0.770516     -0.704500      0.754441
    5   H      5    1.2000  1.000      1.421156     -1.225593      1.439567
    6   H      6    1.2000  1.000     -1.421126     -1.225632      1.439563
    7   C      7    1.8500  1.000     -0.000021      1.529414      0.000000
    8   H      8    1.2000  1.000     -0.000031      2.164438     -0.889014
    9   H      9    1.2000  1.000     -0.000028      2.164438      0.889014
   10   C     10    1.8500  1.000      0.770535     -0.704479     -0.754441
   11   H     11    1.2000  1.000      1.421159     -1.225592     -1.439565
   12   C     12    1.8500  1.000     -0.770515     -0.704501     -0.754441
   13   H     13    1.2000  1.000     -1.421123     -1.225633     -1.439565
   14   H     14    1.2000  1.000      2.176968      0.868852      0.000003
   15   H     15    1.2000  1.000     -2.176992      0.868794     -0.000003
 ------------------------------------------------------------------------------
 ------------------------------------------------------------------------------
 Atomic radii for non-electrostatic terms: SMD-CDS.
 ------------------------------------------------------------------------------
 Nuclear repulsion after PCM non-electrostatic terms =      297.7634805017 Hartrees.
 One-electron integrals computed using PRISM.
 NBasis=   293 RedAO= T EigKep=  3.94D-06  NBF=   293
 NBsUse=   291 1.00D-06 EigRej=  4.91D-07 NBFU=   291
 Initial guess from the checkpoint file:  ""quadri_ma.chk""
 B after Tr=     0.000000    0.000000    0.000000
         Rot=    1.000000    0.000000    0.000000   -0.000013 Ang=   0.00 deg.
 Requested convergence on RMS density matrix=1.00D-08 within 128 cycles.
 Requested convergence on MAX density matrix=1.00D-06.
 Requested convergence on             energy=1.00D-06.
 No special actions if energy rises.
 Inv3:  Mode=1 IEnd=     3623403.
 Iteration    1 A*A^-1 deviation from unit magnitude is 2.89D-15 for   1070.
 Iteration    1 A*A^-1 deviation from orthogonality  is 2.08D-15 for   1079    948.
 Iteration    1 A^-1*A deviation from unit magnitude is 2.66D-15 for   1070.
 Iteration    1 A^-1*A deviation from orthogonality  is 1.70D-15 for    421    380.
 Error on total polarization charges =  0.02411
 SCF Done:  E(RwB97XD) =  -271.471471348     A.U. after   10 cycles
            NFock= 10  Conv=0.29D-08     -V/T= 2.0053
 SMD-CDS (non-electrostatic) energy       (kcal/mol) =      -5.94
 (included in total energy above)
 D1PCM: PCM CHGder 1st derivatives, ID1Alg=3 FixD1E=F DoIter=F DoCFld=F I1PDM=0.
 Calling FoFJK, ICntrl=      2127 FMM=F ISym2X=0 I1Cent= 0 IOpClX= 0 NMat=1 NMatS=1 NMatT=0.
 ***** Axes restored to original set *****
 -------------------------------------------------------------------
 Center     Atomic                   Forces (Hartrees/Bohr)
 Number     Number              X              Y              Z
 -------------------------------------------------------------------
      1        6          -0.000217530    0.000101158    0.000062029
      2        6           0.000000542    0.000022949   -0.000034955
      3        6          -0.000000608   -0.000022479   -0.000034945
      4        6          -0.000217508   -0.000101715    0.000060309
      5        1           0.000037135    0.000040340   -0.000019064
      6        1           0.000037281   -0.000040117   -0.000019004
      7        6           0.000000070    0.000000017   -0.000330835
      8        1          -0.000015379    0.000000124    0.000080410
      9        1           0.000015384   -0.000000093    0.000080441
     10        6           0.000217417    0.000101554    0.000060480
     11        1          -0.000037288    0.000040093   -0.000019003
     12        6           0.000217692   -0.000101498    0.000061466
     13        1          -0.000037232   -0.000040317   -0.000018959
     14        1          -0.000000181    0.000095125    0.000035876
     15        1           0.000000202   -0.000095142    0.000035754
 -------------------------------------------------------------------
 Cartesian Forces:  Max     0.000330835 RMS     0.000094970

 GradGradGradGradGradGradGradGradGradGradGradGradGradGradGradGradGradGrad
 Berny optimization.
 Using GEDIIS/GDIIS optimizer.
 FormGI is forming the generalized inverse of G from B-inverse, IUseBI=4.
 Internal  Forces:  Max     0.000162374 RMS     0.000038884
 Search for a local minimum.
 Step number   2 out of a maximum of  100
 All quantities printed in internal units (Hartrees-Bohrs-Radians)
 Mixed Optimization -- En-DIIS/RFO-DIIS
 Swapping is turned off.
 Update second derivatives using D2CorX and points    1    2
 DE= -9.56D-05 DEPred=-9.75D-05 R= 9.81D-01
 TightC=F SS=  1.41D+00  RLast= 2.47D-02 DXNew= 5.0454D-01 7.4079D-02
 Trust test= 9.81D-01 RLast= 2.47D-02 DXMaxT set to 3.00D-01
 ITU=  1  0
     Eigenvalues ---    0.01146   0.01177   0.01501   0.01701   0.01781
     Eigenvalues ---    0.01913   0.02034   0.02135   0.04667   0.05878
     Eigenvalues ---    0.06285   0.06535   0.06833   0.07168   0.07882
     Eigenvalues ---    0.08550   0.10360   0.10929   0.10937   0.15442
     Eigenvalues ---    0.15931   0.18915   0.19602   0.22189   0.22666
     Eigenvalues ---    0.26203   0.26995   0.28203   0.29815   0.29933
     Eigenvalues ---    0.30727   0.34193   0.34311   0.35482   0.35578
     Eigenvalues ---    0.35738   0.35738   0.35738   0.36492
 En-DIIS/RFO-DIIS IScMMF=        0 using points:     2    1
 RFO step:  Lambda=-3.44934623D-07.
 DidBck=F Rises=F RFO-DIIS coefs:    0.97853    0.02147
 Iteration  1 RMS(Cart)=  0.00016424 RMS(Int)=  0.00000003
 Iteration  2 RMS(Cart)=  0.00000002 RMS(Int)=  0.00000002
 Variable       Old X    -DE/DX   Delta X   Delta X   Delta X     New X
                                 (Linear)    (Quad)   (Total)
    R1        2.85106  -0.00006   0.00007  -0.00020  -0.00013   2.85093
    R2        2.91216   0.00016   0.00014   0.00045   0.00059   2.91275
    R3        2.03903   0.00006   0.00013   0.00001   0.00014   2.03917
    R4        2.85137  -0.00012   0.00006  -0.00056  -0.00050   2.85087
    R5        2.85053   0.00000   0.00020  -0.00028  -0.00008   2.85045
    R6        2.85106  -0.00006   0.00007  -0.00020  -0.00013   2.85093
    R7        2.04284   0.00010   0.00013   0.00013   0.00026   2.04310
    R8        2.85106  -0.00006   0.00007  -0.00020  -0.00013   2.85093
    R9        2.85053   0.00000   0.00020  -0.00028  -0.00008   2.85045
   R10        2.85106  -0.00006   0.00007  -0.00020  -0.00013   2.85093
   R11        2.04284   0.00010   0.00013   0.00013   0.00026   2.04310
   R12        2.03904   0.00006   0.00013   0.00001   0.00014   2.03917
   R13        2.85137  -0.00012   0.00006  -0.00056  -0.00050   2.85087
   R14        2.06456   0.00006   0.00012   0.00003   0.00015   2.06472
   R15        2.06456   0.00006   0.00012   0.00003   0.00015   2.06472
   R16        2.03904   0.00006   0.00013   0.00001   0.00014   2.03917
   R17        2.91216   0.00016   0.00014   0.00045   0.00059   2.91275
   R18        2.03903   0.00006   0.00013   0.00001   0.00014   2.03917
    A1        1.82155   0.00001   0.00002   0.00004   0.00007   1.82161
    A2        2.17560  -0.00001  -0.00002  -0.00010  -0.00012   2.17548
    A3        2.21802   0.00000   0.00000   0.00001   0.00001   2.21803
    A4        1.57080   0.00000   0.00000   0.00000   0.00000   1.57080
    A5        2.25875   0.00000  -0.00001   0.00005   0.00004   2.25880
    A6        1.93037  -0.00004  -0.00002  -0.00024  -0.00026   1.93011
    A7        2.07567   0.00002   0.00000   0.00016   0.00016   2.07582
    A8        1.93037  -0.00004  -0.00002  -0.00024  -0.00026   1.93011
    A9        2.13053   0.00003   0.00003   0.00014   0.00017   2.13070
   A10        2.07567   0.00002   0.00000   0.00016   0.00015   2.07582
   A11        1.93037  -0.00004  -0.00002  -0.00024  -0.00026   1.93011
   A12        2.07567   0.00002   0.00000   0.00016   0.00015   2.07582
   A13        1.93037  -0.00004  -0.00002  -0.00024  -0.00026   1.93011
   A14        2.13053   0.00003   0.00003   0.00014   0.00017   2.13070
   A15        2.07567   0.00002   0.00000   0.00016   0.00015   2.07582
   A16        1.82155   0.00001   0.00002   0.00004   0.00006   1.82161
   A17        2.21802   0.00000   0.00000   0.00001   0.00001   2.21803
   A18        1.57080   0.00000   0.00000   0.00000   0.00000   1.57080
   A19        2.17560  -0.00001  -0.00002  -0.00010  -0.00012   2.17548
   A20        2.25875   0.00000  -0.00001   0.00005   0.00005   2.25879
   A21        1.72352   0.00009   0.00000   0.00054   0.00054   1.72406
   A22        1.95892  -0.00002   0.00000   0.00004   0.00004   1.95896
   A23        1.95892  -0.00002   0.00000   0.00004   0.00004   1.95896
   A24        1.95892  -0.00002   0.00000   0.00004   0.00004   1.95896
   A25        1.95892  -0.00002   0.00000   0.00004   0.00004   1.95896
   A26        1.90107  -0.00002  -0.00001  -0.00058  -0.00059   1.90048
   A27        2.25875   0.00000  -0.00001   0.00005   0.00005   2.25879
   A28        1.57080   0.00000   0.00000   0.00000   0.00000   1.57080
   A29        2.17560  -0.00001  -0.00002  -0.00010  -0.00012   2.17548
   A30        1.82155   0.00001   0.00002   0.00004   0.00006   1.82161
   A31        2.21802   0.00000   0.00000   0.00001   0.00001   2.21803
   A32        1.82155   0.00001   0.00002   0.00004   0.00006   1.82161
   A33        2.17560  -0.00001  -0.00002  -0.00010  -0.00012   2.17548
   A34        1.57080   0.00000   0.00000   0.00000   0.00000   1.57080
   A35        2.25875   0.00000  -0.00001   0.00005   0.00005   2.25879
   A36        2.21802   0.00000   0.00000   0.00001   0.00001   2.21803
    D1        0.36726  -0.00003   0.00000  -0.00020  -0.00020   0.36706
    D2        2.96524  -0.00001   0.00002  -0.00006  -0.00005   2.96520
    D3       -2.40818  -0.00002  -0.00002  -0.00008  -0.00009  -2.40827
    D4        0.18981   0.00000   0.00000   0.00006   0.00006   0.18987
    D5        0.00000   0.00000   0.00000   0.00000   0.00000   0.00000
    D6       -2.76347   0.00001  -0.00001   0.00016   0.00015  -2.76332
    D7        1.02839   0.00001   0.00000   0.00007   0.00007   1.02846
    D8        2.76346  -0.00001   0.00001  -0.00016  -0.00015   2.76331
    D9       -0.00001   0.00000   0.00000   0.00000   0.00000   0.00000
   D10       -2.49133   0.00000   0.00001  -0.00009  -0.00008  -2.49141
   D11       -1.02839  -0.00001   0.00000  -0.00007  -0.00007  -1.02846
   D12        2.49132   0.00000  -0.00001   0.00009   0.00008   2.49140
   D13        0.00000   0.00000   0.00000   0.00000   0.00000   0.00000
   D14       -2.46626   0.00000   0.00001  -0.00006  -0.00006  -2.46632
   D15        0.00000   0.00000   0.00000   0.00000   0.00000   0.00000
   D16        0.00000   0.00000   0.00000   0.00000   0.00000   0.00000
   D17        2.46626   0.00000  -0.00001   0.00007   0.00006   2.46632
   D18       -0.56358   0.00002   0.00001   0.00014   0.00014  -0.56344
   D19       -2.63118   0.00000   0.00000  -0.00022  -0.00022  -2.63139
   D20        1.50401   0.00004   0.00001   0.00049   0.00050   1.50451
   D21        0.56359  -0.00002  -0.00001  -0.00014  -0.00015   0.56344
   D22       -1.50400  -0.00004  -0.00001  -0.00050  -0.00051  -1.50451
   D23        2.63118   0.00000   0.00000   0.00022   0.00021   2.63139
   D24       -3.14159   0.00000   0.00000   0.00000   0.00000  -3.14159
   D25        1.07401  -0.00002   0.00000  -0.00036  -0.00036   1.07364
   D26       -1.07400   0.00002   0.00000   0.00035   0.00036  -1.07364
   D27        2.40818   0.00002   0.00002   0.00008   0.00009   2.40827
   D28       -0.36726   0.00003   0.00000   0.00020   0.00020  -0.36706
   D29       -0.18981   0.00000   0.00000  -0.00006  -0.00006  -0.18987
   D30       -2.96525   0.00001  -0.00002   0.00007   0.00005  -2.96520
   D31       -0.36726   0.00003   0.00000   0.00020   0.00020  -0.36706
   D32        2.40818   0.00002   0.00002   0.00007   0.00009   2.40827
   D33       -2.96525   0.00001  -0.00002   0.00007   0.00005  -2.96520
   D34       -0.18980   0.00000   0.00000  -0.00006  -0.00006  -0.18987
   D35        0.56358  -0.00002  -0.00001  -0.00014  -0.00015   0.56344
   D36        2.63118   0.00000   0.00000   0.00022   0.00021   2.63139
   D37       -1.50401  -0.00004  -0.00001  -0.00049  -0.00050  -1.50451
   D38       -0.56359   0.00002   0.00001   0.00014   0.00014  -0.56344
   D39        1.50401   0.00004   0.00001   0.00049   0.00050   1.50451
   D40       -2.63118   0.00000   0.00000  -0.00022  -0.00021  -2.63139
   D41       -3.14159   0.00000   0.00000   0.00000   0.00000  -3.14159
   D42       -1.07400   0.00002   0.00000   0.00035   0.00036  -1.07364
   D43        1.07401  -0.00002   0.00000  -0.00036  -0.00036   1.07364
   D44        0.36726  -0.00003   0.00000  -0.00020  -0.00020   0.36706
   D45       -2.40818  -0.00002  -0.00002  -0.00007  -0.00009  -2.40827
   D46        2.96524  -0.00001   0.00002  -0.00006  -0.00005   2.96520
   D47        0.18980   0.00000   0.00000   0.00006   0.00007   0.18987
   D48        0.00000   0.00000   0.00000   0.00000   0.00000   0.00000
   D49        2.46626   0.00000  -0.00001   0.00007   0.00006   2.46632
   D50       -2.46626   0.00000   0.00001  -0.00006  -0.00006  -2.46632
   D51        0.00000   0.00000   0.00000   0.00000   0.00000   0.00000
   D52        1.02839   0.00001   0.00000   0.00007   0.00007   1.02846
   D53        0.00000   0.00000   0.00000   0.00000   0.00000   0.00000
   D54       -2.49132   0.00000   0.00001  -0.00009  -0.00008  -2.49141
   D55        0.00000   0.00000   0.00000   0.00000   0.00000   0.00000
   D56       -1.02839  -0.00001   0.00000  -0.00007  -0.00007  -1.02846
   D57        2.76347  -0.00001   0.00001  -0.00016  -0.00015   2.76332
   D58       -2.76347   0.00001  -0.00001   0.00016   0.00015  -2.76332
   D59        2.49133   0.00000  -0.00001   0.00009   0.00008   2.49141
   D60        0.00000   0.00000   0.00000   0.00000   0.00000   0.00000
         Item               Value     Threshold  Converged?
 Maximum Force            0.000162     0.000450     YES
 RMS     Force            0.000039     0.000300     YES
 Maximum Displacement     0.000655     0.001800     YES
 RMS     Displacement     0.000164     0.001200     YES
 Predicted change in Energy=-3.715672D-07
 Optimization completed.
    -- Stationary point found.
                           ----------------------------
                           !   Optimized Parameters   !
                           ! (Angstroms and Degrees)  !
 --------------------------                            --------------------------
 ! Name  Definition              Value          Derivative Info.                !
 --------------------------------------------------------------------------------
 ! R1    R(1,2)                  1.5087         -DE/DX =   -0.0001              !
 ! R2    R(1,4)                  1.5411         -DE/DX =    0.0002              !
 ! R3    R(1,5)                  1.079          -DE/DX =    0.0001              !
 ! R4    R(1,10)                 1.5089         -DE/DX =   -0.0001              !
 ! R5    R(2,7)                  1.5084         -DE/DX =    0.0                 !
 ! R6    R(2,10)                 1.5087         -DE/DX =   -0.0001              !
 ! R7    R(2,14)                 1.081          -DE/DX =    0.0001              !
 ! R8    R(3,4)                  1.5087         -DE/DX =   -0.0001              !
 ! R9    R(3,7)                  1.5084         -DE/DX =    0.0                 !
 ! R10   R(3,12)                 1.5087         -DE/DX =   -0.0001              !
 ! R11   R(3,15)                 1.081          -DE/DX =    0.0001              !
 ! R12   R(4,6)                  1.079          -DE/DX =    0.0001              !
 ! R13   R(4,12)                 1.5089         -DE/DX =   -0.0001              !
 ! R14   R(7,8)                  1.0925         -DE/DX =    0.0001              !
 ! R15   R(7,9)                  1.0925         -DE/DX =    0.0001              !
 ! R16   R(10,11)                1.079          -DE/DX =    0.0001              !
 ! R17   R(10,12)                1.5411         -DE/DX =    0.0002              !
 ! R18   R(12,13)                1.079          -DE/DX =    0.0001              !
 ! A1    A(2,1,4)              104.367          -DE/DX =    0.0                 !
 ! A2    A(2,1,5)              124.6527         -DE/DX =    0.0                 !
 ! A3    A(4,1,5)              127.0832         -DE/DX =    0.0                 !
 ! A4    A(4,1,10)              90.0            -DE/DX =    0.0                 !
 ! A5    A(5,1,10)             129.4169         -DE/DX =    0.0                 !
 ! A6    A(1,2,7)              110.6022         -DE/DX =    0.0                 !
 ! A7    A(1,2,14)             118.9269         -DE/DX =    0.0                 !
 ! A8    A(7,2,10)             110.6023         -DE/DX =    0.0                 !
 ! A9    A(7,2,14)             122.0704         -DE/DX =    0.0                 !
 ! A10   A(10,2,14)            118.9271         -DE/DX =    0.0                 !
 ! A11   A(4,3,7)              110.6022         -DE/DX =    0.0                 !
 ! A12   A(4,3,15)             118.9272         -DE/DX =    0.0                 !
 ! A13   A(7,3,12)             110.6022         -DE/DX =    0.0                 !
 ! A14   A(7,3,15)             122.0704         -DE/DX =    0.0                 !
 ! A15   A(12,3,15)            118.927          -DE/DX =    0.0                 !
 ! A16   A(1,4,3)              104.3672         -DE/DX =    0.0                 !
 ! A17   A(1,4,6)              127.0832         -DE/DX =    0.0                 !
 ! A18   A(1,4,12)              90.0            -DE/DX =    0.0                 !
 ! A19   A(3,4,6)              124.6527         -DE/DX =    0.0                 !
 ! A20   A(6,4,12)             129.4166         -DE/DX =    0.0                 !
 ! A21   A(2,7,3)               98.7505         -DE/DX =    0.0001              !
 ! A22   A(2,7,8)              112.2378         -DE/DX =    0.0                 !
 ! A23   A(2,7,9)              112.2377         -DE/DX =    0.0                 !
 ! A24   A(3,7,8)              112.2377         -DE/DX =    0.0                 !
 ! A25   A(3,7,9)              112.2378         -DE/DX =    0.0                 !
 ! A26   A(8,7,9)              108.9234         -DE/DX =    0.0                 !
 ! A27   A(1,10,11)            129.4166         -DE/DX =    0.0                 !
 ! A28   A(1,10,12)             90.0            -DE/DX =    0.0                 !
 ! A29   A(2,10,11)            124.6527         -DE/DX =    0.0                 !
 ! A30   A(2,10,12)            104.3671         -DE/DX =    0.0                 !
 ! A31   A(11,10,12)           127.0832         -DE/DX =    0.0                 !
 ! A32   A(3,12,10)            104.3671         -DE/DX =    0.0                 !
 ! A33   A(3,12,13)            124.6528         -DE/DX =    0.0                 !
 ! A34   A(4,12,10)             90.0            -DE/DX =    0.0                 !
 ! A35   A(4,12,13)            129.4167         -DE/DX =    0.0                 !
 ! A36   A(10,12,13)           127.0832         -DE/DX =    0.0                 !
 ! D1    D(4,1,2,7)             21.0425         -DE/DX =    0.0                 !
 ! D2    D(4,1,2,14)           169.8959         -DE/DX =    0.0                 !
 ! D3    D(5,1,2,7)           -137.9783         -DE/DX =    0.0                 !
 ! D4    D(5,1,2,14)            10.875          -DE/DX =    0.0                 !
 ! D5    D(2,1,4,3)              0.0            -DE/DX =    0.0                 !
 ! D6    D(2,1,4,6)           -158.3353         -DE/DX =    0.0                 !
 ! D7    D(2,1,4,12)            58.9225         -DE/DX =    0.0                 !
 ! D8    D(5,1,4,3)            158.3349         -DE/DX =    0.0                 !
 ! D9    D(5,1,4,6)             -0.0004         -DE/DX =    0.0                 !
 ! D10   D(5,1,4,12)          -142.7427         -DE/DX =    0.0                 !
 ! D11   D(10,1,4,3)           -58.9223         -DE/DX =    0.0                 !
 ! D12   D(10,1,4,6)           142.7424         -DE/DX =    0.0                 !
 ! D13   D(10,1,4,12)            0.0001         -DE/DX =    0.0                 !
 ! D14   D(4,1,10,11)         -141.3065         -DE/DX =    0.0                 !
 ! D15   D(4,1,10,12)           -0.0001         -DE/DX =    0.0                 !
 ! D16   D(5,1,10,11)            0.0001         -DE/DX =    0.0                 !
 ! D17   D(5,1,10,12)          141.3065         -DE/DX =    0.0                 !
 ! D18   D(1,2,7,3)            -32.291          -DE/DX =    0.0                 !
 ! D19   D(1,2,7,8)           -150.7552         -DE/DX =    0.0                 !
 ! D20   D(1,2,7,9)             86.1733         -DE/DX =    0.0                 !
 ! D21   D(10,2,7,3)            32.2911         -DE/DX =    0.0                 !
 ! D22   D(10,2,7,8)           -86.1731         -DE/DX =    0.0                 !
 ! D23   D(10,2,7,9)           150.7554         -DE/DX =    0.0                 !
 ! D24   D(14,2,7,3)          -179.9997         -DE/DX =    0.0                 !
 ! D25   D(14,2,7,8)            61.536          -DE/DX =    0.0                 !
 ! D26   D(14,2,7,9)           -61.5355         -DE/DX =    0.0                 !
 ! D27   D(7,2,10,11)          137.9786         -DE/DX =    0.0                 !
 ! D28   D(7,2,10,12)          -21.0426         -DE/DX =    0.0                 !
 ! D29   D(14,2,10,11)         -10.8751         -DE/DX =    0.0                 !
 ! D30   D(14,2,10,12)        -169.8963         -DE/DX =    0.0                 !
 ! D31   D(7,3,4,1)            -21.0426         -DE/DX =    0.0                 !
 ! D32   D(7,3,4,6)            137.9787         -DE/DX =    0.0                 !
 ! D33   D(15,3,4,1)          -169.8963         -DE/DX =    0.0                 !
 ! D34   D(15,3,4,6)           -10.875          -DE/DX =    0.0                 !
 ! D35   D(4,3,7,2)             32.291          -DE/DX =    0.0                 !
 ! D36   D(4,3,7,8)            150.7554         -DE/DX =    0.0                 !
 ! D37   D(4,3,7,9)            -86.1732         -DE/DX =    0.0                 !
 ! D38   D(12,3,7,2)           -32.2911         -DE/DX =    0.0                 !
 ! D39   D(12,3,7,8)            86.1732         -DE/DX =    0.0                 !
 ! D40   D(12,3,7,9)          -150.7553         -DE/DX =    0.0                 !
 ! D41   D(15,3,7,2)          -179.9997         -DE/DX =    0.0                 !
 ! D42   D(15,3,7,8)           -61.5354         -DE/DX =    0.0                 !
 ! D43   D(15,3,7,9)            61.5361         -DE/DX =    0.0                 !
 ! D44   D(7,3,12,10)           21.0426         -DE/DX =    0.0                 !
 ! D45   D(7,3,12,13)         -137.9786         -DE/DX =    0.0                 !
[...]
 ! D57   D(2,10,12,13)         158.3351         -DE/DX =    0.0                 !
 ! D58   D(11,10,12,3)        -158.3351         -DE/DX =    0.0                 !
 ! D59   D(11,10,12,4)         142.7425         -DE/DX =    0.0                 !
 ! D60   D(11,10,12,13)          0.0            -DE/DX =    0.0                 !
 --------------------------------------------------------------------------------
 GradGradGradGradGradGradGradGradGradGradGradGradGradGradGradGradGradGrad

                          Input orientation:                          
 ---------------------------------------------------------------------
 Center     Atomic      Atomic             Coordinates (Angstroms)
 Number     Number       Type             X           Y           Z
 ---------------------------------------------------------------------
      1          6           0        0.754412    0.770555   -0.704853
      2          6           0       -0.000045    1.144888    0.546905
      3          6           0        0.000046   -1.144889    0.546905
      4          6           0        0.754472   -0.770496   -0.704851
      5          1           0        1.439513    1.421196   -1.225973
      6          1           0        1.439620   -1.421086   -1.225974
      7          6           0       -0.000001   -0.000001    1.529052
      8          1           0       -0.889015   -0.000037    2.164075
      9          1           0        0.889013    0.000036    2.164077
     10          6           0       -0.754470    0.770497   -0.704852
     11          1           0       -1.439618    1.421087   -1.225974
     12          6           0       -0.754410   -0.770554   -0.704853
     13          1           0       -1.439508   -1.421195   -1.225977
     14          1           0       -0.000082    2.176980    0.868461
     15          1           0        0.000082   -2.176980    0.868461
 ---------------------------------------------------------------------
                    Distance matrix (angstroms):
                    1          2          3          4          5
     1  C    0.000000
     2  C    1.508717   0.000000
     3  C    2.409334   2.289777   0.000000
     4  C    1.541051   2.409333   1.508715   0.000000
     5  H    1.079011   2.300385   3.435106   2.354647   0.000000
     6  H    2.354648   3.435107   2.300382   1.079011   2.842282
     7  C    2.480569   1.508437   1.508437   2.480567   3.417917
     8  H    3.394910   2.171718   2.171717   3.394907   4.351365
     9  H    2.973646   2.171717   2.171718   2.973645   3.716878
    10  C    1.508881   1.508715   2.409334   2.156748   2.347027
    11  H    2.347025   2.300382   3.435108   3.144620   2.879132
    12  C    2.156747   2.409333   1.508717   1.508882   3.144620
    13  H    3.144618   3.435106   2.300385   2.347026   4.045733
    14  H    2.241118   1.081023   3.337395   3.425241   2.651471
    15  H    3.425243   3.337395   1.081023   2.241119   4.405166
                    6          7          8          9         10
     6  H    0.000000
     7  C    3.417917   0.000000
     8  H    4.351362   1.092521   0.000000
     9  H    3.716880   1.092521   1.778027   0.000000
    10  C    3.144620   2.480567   2.973646   3.394907   0.000000
    11  H    4.045733   3.417917   3.716880   4.351362   1.079011
    12  C    2.347025   2.480568   2.973645   3.394909   1.541051
    13  H    2.879128   3.417918   3.716879   4.351364   2.354647
    14  H    4.405165   2.274999   2.684813   2.684808   2.241118
    15  H    2.651472   2.274999   2.684807   2.684812   3.425242
                   11         12         13         14         15
    11  H    0.000000
    12  C    2.354648   0.000000
    13  H    2.842282   1.079011   0.000000
    14  H    2.651471   3.425242   4.405166   0.000000
    15  H    4.405165   2.241118   2.651472   4.353960   0.000000
 Stoichiometry    C7H8
 Framework group  C1[X(C7H8)]
 Deg. of freedom    39
 Full point group                 C1      NOp   1
 Largest Abelian subgroup         C1      NOp   1
 Largest concise Abelian subgroup C1      NOp   1
                         Standard orientation:                         
 ---------------------------------------------------------------------
 Center     Atomic      Atomic             Coordinates (Angstroms)
 Number     Number       Type             X           Y           Z
 ---------------------------------------------------------------------
      1          6           0        0.770535   -0.704481    0.754441
      2          6           0        1.144881    0.547282    0.000000
      3          6           0       -1.144896    0.547252    0.000001
      4          6           0       -0.770516   -0.704500    0.754441
      5          1           0        1.421156   -1.225593    1.439567
      6          1           0       -1.421126   -1.225632    1.439563
      7          6           0       -0.000021    1.529414    0.000000
      8          1           0       -0.000031    2.164438   -0.889014
      9          1           0       -0.000028    2.164438    0.889014
     10          6           0        0.770535   -0.704479   -0.754441
     11          1           0        1.421159   -1.225592   -1.439565
     12          6           0       -0.770515   -0.704501   -0.754441
     13          1           0       -1.421123   -1.225633   -1.439565
     14          1           0        2.176968    0.868852    0.000003
     15          1           0       -2.176992    0.868794   -0.000003
 ---------------------------------------------------------------------
 Rotational constants (GHZ):      4.4584350      4.3976993      3.2873083

 **********************************************************************

            Population analysis using the SCF density.

 **********************************************************************

 Orbital symmetries:
       Occupied  (A) (A) (A) (A) (A) (A) (A) (A) (A) (A) (A) (A)
                 (A) (A) (A) (A) (A) (A) (A) (A) (A) (A) (A) (A)
                 (A)
       Virtual   (A) (A) (A) (A) (A) (A) (A) (A) (A) (A) (A) (A)
                 (A) (A) (A) (A) (A) (A) (A) (A) (A) (A) (A) (A)
                 (A) (A) (A) (A) (A) (A) (A) (A) (A) (A) (A) (A)
                 (A) (A) (A) (A) (A) (A) (A) (A) (A) (A) (A) (A)
                 (A) (A) (A) (A) (A) (A) (A) (A) (A) (A) (A) (A)
                 (A) (A) (A) (A) (A) (A) (A) (A) (A) (A) (A) (A)
                 (A) (A) (A) (A) (A) (A) (A) (A) (A) (A) (A) (A)
                 (A) (A) (A) (A) (A) (A) (A) (A) (A) (A) (A) (A)
                 (A) (A) (A) (A) (A) (A) (A) (A) (A) (A) (A) (A)
                 (A) (A) (A) (A) (A) (A) (A) (A) (A) (A) (A) (A)
                 (A) (A) (A) (A) (A) (A) (A) (A) (A) (A) (A) (A)
                 (A) (A) (A) (A) (A) (A) (A) (A) (A) (A) (A) (A)
                 (A) (A) (A) (A) (A) (A) (A) (A) (A) (A) (A) (A)
                 (A) (A) (A) (A) (A) (A) (A) (A) (A) (A) (A) (A)
                 (A) (A) (A) (A) (A) (A) (A) (A) (A) (A) (A) (A)
                 (A) (A) (A) (A) (A) (A) (A) (A) (A) (A) (A) (A)
                 (A) (A) (A) (A) (A) (A) (A) (A) (A) (A) (A) (A)
                 (A) (A) (A) (A) (A) (A) (A) (A) (A) (A) (A) (A)
                 (A) (A) (A) (A) (A) (A) (A) (A) (A) (A) (A) (A)
                 (A) (A) (A) (A) (A) (A) (A) (A) (A) (A) (A) (A)
                 (A) (A) (A) (A) (A) (A) (A) (A) (A) (A) (A) (A)
                 (A) (A) (A) (A) (A) (A) (A) (A) (A) (A) (A) (A)
                 (A) (A)
 The electronic state is 1-A.
 Alpha  occ. eigenvalues --  -10.28355 -10.28349 -10.28319 -10.28313 -10.28308
 Alpha  occ. eigenvalues --  -10.28294 -10.27279  -1.04658  -0.88031  -0.82948
 Alpha  occ. eigenvalues --   -0.72969  -0.65773  -0.64144  -0.62656  -0.60647
 Alpha  occ. eigenvalues --   -0.52195  -0.51779  -0.51472  -0.47532  -0.42974
 Alpha  occ. eigenvalues --   -0.42118  -0.39206  -0.35833  -0.34755  -0.29987
 Alpha virt. eigenvalues --    0.04958   0.06307   0.06620   0.06772   0.09483
 Alpha virt. eigenvalues --    0.09554   0.09821   0.10113   0.10318   0.12892
 Alpha virt. eigenvalues --    0.13253   0.13275   0.13475   0.13910   0.14015
 Alpha virt. eigenvalues --    0.14045   0.16318   0.16461   0.16855   0.17424
 Alpha virt. eigenvalues --    0.17674   0.17694   0.18242   0.18969   0.19253
 Alpha virt. eigenvalues --    0.20147   0.20580   0.22047   0.22048   0.25612
 Alpha virt. eigenvalues --    0.26487   0.26654   0.27037   0.27505   0.28678
 Alpha virt. eigenvalues --    0.29270   0.29426   0.30416   0.31042   0.32202
 Alpha virt. eigenvalues --    0.32619   0.33400   0.35820   0.36948   0.39617
 Alpha virt. eigenvalues --    0.39903   0.39913   0.43615   0.47309   0.48375
 Alpha virt. eigenvalues --    0.49895   0.49990   0.50367   0.52639   0.52694
 Alpha virt. eigenvalues --    0.53479   0.54276   0.54341   0.55364   0.55618
 Alpha virt. eigenvalues --    0.56396   0.56953   0.57276   0.58148   0.59145
 Alpha virt. eigenvalues --    0.60432   0.60658   0.61126   0.61147   0.62092
 Alpha virt. eigenvalues --    0.63471   0.63853   0.64767   0.69088   0.70169
 Alpha virt. eigenvalues --    0.73861   0.75862   0.78276   0.83269   0.92148
 Alpha virt. eigenvalues --    0.92361   0.92441   0.96325   0.98508   1.02440
 Alpha virt. eigenvalues --    1.03383   1.07369   1.08797   1.10679   1.12122
 Alpha virt. eigenvalues --    1.12431   1.12865   1.15102   1.16595   1.21587
 Alpha virt. eigenvalues --    1.21953   1.24032   1.28105   1.28507   1.29972
 Alpha virt. eigenvalues --    1.30874   1.31240   1.32631   1.32730   1.33134
 Alpha virt. eigenvalues --    1.35566   1.36364   1.38289   1.39742   1.41694
 Alpha virt. eigenvalues --    1.44971   1.48636   1.51412   1.52084   1.54507
 Alpha virt. eigenvalues --    1.61817   1.67883   1.69862   1.72198   1.73180
 Alpha virt. eigenvalues --    1.75799   1.77346   1.78053   1.80148   1.81229
 Alpha virt. eigenvalues --    1.82710   1.84160   1.84793   1.85181   1.92782
 Alpha virt. eigenvalues --    2.02513   2.05807   2.08301   2.09825   2.11350
 Alpha virt. eigenvalues --    2.13405   2.14661   2.18150   2.18787   2.23767
 Alpha virt. eigenvalues --    2.30376   2.31595   2.33050   2.35800   2.37153
 Alpha virt. eigenvalues --    2.41304   2.42218   2.44692   2.47846   2.48077
 Alpha virt. eigenvalues --    2.52000   2.52275   2.53668   2.53781   2.55555
 Alpha virt. eigenvalues --    2.56203   2.61688   2.65220   2.65904   2.66702
 Alpha virt. eigenvalues --    2.70776   2.73722   2.76326   2.76946   2.77878
 Alpha virt. eigenvalues --    2.79314   2.79436   2.84257   2.85837   2.86218
 Alpha virt. eigenvalues --    2.88153   2.89433   2.89488   2.91406   2.94706
 Alpha virt. eigenvalues --    2.98530   2.99645   3.01805   3.08462   3.09821
 Alpha virt. eigenvalues --    3.12211   3.13348   3.17010   3.17011   3.18255
 Alpha virt. eigenvalues --    3.18532   3.18660   3.19856   3.21577   3.22751
 Alpha virt. eigenvalues --    3.27914   3.28117   3.30402   3.30459   3.33850
 Alpha virt. eigenvalues --    3.34732   3.35365   3.45340   3.49004   3.49246
 Alpha virt. eigenvalues --    3.51592   3.55356   3.56518   3.58722   3.58802
 Alpha virt. eigenvalues --    3.61793   3.65345   3.65384   3.74924   3.78980
 Alpha virt. eigenvalues --    3.78990   3.79674   3.87274   3.93107   3.93263
 Alpha virt. eigenvalues --    3.95788   3.98081   4.02077   4.02123   4.04984
 Alpha virt. eigenvalues --    4.07163   4.10199   4.11212   4.13442   4.13749
 Alpha virt. eigenvalues --    4.19687   4.20123   4.23536   4.24268   4.28642
 Alpha virt. eigenvalues --    4.29149   4.29303   4.30560   4.31992   4.34778
 Alpha virt. eigenvalues --    4.41577   4.42724   4.44461   4.45382   4.50801
 Alpha virt. eigenvalues --    4.59721   4.59784   4.62839   4.71250   4.76807
 Alpha virt. eigenvalues --    4.78410   4.79727   4.97312   4.97792   4.97921
 Alpha virt. eigenvalues --    5.03100   5.05198   5.06298   5.09004   5.15175
 Alpha virt. eigenvalues --    5.16987   5.21198   5.22163   5.45288  22.56090
 Alpha virt. eigenvalues --   22.59867  22.64344  22.64969  22.78524  22.78536
 Alpha virt. eigenvalues --   22.88218
          Condensed to atoms (all electrons):
               1          2          3          4          5          6
     1  C    5.468729   0.025326  -0.275100   0.476602   0.440219  -0.053724
     2  C    0.025326   6.034312   0.578806  -0.275093  -0.029966   0.012991
     3  C   -0.275100   0.578806   6.034314   0.025329   0.012990  -0.029966
     4  C    0.476602  -0.275093   0.025329   5.468723  -0.053724   0.440218
     5  H    0.440219  -0.029966   0.012990  -0.053724   0.514632  -0.003935
     6  H   -0.053724   0.012991  -0.029966   0.440218  -0.003935   0.514632
     7  C    0.076782  -0.104864  -0.104865   0.076780  -0.004962  -0.004962
     8  H    0.034504  -0.060565  -0.060566   0.034504   0.000000   0.000000
     9  H   -0.022445  -0.060566  -0.060565  -0.022445   0.000228   0.000228
    10  C    0.149950   0.025329  -0.275094  -0.192561  -0.032157   0.023694
    11  H   -0.032157  -0.029966   0.012991   0.023694  -0.002222  -0.000071
    12  C   -0.192561  -0.275097   0.025328   0.149948   0.023694  -0.032157
    13  H    0.023694   0.012991  -0.029966  -0.032158  -0.000071  -0.002222
    14  H   -0.033563   0.404926   0.000363   0.010291  -0.005076   0.000060
    15  H    0.010292   0.000363   0.404925  -0.033562   0.000060  -0.005076
               7          8          9         10         11         12
     1  C    0.076782   0.034504  -0.022445   0.149950  -0.032157  -0.192561
     2  C   -0.104864  -0.060565  -0.060566   0.025329  -0.029966  -0.275097
     3  C   -0.104865  -0.060566  -0.060565  -0.275094   0.012991   0.025328
     4  C    0.076780   0.034504  -0.022445  -0.192561   0.023694   0.149948
     5  H   -0.004962   0.000000   0.000228  -0.032157  -0.002222   0.023694
     6  H   -0.004962   0.000000   0.000228   0.023694  -0.000071  -0.032157
     7  C    5.165619   0.459685   0.459685   0.076780  -0.004962   0.076780
     8  H    0.459685   0.552138  -0.026804  -0.022445   0.000228  -0.022445
     9  H    0.459685  -0.026804   0.552138   0.034504   0.000000   0.034504
    10  C    0.076780  -0.022445   0.034504   5.468722   0.440218   0.476602
    11  H   -0.004962   0.000228   0.000000   0.440218   0.514632  -0.053724
    12  C    0.076780  -0.022445   0.034504   0.476602  -0.053724   5.468728
    13  H   -0.004962   0.000228   0.000000  -0.053724  -0.003935   0.440219
    14  H    0.001797  -0.001681  -0.001681  -0.033562  -0.005076   0.010292
    15  H    0.001797  -0.001681  -0.001681   0.010291   0.000060  -0.033563
              13         14         15
     1  C    0.023694  -0.033563   0.010292
     2  C    0.012991   0.404926   0.000363
     3  C   -0.029966   0.000363   0.404925
     4  C   -0.032158   0.010291  -0.033562
     5  H   -0.000071  -0.005076   0.000060
     6  H   -0.002222   0.000060  -0.005076
     7  C   -0.004962   0.001797   0.001797
     8  H    0.000228  -0.001681  -0.001681
     9  H    0.000000  -0.001681  -0.001681
    10  C   -0.053724  -0.033562   0.010291
    11  H   -0.003935  -0.005076   0.000060
    12  C    0.440219   0.010292  -0.033563
    13  H    0.514632   0.000060  -0.005076
    14  H    0.000060   0.513232   0.000017
    15  H   -0.005076   0.000017   0.513232
 Mulliken charges:
               1
     1  C   -0.096548
     2  C   -0.258924
     3  C   -0.258924
     4  C   -0.096547
     5  H    0.140291
     6  H    0.140291
     7  C   -0.166126
     8  H    0.114899
     9  H    0.114899
    10  C   -0.096547
    11  H    0.140291
    12  C   -0.096548
    13  H    0.140291
    14  H    0.139602
    15  H    0.139602
 Sum of Mulliken charges =   0.00000
 Mulliken charges with hydrogens summed into heavy atoms:
               1
     1  C    0.043742
     2  C   -0.119322
     3  C   -0.119322
     4  C    0.043744
     7  C    0.063671
    10  C    0.043744
    12  C    0.043742
 Electronic spatial extent (au):  <R**2>=            510.5951
 Charge=              0.0000 electrons
 Dipole moment (field-independent basis, Debye):
    X=              0.0000    Y=              0.0012    Z=              0.0000  Tot=              0.0012
 Quadrupole moment (field-independent basis, Debye-Ang):
   XX=            -38.9772   YY=            -41.6506   ZZ=            -41.7946
   XY=              0.0000   XZ=              0.0000   YZ=              0.0000
 Traceless Quadrupole moment (field-independent basis, Debye-Ang):
   XX=              1.8303   YY=             -0.8431   ZZ=             -0.9872
   XY=              0.0000   XZ=              0.0000   YZ=              0.0000
 Octapole moment (field-independent basis, Debye-Ang**2):
  XXX=              0.0000  YYY=              3.1537  ZZZ=              0.0000  XYY=             -0.0001
  XXY=             -0.9458  XXZ=              0.0000  XZZ=              0.0001  YZZ=             -3.6574
  YYZ=              0.0000  XYZ=              0.0000
 Hexadecapole moment (field-independent basis, Debye-Ang**3):
 XXXX=           -255.2198 YYYY=           -279.5923 ZZZZ=           -158.7502 XXXY=              0.0001
 XXXZ=              0.0001 YYYX=              0.0003 YYYZ=              0.0000 ZZZX=              0.0000
 ZZZY=              0.0000 XXYY=            -87.6680 XXZZ=            -69.8980 YYZZ=            -64.3199
 XXYZ=              0.0000 YYXZ=              0.0000 ZZXY=             -0.0001
 N-N= 2.977634805017D+02 E-N=-1.224908989137D+03  KE= 2.700287734299D+02
 1\1\GINC-D8S3B4\FOpt\RwB97XD\Gen\C7H8\PMMASS\09-Feb-2022\0\\#n wB97XD/
 Gen scrf(smd,solvent=toluene) opt\\Quadricyclane cycloaddition toluene
  - opt\\0,1\C,0.7544118004,0.7705548307,-0.7048526925\C,-0.0000448865,
 1.1448882642,0.5469051783\C,0.0000456099,-1.1448888931,0.5469049621\C,
 0.7544719634,-0.7704959219,-0.7048507274\H,1.4395134694,1.4211961159,-
 1.2259726712\H,1.4396203338,-1.4210857393,-1.2259738524\C,-0.000000566
 5,-0.0000005154,1.5290516801\H,-0.8890147835,-0.0000371072,2.164075410
 4\H,0.889012702,0.0000356571,2.1640767051\C,-0.754469534,0.7704967277,
 -0.7048518126\H,-1.4396183654,1.421086606,-1.2259743337\C,-0.754409659
 6,-0.7705539916,-0.704853114\H,-1.4395081256,-1.4211953555,-1.22597718
 44\H,-0.0000818277,2.1769795172,0.8684613871\H,0.0000818699,-2.1769801
 948,0.8684610651\\Version=ES64L-G09RevD.01\State=1-A\HF=-271.4714713\R
 MSD=2.892e-09\RMSF=9.497e-05\Dipole=0.0000001,0.,0.000479\Quadrupole=-
 0.7339293,1.3607709,-0.6268416,-0.0000723,-0.0000005,0.\PG=C01 [X(C7H8
 )]\\@


 NOBODY LOSES ALL THE TIME
 I HAD AN UNCLE NAMED
 SOL WHO WAS A BORN FAILURE AND
 NEARLY EVERYBODY SAID HE SHOULD HAVE GONE
 INTO VAUDEVILLE PERHAPS BECAUSE MY UNCLE SOL COULD
 SING MCCANN HE WAS A DIVER ON XMAS EVE LIKE HELL ITSELF WHICH
 MAY OR MAY NOT ACCOUNT FOR THE FACT THAT MY UNCLE
 SOL INDULGED IN THAT POSSIBLY MOST INEXCUSABLE
 OF ALL TO USE A HIGHFALOOTIN PHRASE
 LUXURIES THAT IS OR TO
 WIT FARMING AND BE
 IT NEEDLESSLY
 ADDED
 MY UNCLE SOL'S FARM     
 FAILED BECAUSE THE CHICKENS
 ATE THE VEGETABLES SO
 MY UNCLE SOL HAD A
 CHICKEN FARM TILL THE
 SKUNKS ATE THE CHICKENS WHEN 
 MY UNCLE SOL
 HAD A SKUNK FARM BUT
 THE SKUNKS CAUGHT COLD AND
 DIED AND SO
 MY UNCLE SOL IMITATED THE
 SKUNKS IN A SUBTLE MANNER
 OR BY DROWNING HIMSELF IN THE WATERTANK
 BUT SOMEBODY WHO'D GIVEN MY UNCLE SOL A VICTOR     
 VICTROLA AND RECORDS WHILE HE LIVED PRESENTED TO
 HIM UPON THE AUSPICIOUS OCCASION OF HIS DECEASE A
 SCRUMPTIOUS NOT TO MENTION SPLENDIFEROUS FUNERAL WITH
 TALL BOYS IN BLACK GLOVES AND FLOWERS AND EVERYTHING AND
 I REMEMBER WE ALL CRIED LIKE THE MISSOURI
 WHEN MY UNCLE SOL'S COFFIN LURCHED BECAUSE     
 SOMEBODY PRESSED A BUTTON
 (AND DOWN WENT
 MY UNCLE
 SOL
 AND STARTED A WORM FARM)
           E. E. CUMMINGS
 Job cpu time:       0 days  0 hours 28 minutes  7.8 seconds.
 File lengths (MBytes):  RWF=     74 Int=      0 D2E=      0 Chk=      8 Scr=      1
 Normal termination of Gaussian 09 at Wed Feb  9 13:06:49 2022.
