 Entering Gaussian System, Link 0=g09
 Input=ts_cyclo_ma.com
 Output=ts_cyclo_ma.log
 Initial command:
 /apps/applications/gaussian/G09.D01/2/default/g09/l1.exe "/nobackup/pmmass/Temp/Gau-63191.inp" -scrdir="/nobackup/pmmass/Temp/"
 Entering Link 1 = /apps/applications/gaussian/G09.D01/2/default/g09/l1.exe PID=     63192.
  
 Copyright (c) 1988,1990,1992,1993,1995,1998,2003,2009,2013,
            Gaussian, Inc.  All Rights Reserved.
  
 This is part of the Gaussian(R) 09 program.  It is based on
 the Gaussian(R) 03 system (copyright 2003, Gaussian, Inc.),
 the Gaussian(R) 98 system (copyright 1998, Gaussian, Inc.),
 the Gaussian(R) 94 system (copyright 1995, Gaussian, Inc.),
 the Gaussian 92(TM) system (copyright 1992, Gaussian, Inc.),
 the Gaussian 90(TM) system (copyright 1990, Gaussian, Inc.),
 the Gaussian 88(TM) system (copyright 1988, Gaussian, Inc.),
 the Gaussian 86(TM) system (copyright 1986, Carnegie Mellon
 University), and the Gaussian 82(TM) system (copyright 1983,
 Carnegie Mellon University). Gaussian is a federally registered
 trademark of Gaussian, Inc.
  
 This software contains proprietary and confidential information,
 including trade secrets, belonging to Gaussian, Inc.
  
 This software is provided under written license and may be
 used, copied, transmitted, or stored only in accord with that
 written license.
  
 The following legend is applicable only to US Government
 contracts under FAR:
  
                    RESTRICTED RIGHTS LEGEND
  
 Use, reproduction and disclosure by the US Government is
 subject to restrictions as set forth in subparagraphs (a)
 and (c) of the Commercial Computer Software - Restricted
 Rights clause in FAR 52.227-19.
  
 Gaussian, Inc.
 340 Quinnipiac St., Bldg. 40, Wallingford CT 06492
  
  
 ---------------------------------------------------------------
 Warning -- This program may not be used in any manner that
 competes with the business of Gaussian, Inc. or will provide
 assistance to any competitor of Gaussian, Inc.  The licensee
 of this program is prohibited from giving any competitor of
 Gaussian, Inc. access to this program.  By using this program,
 the user acknowledges that Gaussian, Inc. is engaged in the
 business of creating and licensing software in the field of
 computational chemistry and represents and warrants to the
 licensee that it is not a competitor of Gaussian, Inc. and that
 it will not use this program in any manner prohibited above.
 ---------------------------------------------------------------
  

 Cite this work as:
 Gaussian 09, Revision D.01,
 M. J. Frisch, G. W. Trucks, H. B. Schlegel, G. E. Scuseria, 
 M. A. Robb, J. R. Cheeseman, G. Scalmani, V. Barone, B. Mennucci, 
 G. A. Petersson, H. Nakatsuji, M. Caricato, X. Li, H. P. Hratchian, 
 A. F. Izmaylov, J. Bloino, G. Zheng, J. L. Sonnenberg, M. Hada, 
 M. Ehara, K. Toyota, R. Fukuda, J. Hasegawa, M. Ishida, T. Nakajima, 
 Y. Honda, O. Kitao, H. Nakai, T. Vreven, J. A. Montgomery, Jr., 
 J. E. Peralta, F. Ogliaro, M. Bearpark, J. J. Heyd, E. Brothers, 
 K. N. Kudin, V. N. Staroverov, T. Keith, R. Kobayashi, J. Normand, 
 K. Raghavachari, A. Rendell, J. C. Burant, S. S. Iyengar, J. Tomasi, 
 M. Cossi, N. Rega, J. M. Millam, M. Klene, J. E. Knox, J. B. Cross, 
 V. Bakken, C. Adamo, J. Jaramillo, R. Gomperts, R. E. Stratmann, 
 O. Yazyev, A. J. Austin, R. Cammi, C. Pomelli, J. W. Ochterski, 
 R. L. Martin, K. Morokuma, V. G. Zakrzewski, G. A. Voth, 
 P. Salvador, J. J. Dannenberg, S. Dapprich, A. D. Daniels, 
 O. Farkas, J. B. Foresman, J. V. Ortiz, J. Cioslowski, 
 and D. J. Fox, Gaussian, Inc., Wallingford CT, 2013.
 
 ******************************************
 Gaussian 09:  ES64L-G09RevD.01 24-Apr-2013
                 9-Feb-2022 
 ******************************************
 %nprocshared=8
 Will use up to    8 processors via shared memory.
 %mem=4GB
 %NoSave
 %chk="ts_cyclo_ma.chk"
 -------------------------------------------------------------------
 #n wB97XD/Gen scrf(smd,solvent=toluene) opt=(calcfc,ts,noeigentest)
 -------------------------------------------------------------------
 1/5=1,10=4,11=1,14=-1,18=20,26=3,38=1/1,3;
 2/9=110,12=2,17=6,18=5,40=1/2;
 3/5=7,11=2,16=1,25=1,30=1,70=32201,71=2,72=13,74=-58,140=1/1,2,3;
 4//1;
 5/5=2,38=5,53=13/2;
 8/6=4,10=90,11=11/1;
 11/6=1,8=1,9=11,15=111,16=1/1,2,10;
 10/6=1,13=1/2;
 6/7=2,8=2,9=2,10=2,28=1/1;
 7/10=1,18=20,25=1/1,2,3,16;
 1/5=1,10=4,11=1,14=-1,18=20,26=3/3(2);
 2/9=110/2;
 99//99;
 2/9=110/2;
 3/5=7,6=1,11=2,16=1,25=1,30=1,70=32205,71=1,72=13,74=-58,82=7/1,2,3;
 4/5=5,16=3,69=1/1;
 5/5=2,38=5,53=13/2;
 7//1,2,3,16;
 1/5=1,11=1,14=-1,18=20,26=3/3(-5);
 2/9=110/2;
 6/7=2,8=2,9=2,10=2,19=2,28=1/1;
 99/9=1/99;
 ------------------------------
 ts cycloaddition toluene - opt
 ------------------------------
 Symbolic Z-matrix:
 Charge =  0 Multiplicity = 1
 C                     0.45653   0.84563  -0.83706 
 C                     1.57279   1.54522   0.01235 
 C                    -0.41471   2.37733   0.81847 
 C                    -0.78848   1.6164   -0.42367 
 H                     0.62054   0.50996  -1.85167 
 H                    -1.79525   1.35598  -0.71585 
 C                     0.9108    1.86163   1.34668 
 H                     1.47526   2.62598   1.88872 
 H                     0.78586   0.97663   1.97276 
 C                     1.13058   2.51768  -0.95741 
 H                     1.61128   2.72536  -1.90415 
 C                    -0.19184   3.02973  -0.51498 
 H                    -0.70025   3.89695  -0.90947 
 H                     2.56273   1.10879  -0.06049 
 H                    -1.20527   2.72983   1.46763 
 N                    -0.72063  -0.7691    0.89789 
 N                     0.11169  -0.90344  -0.08755 
 C                    -2.05912  -0.89495   0.51647 
 C                     1.42127  -1.28326   0.334 
 O                     1.76107  -1.58425   1.44705 
 O                    -2.96334  -0.74014   1.31 
 O                     2.21421  -1.36255  -0.74392 
 O                    -2.2739   -1.23235  -0.77307 
 C                    -3.64837  -1.40094  -1.12764 
 H                    -3.65074  -1.66644  -2.1853 
 H                    -4.10522  -2.20045  -0.53964 
 H                    -4.21029  -0.4764   -0.97034 
 C                     3.54387  -1.82975  -0.48363 
 H                     4.05815  -1.17172   0.22132 
 H                     3.51996  -2.84372  -0.07856 
 H                     4.05254  -1.82181  -1.44727 
 
 Add virtual bond connecting atoms N17        and C1         Dist= 3.65D+00.

 GradGradGradGradGradGradGradGradGradGradGradGradGradGradGradGradGradGrad
 Berny optimization.
 Initialization pass.
                           ----------------------------
                           !    Initial Parameters    !
                           ! (Angstroms and Degrees)  !
 --------------------------                            --------------------------
 ! Name  Definition              Value          Derivative Info.                !
 --------------------------------------------------------------------------------
 ! R1    R(1,2)                  1.5675         calculate D2E/DX2 analytically  !
 ! R2    R(1,4)                  1.5215         calculate D2E/DX2 analytically  !
 ! R3    R(1,5)                  1.0812         calculate D2E/DX2 analytically  !
 ! R4    R(1,10)                 1.8068         calculate D2E/DX2 analytically  !
 ! R5    R(1,17)                 1.9339         calculate D2E/DX2 analytically  !
 ! R6    R(2,7)                  1.5228         calculate D2E/DX2 analytically  !
 ! R7    R(2,10)                 1.4428         calculate D2E/DX2 analytically  !
 ! R8    R(2,14)                 1.0843         calculate D2E/DX2 analytically  !
 ! R9    R(3,4)                  1.5039         calculate D2E/DX2 analytically  !
 ! R10   R(3,7)                  1.5172         calculate D2E/DX2 analytically  !
 ! R11   R(3,12)                 1.5011         calculate D2E/DX2 analytically  !
 ! R12   R(3,15)                 1.082          calculate D2E/DX2 analytically  !
 ! R13   R(4,6)                  1.0802         calculate D2E/DX2 analytically  !
 ! R14   R(4,12)                 1.5368         calculate D2E/DX2 analytically  !
 ! R15   R(7,8)                  1.0939         calculate D2E/DX2 analytically  !
 ! R16   R(7,9)                  1.0912         calculate D2E/DX2 analytically  !
 ! R17   R(10,11)                1.0819         calculate D2E/DX2 analytically  !
 ! R18   R(10,12)                1.4855         calculate D2E/DX2 analytically  !
 ! R19   R(12,13)                1.0799         calculate D2E/DX2 analytically  !
 ! R20   R(16,17)                1.2969         calculate D2E/DX2 analytically  !
 ! R21   R(16,18)                1.3975         calculate D2E/DX2 analytically  !
 ! R22   R(17,19)                1.4272         calculate D2E/DX2 analytically  !
 ! R23   R(18,21)                1.213          calculate D2E/DX2 analytically  !
 ! R24   R(18,23)                1.3501         calculate D2E/DX2 analytically  !
 ! R25   R(19,20)                1.2021         calculate D2E/DX2 analytically  !
 ! R26   R(19,22)                1.3405         calculate D2E/DX2 analytically  !
 ! R27   R(22,28)                1.4332         calculate D2E/DX2 analytically  !
 ! R28   R(23,24)                1.4294         calculate D2E/DX2 analytically  !
 ! R29   R(24,25)                1.0905         calculate D2E/DX2 analytically  !
 ! R30   R(24,26)                1.0926         calculate D2E/DX2 analytically  !
 ! R31   R(24,27)                1.0933         calculate D2E/DX2 analytically  !
 ! R32   R(28,29)                1.0929         calculate D2E/DX2 analytically  !
 ! R33   R(28,30)                1.0921         calculate D2E/DX2 analytically  !
 ! R34   R(28,31)                1.0897         calculate D2E/DX2 analytically  !
 ! A1    A(2,1,4)              102.0869         calculate D2E/DX2 analytically  !
 ! A2    A(2,1,5)              122.6196         calculate D2E/DX2 analytically  !
 ! A3    A(2,1,17)             108.7009         calculate D2E/DX2 analytically  !
 ! A4    A(4,1,5)              122.4359         calculate D2E/DX2 analytically  !
 ! A5    A(4,1,10)              81.6375         calculate D2E/DX2 analytically  !
 ! A6    A(4,1,17)             101.9441         calculate D2E/DX2 analytically  !
 ! A7    A(5,1,10)              99.6836         calculate D2E/DX2 analytically  !
 ! A8    A(5,1,17)              96.3127         calculate D2E/DX2 analytically  !
 ! A9    A(10,1,17)            158.3275         calculate D2E/DX2 analytically  !
 ! A10   A(1,2,7)              104.951          calculate D2E/DX2 analytically  !
 ! A11   A(1,2,14)             115.7289         calculate D2E/DX2 analytically  !
 ! A12   A(7,2,10)             108.4015         calculate D2E/DX2 analytically  !
 ! A13   A(7,2,14)             122.6419         calculate D2E/DX2 analytically  !
 ! A14   A(10,2,14)            120.3943         calculate D2E/DX2 analytically  !
 ! A15   A(4,3,7)              109.4332         calculate D2E/DX2 analytically  !
 ! A16   A(4,3,15)             118.6076         calculate D2E/DX2 analytically  !
 ! A17   A(7,3,12)             109.1032         calculate D2E/DX2 analytically  !
 ! A18   A(7,3,15)             122.6977         calculate D2E/DX2 analytically  !
 ! A19   A(12,3,15)            119.9902         calculate D2E/DX2 analytically  !
 ! A20   A(1,4,3)              106.1026         calculate D2E/DX2 analytically  !
 ! A21   A(1,4,6)              124.5439         calculate D2E/DX2 analytically  !
 ! A22   A(1,4,12)              97.5883         calculate D2E/DX2 analytically  !
 ! A23   A(3,4,6)              125.2436         calculate D2E/DX2 analytically  !
 ! A24   A(6,4,12)             124.5757         calculate D2E/DX2 analytically  !
 ! A25   A(2,7,3)               98.3584         calculate D2E/DX2 analytically  !
 ! A26   A(2,7,8)              110.7969         calculate D2E/DX2 analytically  !
 ! A27   A(2,7,9)              112.5814         calculate D2E/DX2 analytically  !
 ! A28   A(3,7,8)              112.6942         calculate D2E/DX2 analytically  !
 ! A29   A(3,7,9)              112.0475         calculate D2E/DX2 analytically  !
 ! A30   A(8,7,9)              109.966          calculate D2E/DX2 analytically  !
 ! A31   A(1,10,11)            113.6833         calculate D2E/DX2 analytically  !
 ! A32   A(1,10,12)             88.1115         calculate D2E/DX2 analytically  !
 ! A33   A(2,10,11)            125.5469         calculate D2E/DX2 analytically  !
 ! A34   A(2,10,12)            107.7577         calculate D2E/DX2 analytically  !
 ! A35   A(11,10,12)           126.1559         calculate D2E/DX2 analytically  !
 ! A36   A(3,12,10)            104.2955         calculate D2E/DX2 analytically  !
 ! A37   A(3,12,13)            127.1293         calculate D2E/DX2 analytically  !
 ! A38   A(4,12,10)             92.654          calculate D2E/DX2 analytically  !
 ! A39   A(4,12,13)            125.2719         calculate D2E/DX2 analytically  !
 ! A40   A(10,12,13)           125.9531         calculate D2E/DX2 analytically  !
 ! A41   A(17,16,18)           113.4523         calculate D2E/DX2 analytically  !
 ! A42   A(1,17,16)            108.3757         calculate D2E/DX2 analytically  !
 ! A43   A(1,17,19)            101.0432         calculate D2E/DX2 analytically  !
 ! A44   A(16,17,19)           113.0802         calculate D2E/DX2 analytically  !
 ! A45   A(16,18,21)           121.5982         calculate D2E/DX2 analytically  !
 ! A46   A(16,18,23)           115.821          calculate D2E/DX2 analytically  !
 ! A47   A(21,18,23)           122.5579         calculate D2E/DX2 analytically  !
 ! A48   A(17,19,20)           126.8349         calculate D2E/DX2 analytically  !
 ! A49   A(17,19,22)           108.7234         calculate D2E/DX2 analytically  !
 ! A50   A(20,19,22)           124.2324         calculate D2E/DX2 analytically  !
 ! A51   A(19,22,28)           114.9632         calculate D2E/DX2 analytically  !
 ! A52   A(18,23,24)           114.7935         calculate D2E/DX2 analytically  !
 ! A53   A(23,24,25)           105.7469         calculate D2E/DX2 analytically  !
 ! A54   A(23,24,26)           110.786          calculate D2E/DX2 analytically  !
 ! A55   A(23,24,27)           111.0254         calculate D2E/DX2 analytically  !
 ! A56   A(25,24,26)           110.0546         calculate D2E/DX2 analytically  !
 ! A57   A(25,24,27)           110.1405         calculate D2E/DX2 analytically  !
 ! A58   A(26,24,27)           109.0554         calculate D2E/DX2 analytically  !
 ! A59   A(22,28,29)           110.9433         calculate D2E/DX2 analytically  !
 ! A60   A(22,28,30)           110.469          calculate D2E/DX2 analytically  !
 ! A61   A(22,28,31)           105.6703         calculate D2E/DX2 analytically  !
 ! A62   A(29,28,30)           109.2724         calculate D2E/DX2 analytically  !
 ! A63   A(29,28,31)           110.2652         calculate D2E/DX2 analytically  !
 ! A64   A(30,28,31)           110.1803         calculate D2E/DX2 analytically  !
 ! D1    D(4,1,2,7)             37.1416         calculate D2E/DX2 analytically  !
 ! D2    D(4,1,2,14)           175.5943         calculate D2E/DX2 analytically  !
 ! D3    D(5,1,2,7)            179.1676         calculate D2E/DX2 analytically  !
 ! D4    D(5,1,2,14)           -42.3797         calculate D2E/DX2 analytically  !
 ! D5    D(17,1,2,7)           -70.0718         calculate D2E/DX2 analytically  !
 ! D6    D(17,1,2,14)           68.3808         calculate D2E/DX2 analytically  !
 ! D7    D(2,1,4,3)            -14.7549         calculate D2E/DX2 analytically  !
 ! D8    D(2,1,4,6)           -172.8664         calculate D2E/DX2 analytically  !
 ! D9    D(2,1,4,12)            45.2496         calculate D2E/DX2 analytically  !
 ! D10   D(5,1,4,3)           -156.8721         calculate D2E/DX2 analytically  !
 ! D11   D(5,1,4,6)             45.0164         calculate D2E/DX2 analytically  !
 ! D12   D(5,1,4,12)           -96.8676         calculate D2E/DX2 analytically  !
 ! D13   D(10,1,4,3)           -60.6707         calculate D2E/DX2 analytically  !
 ! D14   D(10,1,4,6)           141.2177         calculate D2E/DX2 analytically  !
 ! D15   D(10,1,4,12)           -0.6662         calculate D2E/DX2 analytically  !
 ! D16   D(17,1,4,3)            97.6068         calculate D2E/DX2 analytically  !
 ! D17   D(17,1,4,6)           -60.5048         calculate D2E/DX2 analytically  !
 ! D18   D(17,1,4,12)          157.6112         calculate D2E/DX2 analytically  !
 ! D19   D(4,1,10,11)         -128.3762         calculate D2E/DX2 analytically  !
 ! D20   D(4,1,10,12)            0.6836         calculate D2E/DX2 analytically  !
 ! D21   D(5,1,10,11)           -6.7165         calculate D2E/DX2 analytically  !
 ! D22   D(5,1,10,12)          122.3433         calculate D2E/DX2 analytically  !
 ! D23   D(17,1,10,11)         130.2903         calculate D2E/DX2 analytically  !
 ! D24   D(17,1,10,12)        -100.6499         calculate D2E/DX2 analytically  !
 ! D25   D(2,1,17,16)           83.4826         calculate D2E/DX2 analytically  !
 ! D26   D(2,1,17,19)          -35.5761         calculate D2E/DX2 analytically  !
 ! D27   D(4,1,17,16)          -23.8287         calculate D2E/DX2 analytically  !
 ! D28   D(4,1,17,19)         -142.8874         calculate D2E/DX2 analytically  !
 ! D29   D(5,1,17,16)         -148.9263         calculate D2E/DX2 analytically  !
 ! D30   D(5,1,17,19)           92.015          calculate D2E/DX2 analytically  !
 ! D31   D(10,1,17,16)          73.6285         calculate D2E/DX2 analytically  !
 ! D32   D(10,1,17,19)         -45.4302         calculate D2E/DX2 analytically  !
 ! D33   D(1,2,7,3)            -43.2165         calculate D2E/DX2 analytically  !
 ! D34   D(1,2,7,8)           -161.4415         calculate D2E/DX2 analytically  !
 ! D35   D(1,2,7,9)             74.9483         calculate D2E/DX2 analytically  !
 ! D36   D(10,2,7,3)            34.1673         calculate D2E/DX2 analytically  !
 ! D37   D(10,2,7,8)           -84.0577         calculate D2E/DX2 analytically  !
 ! D38   D(10,2,7,9)           152.3321         calculate D2E/DX2 analytically  !
 ! D39   D(14,2,7,3)          -178.018          calculate D2E/DX2 analytically  !
 ! D40   D(14,2,7,8)            63.757          calculate D2E/DX2 analytically  !
 ! D41   D(14,2,7,9)           -59.8532         calculate D2E/DX2 analytically  !
 ! D42   D(7,2,10,11)          162.5563         calculate D2E/DX2 analytically  !
 ! D43   D(7,2,10,12)          -25.4625         calculate D2E/DX2 analytically  !
 ! D44   D(14,2,10,11)          13.8883         calculate D2E/DX2 analytically  !
 ! D45   D(14,2,10,12)        -174.1305         calculate D2E/DX2 analytically  !
 ! D46   D(7,3,4,1)            -12.442          calculate D2E/DX2 analytically  !
 ! D47   D(7,3,4,6)            145.4725         calculate D2E/DX2 analytically  !
 ! D48   D(15,3,4,1)          -160.1049         calculate D2E/DX2 analytically  !
 ! D49   D(15,3,4,6)            -2.1904         calculate D2E/DX2 analytically  !
 ! D50   D(4,3,7,2)             34.4686         calculate D2E/DX2 analytically  !
 ! D51   D(4,3,7,8)            151.2397         calculate D2E/DX2 analytically  !
 ! D52   D(4,3,7,9)            -84.102          calculate D2E/DX2 analytically  !
 ! D53   D(12,3,7,2)           -31.1387         calculate D2E/DX2 analytically  !
 ! D54   D(12,3,7,8)            85.6324         calculate D2E/DX2 analytically  !
 ! D55   D(12,3,7,9)          -149.7094         calculate D2E/DX2 analytically  !
 ! D56   D(15,3,7,2)          -179.4509         calculate D2E/DX2 analytically  !
 ! D57   D(15,3,7,8)           -62.6798         calculate D2E/DX2 analytically  !
 ! D58   D(15,3,7,9)            61.9785         calculate D2E/DX2 analytically  !
 ! D59   D(7,3,12,10)           17.7626         calculate D2E/DX2 analytically  !
 ! D60   D(7,3,12,13)         -144.5751         calculate D2E/DX2 analytically  !
 ! D61   D(15,3,12,10)         167.0732         calculate D2E/DX2 analytically  !
 ! D62   D(15,3,12,13)           4.7354         calculate D2E/DX2 analytically  !
 ! D63   D(1,4,12,10)            0.8026         calculate D2E/DX2 analytically  !
 ! D64   D(1,4,12,13)          139.6274         calculate D2E/DX2 analytically  !
 ! D65   D(6,4,12,10)         -141.0642         calculate D2E/DX2 analytically  !
 ! D66   D(6,4,12,13)           -2.2394         calculate D2E/DX2 analytically  !
 ! D67   D(1,10,12,3)           58.3218         calculate D2E/DX2 analytically  !
 ! D68   D(1,10,12,4)           -0.6703         calculate D2E/DX2 analytically  !
 ! D69   D(1,10,12,13)        -139.0652         calculate D2E/DX2 analytically  !
 ! D70   D(2,10,12,3)            4.6755         calculate D2E/DX2 analytically  !
 ! D71   D(2,10,12,4)          -54.3167         calculate D2E/DX2 analytically  !
 ! D72   D(2,10,12,13)         167.2885         calculate D2E/DX2 analytically  !
 ! D73   D(11,10,12,3)         176.5945         calculate D2E/DX2 analytically  !
 ! D74   D(11,10,12,4)         117.6023         calculate D2E/DX2 analytically  !
 ! D75   D(11,10,12,13)        -20.7925         calculate D2E/DX2 analytically  !
 ! D76   D(18,16,17,1)          91.3819         calculate D2E/DX2 analytically  !
 ! D77   D(18,16,17,19)       -157.4593         calculate D2E/DX2 analytically  !
 ! D78   D(17,16,18,21)       -176.885          calculate D2E/DX2 analytically  !
 ! D79   D(17,16,18,23)          4.8136         calculate D2E/DX2 analytically  !
 ! D80   D(1,17,19,20)         122.3289         calculate D2E/DX2 analytically  !
 ! D81   D(1,17,19,22)         -62.7845         calculate D2E/DX2 analytically  !
 ! D82   D(16,17,19,20)          6.715          calculate D2E/DX2 analytically  !
 ! D83   D(16,17,19,22)       -178.3984         calculate D2E/DX2 analytically  !
 ! D84   D(16,18,23,24)        177.9078         calculate D2E/DX2 analytically  !
 ! D85   D(21,18,23,24)         -0.3757         calculate D2E/DX2 analytically  !
 ! D86   D(17,19,22,28)       -175.7252         calculate D2E/DX2 analytically  !
 ! D87   D(20,19,22,28)         -0.6749         calculate D2E/DX2 analytically  !
 ! D88   D(19,22,28,29)        -59.7301         calculate D2E/DX2 analytically  !
 ! D89   D(19,22,28,30)         61.608          calculate D2E/DX2 analytically  !
 ! D90   D(19,22,28,31)       -179.2384         calculate D2E/DX2 analytically  !
 ! D91   D(18,23,24,25)        179.9359         calculate D2E/DX2 analytically  !
 ! D92   D(18,23,24,26)        -60.8468         calculate D2E/DX2 analytically  !
 ! D93   D(18,23,24,27)         60.4869         calculate D2E/DX2 analytically  !
 --------------------------------------------------------------------------------
 Trust Radius=3.00D-01 FncErr=1.00D-07 GrdErr=1.00D-06
 Number of steps in this run=    186 maximum allowed number of steps=    186.
 Search for a saddle point of order  1.
 GradGradGradGradGradGradGradGradGradGradGradGradGradGradGradGradGradGrad

                          Input orientation:                          
 ---------------------------------------------------------------------
 Center     Atomic      Atomic             Coordinates (Angstroms)
 Number     Number       Type             X           Y           Z
 ---------------------------------------------------------------------
      1          6           0        0.456530    0.845630   -0.837060
      2          6           0        1.572790    1.545220    0.012350
      3          6           0       -0.414710    2.377330    0.818470
      4          6           0       -0.788480    1.616400   -0.423670
      5          1           0        0.620540    0.509960   -1.851670
      6          1           0       -1.795250    1.355980   -0.715850
      7          6           0        0.910800    1.861630    1.346680
      8          1           0        1.475260    2.625980    1.888720
      9          1           0        0.785860    0.976630    1.972760
     10          6           0        1.130580    2.517680   -0.957410
     11          1           0        1.611280    2.725360   -1.904150
     12          6           0       -0.191840    3.029730   -0.514980
     13          1           0       -0.700250    3.896950   -0.909470
     14          1           0        2.562730    1.108790   -0.060490
     15          1           0       -1.205270    2.729830    1.467630
     16          7           0       -0.720630   -0.769100    0.897890
     17          7           0        0.111690   -0.903440   -0.087550
     18          6           0       -2.059120   -0.894950    0.516470
     19          6           0        1.421270   -1.283260    0.334000
     20          8           0        1.761070   -1.584250    1.447050
     21          8           0       -2.963340   -0.740140    1.310000
     22          8           0        2.214210   -1.362550   -0.743920
     23          8           0       -2.273900   -1.232350   -0.773070
     24          6           0       -3.648370   -1.400940   -1.127640
     25          1           0       -3.650740   -1.666440   -2.185300
     26          1           0       -4.105220   -2.200450   -0.539640
     27          1           0       -4.210290   -0.476400   -0.970340
     28          6           0        3.543870   -1.829750   -0.483630
     29          1           0        4.058150   -1.171720    0.221320
     30          1           0        3.519960   -2.843720   -0.078560
     31          1           0        4.052540   -1.821810   -1.447270
 ---------------------------------------------------------------------
                    Distance matrix (angstroms):
                    1          2          3          4          5
     1  C    0.000000
     2  C    1.567469   0.000000
     3  C    2.417839   2.300520   0.000000
     4  C    1.521521   2.402244   1.503872   0.000000
     5  H    1.081206   2.335190   3.418839   2.291011   0.000000
     6  H    2.312069   3.451055   2.302864   1.080173   2.800335
     7  C    2.450987   1.522755   1.517211   2.466137   3.484352
     8  H    3.411354   2.167561   2.186149   3.389826   4.381621
     9  H    2.832085   2.187638   2.176170   2.937810   3.856342
    10  C    1.806815   1.442797   2.358256   2.186315   2.256276
    11  H    2.450615   2.251041   3.411513   3.029928   2.427410
    12  C    2.300959   2.365537   1.501128   1.536821   2.965795
    13  H    3.264037   3.398102   2.318740   2.333387   3.755520
    14  H    2.260175   1.084324   3.353642   3.408838   2.709064
    15  H    3.409309   3.352426   1.081966   2.233933   4.390804
    16  N    2.646339   3.376394   3.162264   2.727954   3.315843
    17  N    1.933889   2.853196   3.444041   2.696827   2.317056
    18  C    3.345169   4.404468   3.674657   2.967367   3.842192
    19  C    2.614245   2.850740   4.123767   3.723585   2.938360
    20  O    3.580964   3.447810   4.563250   4.499329   4.070390
    21  O    4.338207   5.242446   4.056567   3.645396   4.939950
    22  O    2.823858   3.072213   4.831044   4.241798   2.696885
    23  O    3.431813   4.809241   4.361121   3.231707   3.546379
    24  C    4.688466   6.102454   5.340339   4.216502   4.732795
    25  H    4.999791   6.513808   5.987203   4.698182   4.805399
    26  H    5.493326   6.824554   6.034931   5.057920   5.603620
    27  H    4.852292   6.204566   5.074450   4.048141   5.008649
    28  C    4.100517   3.939743   5.921600   5.536136   3.986431
    29  H    4.261635   3.688149   5.740977   5.628450   4.352298
    30  H    4.855021   4.802346   6.598913   6.210831   4.774696
    31  H    4.518726   4.429057   6.536259   6.025323   4.168851
                    6          7          8          9         10
     6  H    0.000000
     7  C    3.439828   0.000000
     8  H    4.369545   1.093917   0.000000
     9  H    3.746286   1.091243   1.789606   0.000000
    10  C    3.157274   2.405730   2.868970   3.328598   0.000000
    11  H    3.858977   3.435782   3.796609   4.332413   1.081906
    12  C    2.326523   2.458872   2.952966   3.370455   1.485508
    13  H    2.773633   3.439218   3.765379   4.363948   2.292733
    14  H    4.413909   2.296904   2.698866   2.703486   2.200111
    15  H    2.646342   2.290448   2.715390   2.700642   3.373725
    16  N    2.876618   3.127893   4.162961   2.544097   4.203812
    17  N    3.022608   3.215774   4.268697   2.869503   3.674079
    18  C    2.579714   4.136231   5.174153   3.703715   4.898219
    19  C    4.291127   3.343117   4.207401   2.862933   4.024846
    20  O    5.096126   3.550651   4.242970   2.790253   4.796329
    21  O    3.140417   4.666853   5.600612   4.176488   5.702168
    22  O    4.844271   4.057687   4.835826   3.859054   4.034355
    23  O    2.632837   4.920200   6.002336   4.667045   5.068253
    24  C    3.347272   6.128022   7.180954   5.909967   6.182469
    25  H    3.838899   6.762382   7.829328   6.630136   6.471136
    26  H    4.244432   6.724519   7.767439   6.350485   7.060374
    27  H    3.042170   6.087736   7.079863   5.977846   6.122873
    28  C    6.221656   4.889722   5.455339   4.638560   4.994856
    29  H    6.444365   4.513697   4.886110   4.288453   4.855074
    30  H    6.804048   5.565909   6.161867   5.126236   5.935160
    31  H    6.695519   5.589671   6.128135   5.495368   5.254425
                   11         12         13         14         15
    11  H    0.000000
    12  C    2.296449   0.000000
    13  H    2.775821   1.079895   0.000000
    14  H    2.630140   3.388839   4.375116   0.000000
    15  H    4.393390   2.246714   2.695889   4.377299   0.000000
    16  N    5.049800   4.087411   5.003897   3.901976   3.577987
    17  N    4.326314   3.967953   4.937463   3.171340   4.165768
    18  C    5.695426   4.466961   5.180940   5.070439   3.843539
    19  C    4.595047   4.682390   5.734252   2.679637   4.928359
    20  O    5.461293   5.380728   6.454056   3.188699   5.235540
    21  O    6.577811   5.022319   5.616959   5.986170   3.893116
    22  O    4.291930   5.013344   6.015299   2.587675   5.773333
    23  O    5.660162   4.750464   5.367001   5.420489   4.675637
    24  C    6.730025   5.652768   6.066848   6.783459   5.455953
    25  H    6.859724   6.066957   6.425297   7.129090   6.217026
    26  H    7.668368   6.532223   6.993489   7.459371   6.061889
    27  H    6.709243   5.352405   5.608055   7.015301   5.025311
    28  C    5.147991   6.129523   7.140657   3.126772   6.866696
    29  H    5.068730   6.021357   7.043612   2.741610   6.669256
    30  H    6.163643   6.961705   7.996075   4.066811   7.468799
    31  H    5.181240   6.513169   7.455364   3.568068   7.540466
                   16         17         18         19         20
    16  N    0.000000
    17  N    1.296879   0.000000
    18  C    1.397453   2.253293   0.000000
    19  C    2.273778   1.427224   3.506736   0.000000
    20  O    2.669247   2.353498   3.991862   1.202056   0.000000
    21  O    2.280443   3.381660   1.212959   4.524639   4.801183
    22  O    3.414822   2.249932   4.479797   1.340504   2.248296
    23  O    2.327951   2.503829   1.350142   3.857781   4.618847
    24  C    3.615751   3.932855   2.341973   5.277451   5.993719
    25  H    4.347048   4.374769   3.229243   5.676177   6.518313
    26  H    3.945973   4.434969   2.646927   5.669795   6.224146
    27  H    3.969091   4.431838   2.648267   5.836677   6.536685
    28  C    4.606467   3.576980   5.767803   2.339359   2.639351
    29  H    4.843200   3.967609   6.130637   2.641642   2.636128
    30  H    4.820799   3.921871   5.939520   2.647592   2.647158
    31  H    5.421358   4.268787   6.485964   3.222816   3.699237
                   21         22         23         24         25
    21  O    0.000000
    22  O    5.604731   0.000000
    23  O    2.248728   4.490093   0.000000
    24  C    2.616871   5.875250   1.429444   0.000000
    25  H    3.680716   6.047112   2.019534   1.090477   0.000000
    26  H    2.618695   6.378009   2.084572   1.092553   1.788831
    27  H    2.612354   6.489278   2.088057   1.093285   1.790368
    28  C    6.837261   1.433186   5.855520   7.233736   7.394915
    29  H    7.118483   2.090028   6.409941   7.827048   8.090955
    30  H    6.956028   2.083639   6.053732   7.386957   7.565929
    31  H    7.615453   2.021158   6.389511   7.719023   7.740113
                   26         27         28         29         30
    26  H    0.000000
    27  H    1.780138   0.000000
    28  C    7.658272   7.886409   0.000000
    29  H    8.263048   8.382758   1.092905   0.000000
    30  H    7.666144   8.133649   1.092149   1.781898   0.000000
    31  H    8.216825   8.385222   1.089684   1.790765   1.789220
                   31
    31  H    0.000000
 Stoichiometry    C11H14N2O4
 Framework group  C1[X(C11H14N2O4)]
 Deg. of freedom    87
 Full point group                 C1      NOp   1
 Largest Abelian subgroup         C1      NOp   1
 Largest concise Abelian subgroup C1      NOp   1
                         Standard orientation:                         
 ---------------------------------------------------------------------
 Center     Atomic      Atomic             Coordinates (Angstroms)
 Number     Number       Type             X           Y           Z
 ---------------------------------------------------------------------
      1          6           0        0.512207    0.774672   -0.853856
      2          6           0        1.694024    1.365341   -0.010423
      3          6           0       -0.205361    2.354690    0.829767
      4          6           0       -0.657219    1.644142   -0.416257
      5          1           0        0.635220    0.438841   -1.874195
      6          1           0       -1.685896    1.474662   -0.698876
      7          6           0        1.076890    1.720699    1.335552
      8          1           0        1.711044    2.427025    1.879248
      9          1           0        0.883541    0.841940    1.952974
     10          6           0        1.325953    2.384140   -0.963437
     11          1           0        1.811902    2.561618   -1.913634
     12          6           0        0.057519    3.002139   -0.498800
     13          1           0       -0.378992    3.914603   -0.877007
     14          1           0        2.641931    0.846582   -0.100531
     15          1           0       -0.955283    2.765561    1.492678
     16          7           0       -0.779451   -0.754668    0.876996
     17          7           0        0.026982   -0.947591   -0.120171
     18          6           0       -2.128060   -0.760530    0.510806
     19          6           0        1.303817   -1.443518    0.280720
     20          8           0        1.629163   -1.786376    1.385952
     21          8           0       -3.006550   -0.538659    1.317217
     22          8           0        2.074693   -1.577069   -0.807795
     23          8           0       -2.385692   -1.062182   -0.779742
     24          6           0       -3.773510   -1.107873   -1.119128
     25          1           0       -3.810716   -1.358996   -2.179644
     26          1           0       -4.290612   -1.872531   -0.534683
     27          1           0       -4.252124   -0.140590   -0.944304
     28          6           0        3.362193   -2.159761   -0.569390
     29          1           0        3.939080   -1.557082    0.136600
     30          1           0        3.255902   -3.172914   -0.175674
     31          1           0        3.858661   -2.183460   -1.539116
 ---------------------------------------------------------------------
 Rotational constants (GHZ):      0.6068110      0.4513127      0.3227712
 General basis read from cards:  (5D, 7F)
 There are   764 symmetry adapted cartesian basis functions of A   symmetry.
 There are   679 symmetry adapted basis functions of A   symmetry.
   679 basis functions,  1047 primitive gaussians,   764 cartesian basis functions
    63 alpha electrons       63 beta electrons
       nuclear repulsion energy      1312.6311731562 Hartrees.
 NAtoms=   31 NActive=   31 NUniq=   31 SFac= 1.00D+00 NAtFMM=   60 NAOKFM=F Big=F
 Integral buffers will be    131072 words long.
 Raffenetti 2 integral format.
 Two-electron integral symmetry is turned on.
 Nuclear repulsion after empirical dispersion term =     1312.6072600004 Hartrees.
 Force inversion solution in PCM.
 ------------------------------------------------------------------------------
 Polarizable Continuum Model (PCM)
 =================================
 Model                : PCM (using non-symmetric T matrix).
 Atomic radii         : SMD-Coulomb.
 Polarization charges : Total charges.
 Charge compensation  : None.
 Solution method      : Matrix inversion.
 Cavity type          : VdW (van der Waals Surface) (Alpha=1.000).
 Cavity algorithm     : GePol (No added spheres)
                        Default sphere list used, NSphG=   31.
                        Lebedev-Laikov grids with approx.  5.0 points / Ang**2.
                        Smoothing algorithm: Karplus/York (Gamma=1.0000).
                        Polarization charges: spherical gaussians, with
                                              point-specific exponents (IZeta= 3).
                        Self-potential: point-specific (ISelfS= 7).
                        Self-field    : sphere-specific E.n sum rule (ISelfD= 2).
 1st derivatives      : Analytical E(r).r(x)/FMM algorithm (CHGder, D1EAlg=3).
                        Cavity 1st derivative terms included.
 2nd derivatives      : Analytical E(r).r(xy)/FMM algorithm (CHGder, D2EAlg=3).
                        Cavity 2nd derivative terms included.
 Solvent              : Toluene, Eps=   2.374100 Eps(inf)=   2.238315
 ------------------------------------------------------------------------------
 ------------------------------------------------------------------------------
 Atomic radii for non-electrostatic terms: SMD-CDS.
 ------------------------------------------------------------------------------
 Nuclear repulsion after PCM non-electrostatic terms =     1312.5991041410 Hartrees.
 One-electron integrals computed using PRISM.
 NBasis=   679 RedAO= T EigKep=  1.36D-06  NBF=   679
 NBsUse=   676 1.00D-06 EigRej=  6.72D-07 NBFU=   676
 ExpMin= 3.17D-02 ExpMax= 2.70D+04 ExpMxC= 9.22D+02 IAcc=3 IRadAn=         5 AccDes= 0.00D+00
 Harris functional with IExCor= 4639 and IRadAn=       5 diagonalized for initial guess.
 HarFok:  IExCor= 4639 AccDes= 0.00D+00 IRadAn=         5 IDoV= 1 UseB2=F ITyADJ=14
 ICtDFT=  3500011 ScaDFX=  1.000000  1.000000  1.000000  1.000000
 FoFCou: FMM=F IPFlag=           0 FMFlag=      100000 FMFlg1=           0
         NFxFlg=           0 DoJE=T BraDBF=F KetDBF=T FulRan=T
         wScrn=  0.000000 ICntrl=     500 IOpCl=  0 I1Cent=   200000004 NGrid=           0
         NMat0=    1 NMatS0=      1 NMatT0=    0 NMatD0=    1 NMtDS0=    0 NMtDT0=    0
 Petite list used in FoFCou.
 Requested convergence on RMS density matrix=1.00D-08 within 128 cycles.
 Requested convergence on MAX density matrix=1.00D-06.
 Requested convergence on             energy=1.00D-06.
 No special actions if energy rises.
 Inv3:  Mode=1 IEnd=    15214512.
 Iteration    1 A*A^-1 deviation from unit magnitude is 5.55D-15 for   2245.
 Iteration    1 A*A^-1 deviation from orthogonality  is 3.06D-15 for   2248   1343.
 Iteration    1 A^-1*A deviation from unit magnitude is 5.55D-15 for   2245.
 Iteration    1 A^-1*A deviation from orthogonality  is 2.02D-14 for   1916   1278.
 Error on total polarization charges =  0.01955
 SCF Done:  E(RwB97XD) =  -837.864589532     A.U. after   18 cycles
            NFock= 18  Conv=0.70D-08     -V/T= 2.0048
 SMD-CDS (non-electrostatic) energy       (kcal/mol) =      -5.12
 (included in total energy above)
 DoSCS=F DFT=T ScalE2(SS,OS)=  1.000000  1.000000
 Range of M.O.s used for correlation:     1   676
 NBasis=   679 NAE=    63 NBE=    63 NFC=     0 NFV=     0
 NROrb=    676 NOA=    63 NOB=    63 NVA=   613 NVB=   613

 **** Warning!!: The largest alpha MO coefficient is  0.13750253D+03

 Symmetrizing basis deriv contribution to polar:
 IMax=3 JMax=2 DiffMx= 0.00D+00
 G2DrvN: will do    32 centers at a time, making    1 passes.
 Calling FoFCou, ICntrl=  3107 FMM=F I1Cent=   0 AccDes= 0.00D+00.
 NEqPCM:  Using equilibrium solvation (IEInf=0, Eps=   2.3741, EpsInf=   2.2383)
 G2PCM: DoFxE=T DoFxN=T DoGrad=T DoDP/DQ/DG/TGxP=FFFF NFrqRd=   0 IEInf=0 SqF1=F DoCFld=F IF1Alg=4.
 End of G2Drv F.D. properties file   721 does not exist.
 End of G2Drv F.D. properties file   722 does not exist.
 End of G2Drv F.D. properties file   788 does not exist.
          IDoAtm=1111111111111111111111111111111
 NEqPCM:  Using equilibrium solvation (IEInf=0, Eps=   2.3741, EpsInf=   2.2383)
          Differentiating once with respect to nuclear coordinates.
          There are    96 degrees of freedom in the 1st order CPHF.  IDoFFX=6 NUNeed=     0.
     90 vectors produced by pass  0 Test12= 4.02D-14 1.04D-09 XBig12= 1.39D-01 1.39D-01.
 AX will form    90 AO Fock derivatives at one time.
     90 vectors produced by pass  1 Test12= 4.02D-14 1.04D-09 XBig12= 1.18D-02 1.88D-02.
     90 vectors produced by pass  2 Test12= 4.02D-14 1.04D-09 XBig12= 4.81D-04 4.27D-03.
     90 vectors produced by pass  3 Test12= 4.02D-14 1.04D-09 XBig12= 6.32D-06 4.27D-04.
     90 vectors produced by pass  4 Test12= 4.02D-14 1.04D-09 XBig12= 6.39D-08 2.85D-05.
     90 vectors produced by pass  5 Test12= 4.02D-14 1.04D-09 XBig12= 6.03D-10 2.56D-06.
     90 vectors produced by pass  6 Test12= 4.02D-14 1.04D-09 XBig12= 5.23D-12 2.09D-07.
     73 vectors produced by pass  7 Test12= 4.02D-14 1.04D-09 XBig12= 6.40D-13 6.12D-08.
     60 vectors produced by pass  8 Test12= 4.02D-14 1.04D-09 XBig12= 4.10D-14 1.16D-08.
     32 vectors produced by pass  9 Test12= 4.02D-14 1.04D-09 XBig12= 3.13D-15 3.35D-09.
     32 vectors produced by pass 10 Test12= 4.02D-14 1.04D-09 XBig12= 1.13D-14 8.66D-09.
     31 vectors produced by pass 11 Test12= 4.02D-14 1.04D-09 XBig12= 2.23D-14 1.12D-08.
     23 vectors produced by pass 12 Test12= 4.02D-14 1.04D-09 XBig12= 9.13D-15 5.91D-09.
     20 vectors produced by pass 13 Test12= 4.02D-14 1.04D-09 XBig12= 8.32D-15 6.40D-09.
     15 vectors produced by pass 14 Test12= 4.02D-14 1.04D-09 XBig12= 7.20D-15 6.00D-09.
     13 vectors produced by pass 15 Test12= 4.02D-14 1.04D-09 XBig12= 7.56D-15 4.83D-09.
     13 vectors produced by pass 16 Test12= 4.02D-14 1.04D-09 XBig12= 9.88D-15 8.94D-09.
      9 vectors produced by pass 17 Test12= 4.02D-14 1.04D-09 XBig12= 3.07D-15 4.51D-09.
      9 vectors produced by pass 18 Test12= 4.02D-14 1.04D-09 XBig12= 4.19D-15 4.21D-09.
      9 vectors produced by pass 19 Test12= 4.02D-14 1.04D-09 XBig12= 9.53D-15 5.69D-09.
      9 vectors produced by pass 20 Test12= 4.02D-14 1.04D-09 XBig12= 6.66D-15 5.64D-09.
      9 vectors produced by pass 21 Test12= 4.02D-14 1.04D-09 XBig12= 1.17D-14 9.48D-09.
      8 vectors produced by pass 22 Test12= 4.02D-14 1.04D-09 XBig12= 2.81D-15 3.36D-09.
      8 vectors produced by pass 23 Test12= 4.02D-14 1.04D-09 XBig12= 4.61D-15 4.59D-09.
      8 vectors produced by pass 24 Test12= 4.02D-14 1.04D-09 XBig12= 9.95D-15 6.57D-09.
      8 vectors produced by pass 25 Test12= 4.02D-14 1.04D-09 XBig12= 5.85D-15 4.27D-09.
      7 vectors produced by pass 26 Test12= 4.02D-14 1.04D-09 XBig12= 5.84D-15 4.37D-09.
      7 vectors produced by pass 27 Test12= 4.02D-14 1.04D-09 XBig12= 5.06D-15 3.55D-09.
      7 vectors produced by pass 28 Test12= 4.02D-14 1.04D-09 XBig12= 3.49D-15 3.49D-09.
      7 vectors produced by pass 29 Test12= 4.02D-14 1.04D-09 XBig12= 6.55D-15 4.45D-09.
      7 vectors produced by pass 30 Test12= 4.02D-14 1.04D-09 XBig12= 4.54D-15 4.12D-09.
      7 vectors produced by pass 31 Test12= 4.02D-14 1.04D-09 XBig12= 5.96D-15 4.46D-09.
      7 vectors produced by pass 32 Test12= 4.02D-14 1.04D-09 XBig12= 3.12D-15 3.37D-09.
      7 vectors produced by pass 33 Test12= 4.02D-14 1.04D-09 XBig12= 6.41D-15 4.95D-09.
      6 vectors produced by pass 34 Test12= 4.02D-14 1.04D-09 XBig12= 3.24D-15 3.17D-09.
      6 vectors produced by pass 35 Test12= 4.02D-14 1.04D-09 XBig12= 3.04D-15 3.14D-09.
      6 vectors produced by pass 36 Test12= 4.02D-14 1.04D-09 XBig12= 5.14D-15 4.65D-09.
      6 vectors produced by pass 37 Test12= 4.02D-14 1.04D-09 XBig12= 7.72D-15 5.15D-09.
      6 vectors produced by pass 38 Test12= 4.02D-14 1.04D-09 XBig12= 2.38D-15 2.48D-09.
      6 vectors produced by pass 39 Test12= 4.02D-14 1.04D-09 XBig12= 2.57D-15 3.16D-09.
      6 vectors produced by pass 40 Test12= 4.02D-14 1.04D-09 XBig12= 6.76D-15 5.83D-09.
      4 vectors produced by pass 41 Test12= 4.02D-14 1.04D-09 XBig12= 1.11D-15 2.03D-09.
      4 vectors produced by pass 42 Test12= 4.02D-14 1.04D-09 XBig12= 1.64D-15 3.14D-09.
      4 vectors produced by pass 43 Test12= 4.02D-14 1.04D-09 XBig12= 3.97D-15 3.79D-09.
      4 vectors produced by pass 44 Test12= 4.02D-14 1.04D-09 XBig12= 2.16D-15 2.71D-09.
      4 vectors produced by pass 45 Test12= 4.02D-14 1.04D-09 XBig12= 2.11D-15 2.60D-09.
      4 vectors produced by pass 46 Test12= 4.02D-14 1.04D-09 XBig12= 3.09D-15 2.74D-09.
      4 vectors produced by pass 47 Test12= 4.02D-14 1.04D-09 XBig12= 3.04D-15 3.90D-09.
      4 vectors produced by pass 48 Test12= 4.02D-14 1.04D-09 XBig12= 4.99D-15 4.30D-09.
      4 vectors produced by pass 49 Test12= 4.02D-14 1.04D-09 XBig12= 2.21D-15 3.20D-09.
      3 vectors produced by pass 50 Test12= 4.02D-14 1.04D-09 XBig12= 1.93D-15 2.58D-09.
      2 vectors produced by pass 51 Test12= 4.02D-14 1.04D-09 XBig12= 5.84D-16 1.50D-09.
 InvSVY:  IOpt=1 It=  1 EMax= 7.77D-16
 Solved reduced A of dimension  1158 with    96 vectors.
 End of Minotr F.D. properties file   721 does not exist.
 End of Minotr F.D. properties file   722 does not exist.
 End of Minotr F.D. properties file   788 does not exist.

 **********************************************************************

            Population analysis using the SCF density.

 **********************************************************************

 Orbital symmetries:
       Occupied  (A) (A) (A) (A) (A) (A) (A) (A) (A) (A) (A) (A)
                 (A) (A) (A) (A) (A) (A) (A) (A) (A) (A) (A) (A)
                 (A) (A) (A) (A) (A) (A) (A) (A) (A) (A) (A) (A)
                 (A) (A) (A) (A) (A) (A) (A) (A) (A) (A) (A) (A)
                 (A) (A) (A) (A) (A) (A) (A) (A) (A) (A) (A) (A)
                 (A) (A) (A)
       Virtual   (A) (A) (A) (A) (A) (A) (A) (A) (A) (A) (A) (A)
                 (A) (A) (A) (A) (A) (A) (A) (A) (A) (A) (A) (A)
                 (A) (A) (A) (A) (A) (A) (A) (A) (A) (A) (A) (A)
                 (A) (A) (A) (A) (A) (A) (A) (A) (A) (A) (A) (A)
                 (A) (A) (A) (A) (A) (A) (A) (A) (A) (A) (A) (A)
                 (A) (A) (A) (A) (A) (A) (A) (A) (A) (A) (A) (A)
                 (A) (A) (A) (A) (A) (A) (A) (A) (A) (A) (A) (A)
                 (A) (A) (A) (A) (A) (A) (A) (A) (A) (A) (A) (A)
                 (A) (A) (A) (A) (A) (A) (A) (A) (A) (A) (A) (A)
                 (A) (A) (A) (A) (A) (A) (A) (A) (A) (A) (A) (A)
                 (A) (A) (A) (A) (A) (A) (A) (A) (A) (A) (A) (A)
                 (A) (A) (A) (A) (A) (A) (A) (A) (A) (A) (A) (A)
                 (A) (A) (A) (A) (A) (A) (A) (A) (A) (A) (A) (A)
                 (A) (A) (A) (A) (A) (A) (A) (A) (A) (A) (A) (A)
                 (A) (A) (A) (A) (A) (A) (A) (A) (A) (A) (A) (A)
                 (A) (A) (A) (A) (A) (A) (A) (A) (A) (A) (A) (A)
                 (A) (A) (A) (A) (A) (A) (A) (A) (A) (A) (A) (A)
                 (A) (A) (A) (A) (A) (A) (A) (A) (A) (A) (A) (A)
                 (A) (A) (A) (A) (A) (A) (A) (A) (A) (A) (A) (A)
                 (A) (A) (A) (A) (A) (A) (A) (A) (A) (A) (A) (A)
                 (A) (A) (A) (A) (A) (A) (A) (A) (A) (A) (A) (A)
                 (A) (A) (A) (A) (A) (A) (A) (A) (A) (A) (A) (A)
                 (A) (A) (A) (A) (A) (A) (A) (A) (A) (A) (A) (A)
                 (A) (A) (A) (A) (A) (A) (A) (A) (A) (A) (A) (A)
                 (A) (A) (A) (A) (A) (A) (A) (A) (A) (A) (A) (A)
                 (A) (A) (A) (A) (A) (A) (A) (A) (A) (A) (A) (A)
                 (A) (A) (A) (A) (A) (A) (A) (A) (A) (A) (A) (A)
                 (A) (A) (A) (A) (A) (A) (A) (A) (A) (A) (A) (A)
                 (A) (A) (A) (A) (A) (A) (A) (A) (A) (A) (A) (A)
                 (A) (A) (A) (A) (A) (A) (A) (A) (A) (A) (A) (A)
                 (A) (A) (A) (A) (A) (A) (A) (A) (A) (A) (A) (A)
                 (A) (A) (A) (A) (A) (A) (A) (A) (A) (A) (A) (A)
                 (A) (A) (A) (A) (A) (A) (A) (A) (A) (A) (A) (A)
                 (A) (A) (A) (A) (A) (A) (A) (A) (A) (A) (A) (A)
                 (A) (A) (A) (A) (A) (A) (A) (A) (A) (A) (A) (A)
                 (A) (A) (A) (A) (A) (A) (A) (A) (A) (A) (A) (A)
                 (A) (A) (A) (A) (A) (A) (A) (A) (A) (A) (A) (A)
                 (A) (A) (A) (A) (A) (A) (A) (A) (A) (A) (A) (A)
                 (A) (A) (A) (A) (A) (A) (A) (A) (A) (A) (A) (A)
                 (A) (A) (A) (A) (A) (A) (A) (A) (A) (A) (A) (A)
                 (A) (A) (A) (A) (A) (A) (A) (A) (A) (A) (A) (A)
                 (A) (A) (A) (A) (A) (A) (A) (A) (A) (A) (A) (A)
                 (A) (A) (A) (A) (A) (A) (A) (A) (A) (A) (A) (A)
                 (A) (A) (A) (A) (A) (A) (A) (A) (A) (A) (A) (A)
                 (A) (A) (A) (A) (A) (A) (A) (A) (A) (A) (A) (A)
                 (A) (A) (A) (A) (A) (A) (A) (A) (A) (A) (A) (A)
                 (A) (A) (A) (A) (A) (A) (A) (A) (A) (A) (A) (A)
                 (A) (A) (A) (A) (A) (A) (A) (A) (A) (A) (A) (A)
                 (A) (A) (A) (A) (A) (A) (A) (A) (A) (A) (A) (A)
                 (A) (A) (A) (A) (A) (A) (A) (A) (A) (A) (A) (A)
                 (A) (A) (A) (A) (A) (A) (A) (A) (A) (A) (A) (A)
                 (A)
 The electronic state is 1-A.
 Alpha  occ. eigenvalues --  -19.29941 -19.28036 -19.23528 -19.20993 -14.49152
 Alpha  occ. eigenvalues --  -14.43986 -10.43071 -10.40816 -10.35295 -10.34575
 Alpha  occ. eigenvalues --  -10.33652 -10.33524 -10.32346 -10.32258 -10.32091
 Alpha  occ. eigenvalues --  -10.31293 -10.29446  -1.22227  -1.19938  -1.12878
 Alpha  occ. eigenvalues --   -1.10055  -1.09470  -1.07572  -0.91129  -0.88545
 Alpha  occ. eigenvalues --   -0.85105  -0.81858  -0.79759  -0.78213  -0.69224
 Alpha  occ. eigenvalues --   -0.67661  -0.66781  -0.66202  -0.64919  -0.63706
 Alpha  occ. eigenvalues --   -0.62063  -0.58957  -0.58184  -0.56879  -0.56104
 Alpha  occ. eigenvalues --   -0.55306  -0.54627  -0.54058  -0.52500  -0.50468
 Alpha  occ. eigenvalues --   -0.50277  -0.50065  -0.48662  -0.47711  -0.47450
 Alpha  occ. eigenvalues --   -0.45720  -0.44964  -0.44264  -0.43373  -0.42841
 Alpha  occ. eigenvalues --   -0.39550  -0.39390  -0.38217  -0.37564  -0.37184
 Alpha  occ. eigenvalues --   -0.35483  -0.31626  -0.26869
 Alpha virt. eigenvalues --   -0.03714   0.03844   0.05210   0.05510   0.05938
 Alpha virt. eigenvalues --    0.06939   0.07358   0.07405   0.07852   0.08098
 Alpha virt. eigenvalues --    0.08905   0.09002   0.09576   0.09915   0.10030
 Alpha virt. eigenvalues --    0.10828   0.11114   0.11420   0.11979   0.12243
 Alpha virt. eigenvalues --    0.12669   0.13522   0.13654   0.13813   0.13863
 Alpha virt. eigenvalues --    0.14405   0.14698   0.15026   0.15413   0.15730
 Alpha virt. eigenvalues --    0.15946   0.16316   0.16886   0.17168   0.17371
 Alpha virt. eigenvalues --    0.17761   0.17978   0.18432   0.18759   0.18980
 Alpha virt. eigenvalues --    0.19441   0.19644   0.19831   0.20475   0.21025
 Alpha virt. eigenvalues --    0.21278   0.21667   0.22100   0.22300   0.22595
 Alpha virt. eigenvalues --    0.23137   0.23223   0.23696   0.24175   0.24284
 Alpha virt. eigenvalues --    0.24773   0.25300   0.25663   0.25889   0.26340
 Alpha virt. eigenvalues --    0.26476   0.27040   0.27443   0.27705   0.28470
 Alpha virt. eigenvalues --    0.28716   0.29222   0.29401   0.29899   0.30151
 Alpha virt. eigenvalues --    0.30632   0.31036   0.31130   0.31397   0.31687
 Alpha virt. eigenvalues --    0.32213   0.32738   0.33036   0.33841   0.34099
 Alpha virt. eigenvalues --    0.34371   0.34729   0.34974   0.35804   0.36168
 Alpha virt. eigenvalues --    0.36564   0.37322   0.38191   0.38538   0.38736
 Alpha virt. eigenvalues --    0.39892   0.40088   0.41792   0.41991   0.42456
 Alpha virt. eigenvalues --    0.43018   0.43312   0.43792   0.44674   0.45040
 Alpha virt. eigenvalues --    0.45215   0.45880   0.46036   0.47134   0.47778
 Alpha virt. eigenvalues --    0.48177   0.48807   0.49444   0.50030   0.50960
 Alpha virt. eigenvalues --    0.51316   0.51673   0.51801   0.52357   0.53670
 Alpha virt. eigenvalues --    0.53911   0.54179   0.54715   0.55237   0.55856
 Alpha virt. eigenvalues --    0.56275   0.56438   0.57166   0.57420   0.57712
 Alpha virt. eigenvalues --    0.58350   0.58516   0.59382   0.59786   0.60128
 Alpha virt. eigenvalues --    0.60679   0.60927   0.61094   0.61513   0.61989
 Alpha virt. eigenvalues --    0.62208   0.62424   0.62628   0.63683   0.64117
 Alpha virt. eigenvalues --    0.64448   0.64616   0.65127   0.65251   0.66347
 Alpha virt. eigenvalues --    0.66934   0.67507   0.68615   0.69072   0.70052
 Alpha virt. eigenvalues --    0.71189   0.71883   0.73683   0.74820   0.75420
 Alpha virt. eigenvalues --    0.75835   0.75941   0.77246   0.78090   0.79706
 Alpha virt. eigenvalues --    0.79874   0.81583   0.82031   0.83581   0.84080
 Alpha virt. eigenvalues --    0.84334   0.85722   0.85776   0.87131   0.87506
 Alpha virt. eigenvalues --    0.87726   0.88872   0.89768   0.90734   0.91084
 Alpha virt. eigenvalues --    0.93327   0.94052   0.95018   0.95418   0.95646
 Alpha virt. eigenvalues --    0.98221   0.98594   0.99321   1.01083   1.01592
 Alpha virt. eigenvalues --    1.02102   1.03155   1.04543   1.05267   1.06756
 Alpha virt. eigenvalues --    1.07082   1.08538   1.08899   1.11831   1.12421
 Alpha virt. eigenvalues --    1.12573   1.13589   1.13989   1.15138   1.15815
 Alpha virt. eigenvalues --    1.16023   1.17569   1.18143   1.18778   1.20320
 Alpha virt. eigenvalues --    1.21392   1.22192   1.22867   1.23804   1.24232
 Alpha virt. eigenvalues --    1.25902   1.26711   1.27223   1.27954   1.28805
 Alpha virt. eigenvalues --    1.29800   1.30484   1.32255   1.32707   1.34279
 Alpha virt. eigenvalues --    1.34537   1.35205   1.36013   1.37047   1.38227
 Alpha virt. eigenvalues --    1.39809   1.40346   1.41556   1.42341   1.43190
 Alpha virt. eigenvalues --    1.44734   1.45225   1.46184   1.47235   1.49462
 Alpha virt. eigenvalues --    1.50337   1.51671   1.53488   1.53653   1.55161
 Alpha virt. eigenvalues --    1.58447   1.60601   1.60999   1.61788   1.62074
 Alpha virt. eigenvalues --    1.63708   1.64645   1.65193   1.65503   1.65854
 Alpha virt. eigenvalues --    1.67291   1.67844   1.68998   1.69274   1.70275
 Alpha virt. eigenvalues --    1.70630   1.72249   1.73007   1.73710   1.75278
 Alpha virt. eigenvalues --    1.75881   1.78037   1.78938   1.80325   1.80413
 Alpha virt. eigenvalues --    1.82265   1.82912   1.84835   1.85849   1.86208
 Alpha virt. eigenvalues --    1.88653   1.89124   1.91138   1.91737   1.93434
 Alpha virt. eigenvalues --    1.95474   1.96174   1.97416   1.98473   1.99878
 Alpha virt. eigenvalues --    2.00037   2.01482   2.03860   2.04681   2.05451
 Alpha virt. eigenvalues --    2.05700   2.07436   2.09221   2.10050   2.12076
 Alpha virt. eigenvalues --    2.13442   2.13639   2.14019   2.15359   2.15671
 Alpha virt. eigenvalues --    2.16690   2.17126   2.19192   2.20029   2.20232
 Alpha virt. eigenvalues --    2.23215   2.24110   2.24274   2.24858   2.26465
 Alpha virt. eigenvalues --    2.27163   2.28083   2.28840   2.30218   2.30424
 Alpha virt. eigenvalues --    2.31956   2.33374   2.35557   2.36662   2.38436
 Alpha virt. eigenvalues --    2.39496   2.40513   2.42424   2.42979   2.43695
 Alpha virt. eigenvalues --    2.44245   2.45311   2.46441   2.47135   2.47516
 Alpha virt. eigenvalues --    2.48214   2.49332   2.50203   2.50365   2.51368
 Alpha virt. eigenvalues --    2.52432   2.53212   2.53581   2.53938   2.55219
 Alpha virt. eigenvalues --    2.56303   2.57233   2.58495   2.59293   2.60255
 Alpha virt. eigenvalues --    2.62508   2.62725   2.63038   2.64408   2.66118
 Alpha virt. eigenvalues --    2.66725   2.67231   2.67694   2.69803   2.71415
 Alpha virt. eigenvalues --    2.72357   2.72943   2.74382   2.74666   2.77100
 Alpha virt. eigenvalues --    2.77445   2.78290   2.79833   2.80911   2.82036
 Alpha virt. eigenvalues --    2.82887   2.84562   2.85724   2.86315   2.87316
 Alpha virt. eigenvalues --    2.88340   2.89337   2.90742   2.91424   2.92070
 Alpha virt. eigenvalues --    2.93253   2.93418   2.95440   2.95833   2.98202
 Alpha virt. eigenvalues --    2.98704   3.00424   3.01634   3.03153   3.04475
 Alpha virt. eigenvalues --    3.05089   3.05905   3.06540   3.08330   3.09900
 Alpha virt. eigenvalues --    3.10731   3.11440   3.13257   3.13989   3.14801
 Alpha virt. eigenvalues --    3.16009   3.17630   3.18380   3.18947   3.21111
 Alpha virt. eigenvalues --    3.21177   3.22026   3.22286   3.23665   3.24351
 Alpha virt. eigenvalues --    3.25570   3.26042   3.26852   3.27741   3.28326
 Alpha virt. eigenvalues --    3.29769   3.29845   3.30643   3.31676   3.32782
 Alpha virt. eigenvalues --    3.33528   3.35039   3.35968   3.36757   3.37086
 Alpha virt. eigenvalues --    3.37867   3.39083   3.40044   3.40448   3.40668
 Alpha virt. eigenvalues --    3.42077   3.42855   3.43339   3.45229   3.45906
 Alpha virt. eigenvalues --    3.46922   3.47284   3.49127   3.49974   3.50551
 Alpha virt. eigenvalues --    3.51013   3.51659   3.52824   3.54126   3.54638
 Alpha virt. eigenvalues --    3.56459   3.57370   3.58279   3.59076   3.60532
 Alpha virt. eigenvalues --    3.61942   3.62902   3.64152   3.64909   3.66274
 Alpha virt. eigenvalues --    3.66659   3.67199   3.68009   3.68488   3.69566
 Alpha virt. eigenvalues --    3.71488   3.72981   3.74444   3.75517   3.76394
 Alpha virt. eigenvalues --    3.78200   3.80442   3.82849   3.83287   3.85890
 Alpha virt. eigenvalues --    3.86458   3.88624   3.89028   3.94183   3.94933
 Alpha virt. eigenvalues --    3.97679   3.98030   4.01153   4.01998   4.03836
 Alpha virt. eigenvalues --    4.06842   4.08035   4.09872   4.10640   4.13556
 Alpha virt. eigenvalues --    4.14245   4.16783   4.17136   4.19274   4.21263
 Alpha virt. eigenvalues --    4.24144   4.25544   4.26827   4.27590   4.28327
 Alpha virt. eigenvalues --    4.28784   4.29493   4.31773   4.32270   4.33474
 Alpha virt. eigenvalues --    4.35426   4.37594   4.38658   4.39441   4.40954
 Alpha virt. eigenvalues --    4.41517   4.41998   4.45739   4.47437   4.48174
 Alpha virt. eigenvalues --    4.51534   4.52031   4.54263   4.54788   4.56171
 Alpha virt. eigenvalues --    4.56324   4.59902   4.60800   4.61769   4.64667
 Alpha virt. eigenvalues --    4.67235   4.68048   4.73600   4.74676   4.77778
 Alpha virt. eigenvalues --    4.79229   4.81291   4.83193   4.83987   4.87778
 Alpha virt. eigenvalues --    4.94399   4.97328   5.00046   5.02868   5.05644
 Alpha virt. eigenvalues --    5.08138   5.08775   5.09667   5.11187   5.11817
 Alpha virt. eigenvalues --    5.14735   5.15497   5.17941   5.19366   5.20909
 Alpha virt. eigenvalues --    5.22918   5.25248   5.26634   5.26860   5.29453
 Alpha virt. eigenvalues --    5.32001   5.32811   5.35050   5.38578   5.39770
 Alpha virt. eigenvalues --    5.43349   5.45466   5.49967   5.54699   5.56561
 Alpha virt. eigenvalues --    5.62444   5.63663   5.65366   5.72221   5.80409
 Alpha virt. eigenvalues --    5.81117   5.81547   5.83450   5.88714   5.93359
 Alpha virt. eigenvalues --    6.01848   6.06279   6.09170   6.12052   6.14866
 Alpha virt. eigenvalues --    6.21709   6.30355   6.33465   6.34509   6.40468
 Alpha virt. eigenvalues --    6.45785   6.47375   6.47978   6.54838   6.56422
 Alpha virt. eigenvalues --    6.64931   6.65718   6.77619   6.78659   6.86837
 Alpha virt. eigenvalues --    6.89361   6.90655   6.91935   7.01092   7.02149
 Alpha virt. eigenvalues --    7.04049   7.06867   7.12021   7.17581   7.21261
 Alpha virt. eigenvalues --    7.31726   7.32982   7.43261   7.46410   7.55348
 Alpha virt. eigenvalues --    7.58218  22.53491  22.56782  22.63416  22.70313
 Alpha virt. eigenvalues --   22.70820  22.76752  22.84356  22.94962  22.98716
 Alpha virt. eigenvalues --   23.55000  23.62044  32.56739  32.80963  44.20500
 Alpha virt. eigenvalues --   44.22398  44.32928  44.40351
          Condensed to atoms (all electrons):
               1          2          3          4          5          6
     1  C    6.211718   0.527275  -0.212285   0.258228   0.467452  -0.040786
     2  C    0.527275   5.712440  -0.301581   0.071656  -0.050095   0.007060
     3  C   -0.212285  -0.301581   5.382509   0.275204   0.011971  -0.039769
     4  C    0.258228   0.071656   0.275204   6.083480  -0.024757   0.449559
     5  H    0.467452  -0.050095   0.011971  -0.024757   0.457096  -0.003452
     6  H   -0.040786   0.007060  -0.039769   0.449559  -0.003452   0.457959
     7  C   -0.092461   0.305517   0.411482  -0.191427   0.002509  -0.009507
     8  H    0.027534  -0.027048  -0.028277   0.029029  -0.000059   0.000014
     9  H   -0.029874  -0.016349  -0.022312  -0.015082  -0.000091   0.000178
    10  C   -0.360416   0.033256  -0.078012  -0.560119  -0.045528   0.028048
    11  H   -0.016193  -0.014755   0.002001  -0.001724  -0.007163   0.000098
    12  C   -0.413663  -0.299562   0.250271  -0.015841  -0.000366  -0.024780
    13  H    0.014691   0.005961  -0.024007  -0.002995   0.000091  -0.002849
    14  H   -0.034433   0.401320   0.010819  -0.005224   0.000728  -0.000006
    15  H    0.006304   0.006719   0.439141  -0.020075   0.000006  -0.002595
    16  N    0.034943   0.298215  -0.140340  -0.204268  -0.019852   0.015762
    17  N   -0.229376  -0.452500   0.178149   0.136953  -0.006986  -0.017003
    18  C    0.087661   0.046978  -0.028099  -0.007868   0.006352  -0.000181
    19  C   -0.045676  -0.164428   0.039002   0.078648   0.014154  -0.000476
    20  O   -0.011273  -0.005986   0.002167   0.009860  -0.002400   0.000497
    21  O    0.009491   0.001892   0.001692  -0.011721   0.000055  -0.003205
    22  O    0.019619   0.013348  -0.003989   0.002315  -0.006902  -0.000350
    23  O    0.007146   0.012707   0.003760  -0.022208   0.001591  -0.000698
    24  C    0.010695   0.006731  -0.004626  -0.015809  -0.001055   0.000060
    25  H    0.003309   0.000311  -0.000400  -0.003304  -0.000007   0.000120
    26  H    0.000545   0.000580   0.000404  -0.004331   0.000012  -0.000105
    27  H   -0.006151  -0.001868  -0.000956   0.012120  -0.000043   0.000842
    28  C    0.003058  -0.008678  -0.003842  -0.007375   0.000458   0.000017
    29  H    0.007114   0.001002  -0.000084   0.001061   0.000012   0.000001
    30  H   -0.007748   0.002906  -0.000490  -0.002092  -0.000039   0.000000
    31  H    0.007095  -0.001716   0.000403   0.002307   0.000074   0.000000
               7          8          9         10         11         12
     1  C   -0.092461   0.027534  -0.029874  -0.360416  -0.016193  -0.413663
     2  C    0.305517  -0.027048  -0.016349   0.033256  -0.014755  -0.299562
     3  C    0.411482  -0.028277  -0.022312  -0.078012   0.002001   0.250271
     4  C   -0.191427   0.029029  -0.015082  -0.560119  -0.001724  -0.015841
     5  H    0.002509  -0.000059  -0.000091  -0.045528  -0.007163  -0.000366
     6  H   -0.009507   0.000014   0.000178   0.028048   0.000098  -0.024780
     7  C    5.432733   0.409796   0.428008  -0.260601   0.004453  -0.228274
     8  H    0.409796   0.516568  -0.014629  -0.030862  -0.000134  -0.023653
     9  H    0.428008  -0.014629   0.452587   0.007089   0.000013   0.010607
    10  C   -0.260601  -0.030862   0.007089   6.253195   0.439342   0.612700
    11  H    0.004453  -0.000134   0.000013   0.439342   0.439271  -0.038844
    12  C   -0.228274  -0.023653   0.010607   0.612700  -0.038844   5.768962
    13  H    0.005407   0.000077   0.000028  -0.078323  -0.002670   0.444103
    14  H   -0.018078  -0.001392  -0.000814  -0.005644  -0.001696   0.008037
    15  H   -0.011378  -0.001779  -0.002471   0.004784   0.000076  -0.048195
    16  N   -0.107293  -0.003432  -0.001720   0.165167   0.003465  -0.131844
    17  N    0.152806  -0.002084  -0.000893   0.005151  -0.004441   0.244467
    18  C    0.013164  -0.000747   0.001621  -0.052536  -0.000557  -0.055312
    19  C    0.072761   0.004608   0.002432  -0.132887  -0.000981  -0.006475
    20  O   -0.012712   0.000981   0.000193  -0.003227   0.000064  -0.005142
    21  O    0.004257  -0.000008   0.000277  -0.007048   0.000007  -0.004117
    22  O   -0.000886   0.000711   0.000841   0.017475   0.000552  -0.004858
    23  O    0.000764  -0.000141   0.000150   0.007916  -0.000041   0.010568
    24  C    0.000817  -0.000046  -0.000126   0.001617   0.000062   0.002928
    25  H   -0.000029   0.000000   0.000000   0.000511   0.000000  -0.000265
    26  H    0.000007   0.000000   0.000000  -0.000650   0.000000  -0.001824
    27  H   -0.000228   0.000000  -0.000001   0.001319   0.000000   0.007071
    28  C   -0.014110  -0.000500   0.002197   0.024044  -0.000181   0.012947
    29  H   -0.006558  -0.000003  -0.000071   0.005739  -0.000002   0.002362
    30  H    0.001369   0.000001   0.000025   0.001561   0.000001  -0.000279
    31  H    0.000013   0.000000  -0.000003  -0.006158  -0.000002  -0.000959
              13         14         15         16         17         18
     1  C    0.014691  -0.034433   0.006304   0.034943  -0.229376   0.087661
     2  C    0.005961   0.401320   0.006719   0.298215  -0.452500   0.046978
     3  C   -0.024007   0.010819   0.439141  -0.140340   0.178149  -0.028099
     4  C   -0.002995  -0.005224  -0.020075  -0.204268   0.136953  -0.007868
     5  H    0.000091   0.000728   0.000006  -0.019852  -0.006986   0.006352
     6  H   -0.002849  -0.000006  -0.002595   0.015762  -0.017003  -0.000181
     7  C    0.005407  -0.018078  -0.011378  -0.107293   0.152806   0.013164
     8  H    0.000077  -0.001392  -0.001779  -0.003432  -0.002084  -0.000747
     9  H    0.000028  -0.000814  -0.002471  -0.001720  -0.000893   0.001621
    10  C   -0.078323  -0.005644   0.004784   0.165167   0.005151  -0.052536
    11  H   -0.002670  -0.001696   0.000076   0.003465  -0.004441  -0.000557
    12  C    0.444103   0.008037  -0.048195  -0.131844   0.244467  -0.055312
    13  H    0.466315   0.000017  -0.003401  -0.005097   0.004589   0.001112
    14  H    0.000017   0.470002   0.000009   0.005449  -0.008291  -0.000979
    15  H   -0.003401   0.000009   0.462613   0.010888  -0.011336  -0.002468
    16  N   -0.005097   0.005449   0.010888   9.885205  -2.501088   0.216119
    17  N    0.004589  -0.008291  -0.011336  -2.501088   9.904481  -0.105199
    18  C    0.001112  -0.000979  -0.002468   0.216119  -0.105199   4.993284
    19  C    0.000546   0.003514  -0.001882  -0.385765   0.429223  -0.110194
    20  O   -0.000001  -0.000716  -0.000099  -0.001979  -0.096903  -0.016912
    21  O    0.000062  -0.000079   0.000670  -0.101997   0.035955   0.480975
    22  O   -0.000017   0.004873   0.000087  -0.048879  -0.099488  -0.009340
    23  O   -0.000041  -0.000118   0.000380   0.137231  -0.331492   0.198789
    24  C   -0.000201  -0.000109   0.000565   0.056701  -0.049152  -0.069302
    25  H    0.000000   0.000000   0.000001  -0.016210   0.024123   0.015258
    26  H    0.000000   0.000000  -0.000001   0.027948  -0.031208  -0.013496
    27  H    0.000001   0.000000   0.000000  -0.016472   0.014135  -0.022410
    28  C    0.000011   0.000501  -0.000002  -0.012678   0.019700  -0.008036
    29  H    0.000000   0.000942   0.000000  -0.010773   0.015230   0.000720
    30  H    0.000000  -0.000003   0.000000   0.006716   0.000110  -0.000378
    31  H    0.000000  -0.000350   0.000000   0.005082  -0.007786   0.000029
              19         20         21         22         23         24
     1  C   -0.045676  -0.011273   0.009491   0.019619   0.007146   0.010695
     2  C   -0.164428  -0.005986   0.001892   0.013348   0.012707   0.006731
     3  C    0.039002   0.002167   0.001692  -0.003989   0.003760  -0.004626
     4  C    0.078648   0.009860  -0.011721   0.002315  -0.022208  -0.015809
     5  H    0.014154  -0.002400   0.000055  -0.006902   0.001591  -0.001055
     6  H   -0.000476   0.000497  -0.003205  -0.000350  -0.000698   0.000060
     7  C    0.072761  -0.012712   0.004257  -0.000886   0.000764   0.000817
     8  H    0.004608   0.000981  -0.000008   0.000711  -0.000141  -0.000046
     9  H    0.002432   0.000193   0.000277   0.000841   0.000150  -0.000126
    10  C   -0.132887  -0.003227  -0.007048   0.017475   0.007916   0.001617
    11  H   -0.000981   0.000064   0.000007   0.000552  -0.000041   0.000062
    12  C   -0.006475  -0.005142  -0.004117  -0.004858   0.010568   0.002928
    13  H    0.000546  -0.000001   0.000062  -0.000017  -0.000041  -0.000201
    14  H    0.003514  -0.000716  -0.000079   0.004873  -0.000118  -0.000109
    15  H   -0.001882  -0.000099   0.000670   0.000087   0.000380   0.000565
    16  N   -0.385765  -0.001979  -0.101997  -0.048879   0.137231   0.056701
    17  N    0.429223  -0.096903   0.035955  -0.099488  -0.331492  -0.049152
    18  C   -0.110194  -0.016912   0.480975  -0.009340   0.198789  -0.069302
    19  C    5.219874   0.543261   0.002721   0.271457  -0.041546  -0.010615
    20  O    0.543261   8.133353   0.001203  -0.124914  -0.006875  -0.001026
    21  O    0.002721   0.001203   8.242342   0.002385  -0.175837  -0.004699
    22  O    0.271457  -0.124914   0.002385   8.149064  -0.013340  -0.002583
    23  O   -0.041546  -0.006875  -0.175837  -0.013340   8.360074   0.158612
    24  C   -0.010615  -0.001026  -0.004699  -0.002583   0.158612   4.897597
    25  H   -0.000925   0.000036   0.006201   0.000220  -0.076010   0.418048
    26  H   -0.002340   0.000030  -0.006103  -0.000051  -0.020505   0.428067
    27  H    0.002808  -0.000052  -0.008107  -0.000072  -0.022907   0.414757
    28  C   -0.071824  -0.032410   0.000346   0.176168   0.000208  -0.000209
    29  H   -0.020120  -0.011136  -0.000007  -0.026269   0.000083   0.000003
    30  H   -0.013797  -0.003733  -0.000005  -0.027305  -0.000041   0.000005
    31  H    0.017535   0.006393   0.000005  -0.065179  -0.000010   0.000008
              25         26         27         28         29         30
     1  C    0.003309   0.000545  -0.006151   0.003058   0.007114  -0.007748
     2  C    0.000311   0.000580  -0.001868  -0.008678   0.001002   0.002906
     3  C   -0.000400   0.000404  -0.000956  -0.003842  -0.000084  -0.000490
     4  C   -0.003304  -0.004331   0.012120  -0.007375   0.001061  -0.002092
     5  H   -0.000007   0.000012  -0.000043   0.000458   0.000012  -0.000039
     6  H    0.000120  -0.000105   0.000842   0.000017   0.000001   0.000000
     7  C   -0.000029   0.000007  -0.000228  -0.014110  -0.006558   0.001369
     8  H    0.000000   0.000000   0.000000  -0.000500  -0.000003   0.000001
     9  H    0.000000   0.000000  -0.000001   0.002197  -0.000071   0.000025
    10  C    0.000511  -0.000650   0.001319   0.024044   0.005739   0.001561
    11  H    0.000000   0.000000   0.000000  -0.000181  -0.000002   0.000001
    12  C   -0.000265  -0.001824   0.007071   0.012947   0.002362  -0.000279
    13  H    0.000000   0.000000   0.000001   0.000011   0.000000   0.000000
    14  H    0.000000   0.000000   0.000000   0.000501   0.000942  -0.000003
    15  H    0.000001  -0.000001   0.000000  -0.000002   0.000000   0.000000
    16  N   -0.016210   0.027948  -0.016472  -0.012678  -0.010773   0.006716
    17  N    0.024123  -0.031208   0.014135   0.019700   0.015230   0.000110
    18  C    0.015258  -0.013496  -0.022410  -0.008036   0.000720  -0.000378
    19  C   -0.000925  -0.002340   0.002808  -0.071824  -0.020120  -0.013797
    20  O    0.000036   0.000030  -0.000052  -0.032410  -0.011136  -0.003733
    21  O    0.006201  -0.006103  -0.008107   0.000346  -0.000007  -0.000005
    22  O    0.000220  -0.000051  -0.000072   0.176168  -0.026269  -0.027305
    23  O   -0.076010  -0.020505  -0.022907   0.000208   0.000083  -0.000041
    24  C    0.418048   0.428067   0.414757  -0.000209   0.000003   0.000005
    25  H    0.523142  -0.021138  -0.026274   0.000057   0.000000   0.000000
    26  H   -0.021138   0.508280  -0.029281  -0.000005   0.000000   0.000000
    27  H   -0.026274  -0.029281   0.531113  -0.000010   0.000000   0.000000
    28  C    0.000057  -0.000005  -0.000010   4.907555   0.415806   0.423267
    29  H    0.000000   0.000000   0.000000   0.415806   0.518979  -0.027775
    30  H    0.000000   0.000000   0.000000   0.423267  -0.027775   0.494696
    31  H    0.000000   0.000000   0.000000   0.413980  -0.023867  -0.020013
              31
     1  C    0.007095
     2  C   -0.001716
     3  C    0.000403
     4  C    0.002307
     5  H    0.000074
     6  H    0.000000
     7  C    0.000013
     8  H    0.000000
     9  H   -0.000003
    10  C   -0.006158
    11  H   -0.000002
    12  C   -0.000959
    13  H    0.000000
    14  H   -0.000350
    15  H    0.000000
    16  N    0.005082
    17  N   -0.007786
    18  C    0.000029
    19  C    0.017535
    20  O    0.006393
    21  O    0.000005
    22  O   -0.065179
    23  O   -0.000010
    24  C    0.000008
    25  H    0.000000
    26  H    0.000000
    27  H    0.000000
    28  C    0.413980
    29  H   -0.023867
    30  H   -0.020013
    31  H    0.512181
 Mulliken charges:
               1
     1  C   -0.203544
     2  C   -0.111307
     3  C   -0.119906
     4  C   -0.294201
     5  H    0.206234
     6  H    0.185550
     7  C   -0.292320
     8  H    0.145476
     9  H    0.198192
    10  C    0.013101
    11  H    0.199978
    12  C   -0.070768
    13  H    0.176592
    14  H    0.171722
    15  H    0.173439
    16  N   -0.159203
    17  N   -0.209848
    18  C    0.441952
    19  C    0.307388
    20  O   -0.360543
    21  O   -0.467601
    22  O   -0.224692
    23  O   -0.188170
    24  C   -0.237714
    25  H    0.153226
    26  H    0.165165
    27  H    0.150666
    28  C   -0.240458
    29  H    0.157611
    30  H    0.173044
    31  H    0.160938
 Sum of Mulliken charges =   0.00000
 Mulliken charges with hydrogens summed into heavy atoms:
               1
     1  C    0.002690
     2  C    0.060415
     3  C    0.053534
     4  C   -0.108651
     7  C    0.051348
    10  C    0.213080
    12  C    0.105824
    16  N   -0.159203
    17  N   -0.209848
    18  C    0.441952
    19  C    0.307388
    20  O   -0.360543
    21  O   -0.467601
    22  O   -0.224692
    23  O   -0.188170
    24  C    0.231343
    28  C    0.251135
 APT charges:
               1
     1  C   -0.657027
     2  C   -0.433870
     3  C   -0.526703
     4  C   -0.396086
     5  H    0.457365
     6  H    0.419512
     7  C   -0.779937
     8  H    0.661610
     9  H    0.179093
    10  C   -0.290010
    11  H    0.693904
    12  C   -0.702483
    13  H    0.807662
    14  H    0.452234
    15  H    0.596538
    16  N   -0.573619
    17  N   -0.236707
    18  C    0.227129
    19  C    0.199757
    20  O   -0.213530
    21  O   -0.197221
    22  O    0.073140
    23  O   -0.000942
    24  C   -1.424871
    25  H    0.535315
    26  H    0.604364
    27  H    0.378960
    28  C   -1.388092
    29  H    0.347391
    30  H    0.541770
    31  H    0.645357
 Sum of APT charges =   0.00000
 APT charges with hydrogens summed into heavy atoms:
               1
     1  C   -0.199662
     2  C    0.018364
     3  C    0.069834
     4  C    0.023425
     7  C    0.060766
    10  C    0.403894
    12  C    0.105180
    16  N   -0.573619
    17  N   -0.236707
    18  C    0.227129
    19  C    0.199757
    20  O   -0.213530
    21  O   -0.197221
    22  O    0.073140
    23  O   -0.000942
    24  C    0.093768
    28  C    0.146426
 Electronic spatial extent (au):  <R**2>=           3701.6752
 Charge=              0.0000 electrons
 Dipole moment (field-independent basis, Debye):
    X=              4.5523    Y=              5.6852    Z=             -6.3929  Tot=              9.6909
 Quadrupole moment (field-independent basis, Debye-Ang):
   XX=            -88.7928   YY=            -86.9586   ZZ=           -104.2082
   XY=             -0.9872   XZ=              4.7602   YZ=              3.6271
 Traceless Quadrupole moment (field-independent basis, Debye-Ang):
   XX=              4.5271   YY=              6.3612   ZZ=            -10.8883
   XY=             -0.9872   XZ=              4.7602   YZ=              3.6271
 Octapole moment (field-independent basis, Debye-Ang**2):
  XXX=             37.6706  YYY=              2.0453  ZZZ=            -23.1996  XYY=              2.5719
  XXY=            -21.6599  XXZ=            -51.5995  XZZ=              9.0775  YZZ=             15.8409
  YYZ=            -15.4701  XYZ=             -0.4838
 Hexadecapole moment (field-independent basis, Debye-Ang**3):
 XXXX=          -2270.0547 YYYY=          -1623.8409 ZZZZ=           -597.3590 XXXY=            -44.3599
 XXXZ=             92.0951 YYYX=            -46.9177 YYYZ=            -12.1971 ZZZX=              5.9216
 ZZZY=             22.0479 XXYY=           -617.0295 XXZZ=           -524.9265 YYZZ=           -381.5801
 XXYZ=             46.7156 YYXZ=            -29.3606 ZZXY=             17.2232
 N-N= 1.312599104141D+03 E-N=-4.584015533722D+03  KE= 8.338922483236D+02
  Exact polarizability:   0.000   0.000   0.000   0.000   0.000   0.000
 Approx polarizability: 201.176  37.062 226.252 -26.347 -34.484 183.555
 D2PCM: PCM CHGder 2nd derivatives, FixD1E=F FixD2E=F DoIter=F DoCFld=F I1PDM=0
 Calling FoFJK, ICntrl=    100147 FMM=F ISym2X=0 I1Cent= 0 IOpClX= 0 NMat=1 NMatS=1 NMatT=0.
 ***** Axes restored to original set *****
 -------------------------------------------------------------------
 Center     Atomic                   Forces (Hartrees/Bohr)
 Number     Number              X              Y              Z
 -------------------------------------------------------------------
      1        6          -0.001233668    0.000454416   -0.000811704
      2        6          -0.003195181    0.000036532   -0.001510465
      3        6           0.000816322    0.000009877   -0.001518920
      4        6           0.000522784   -0.000831670    0.000672776
      5        1          -0.000250397    0.000400889    0.002568307
      6        1           0.002235911    0.000475910    0.000621711
      7        6          -0.000068413    0.000675192   -0.000479881
      8        1          -0.001156234   -0.001526674   -0.000869551
      9        1           0.000049356    0.001674770   -0.001149718
     10        6           0.000651517    0.003995707    0.000089234
     11        1          -0.000900206   -0.000192039    0.002023056
     12        6           0.001986641   -0.000105941   -0.000281406
     13        1           0.001022970   -0.001810823    0.000691774
     14        1          -0.002265043    0.001245103    0.000151583
     15        1           0.001910139   -0.001137528   -0.001299207
     16        7          -0.002272284   -0.002256551   -0.003778867
     17        7           0.002216379   -0.000764053    0.003369820
     18        6          -0.002644801    0.000591267    0.002407167
     19        6           0.000087882   -0.001968107    0.002851165
     20        8          -0.001843319    0.001339542   -0.006145827
     21        8           0.006020797   -0.000933583   -0.004114118
     22        8           0.002353973   -0.001524409    0.004492417
     23        8          -0.004415504    0.000371476    0.002774118
     24        6           0.003713425    0.000054994    0.000645093
     25        1           0.000031165    0.000461356    0.001445182
     26        1           0.000324297    0.001149722   -0.001049900
[...]
 Alpha virt. eigenvalues --    4.24632   4.25658   4.26896   4.27700   4.28877
 Alpha virt. eigenvalues --    4.29383   4.29874   4.32384   4.32971   4.33687
 Alpha virt. eigenvalues --    4.35840   4.38176   4.38955   4.40388   4.41500
 Alpha virt. eigenvalues --    4.42238   4.42799   4.45988   4.47578   4.49348
 Alpha virt. eigenvalues --    4.52059   4.52528   4.54486   4.55040   4.56036
 Alpha virt. eigenvalues --    4.56783   4.59788   4.61216   4.62025   4.64268
 Alpha virt. eigenvalues --    4.67122   4.68335   4.73668   4.75305   4.78165
 Alpha virt. eigenvalues --    4.79701   4.81637   4.83644   4.84495   4.88042
 Alpha virt. eigenvalues --    4.94979   4.97645   5.00333   5.02818   5.05563
 Alpha virt. eigenvalues --    5.08554   5.09282   5.10141   5.11502   5.12126
 Alpha virt. eigenvalues --    5.14750   5.15989   5.18287   5.19517   5.20654
 Alpha virt. eigenvalues --    5.22455   5.25278   5.26733   5.27066   5.29461
 Alpha virt. eigenvalues --    5.31933   5.33014   5.35384   5.38539   5.40097
 Alpha virt. eigenvalues --    5.43598   5.45547   5.49565   5.54682   5.57029
 Alpha virt. eigenvalues --    5.62490   5.64270   5.65642   5.72332   5.81192
 Alpha virt. eigenvalues --    5.81858   5.83123   5.84210   5.89007   5.94614
 Alpha virt. eigenvalues --    6.02229   6.07493   6.10255   6.13359   6.16264
 Alpha virt. eigenvalues --    6.23376   6.31666   6.34882   6.35783   6.41906
 Alpha virt. eigenvalues --    6.46411   6.48001   6.48499   6.56455   6.57343
 Alpha virt. eigenvalues --    6.65343   6.65997   6.77914   6.78777   6.87010
 Alpha virt. eigenvalues --    6.89461   6.90839   6.92027   7.01588   7.02535
 Alpha virt. eigenvalues --    7.04234   7.07668   7.12910   7.17897   7.21931
 Alpha virt. eigenvalues --    7.32445   7.33547   7.44719   7.47996   7.55907
 Alpha virt. eigenvalues --    7.58466  22.56385  22.59386  22.63530  22.71363
 Alpha virt. eigenvalues --   22.72310  22.77300  22.85252  22.96163  22.99270
 Alpha virt. eigenvalues --   23.58202  23.65557  32.57001  32.80702  44.20718
 Alpha virt. eigenvalues --   44.22254  44.33814  44.40948
          Condensed to atoms (all electrons):
               1          2          3          4          5          6
     1  C    6.157130   0.546402  -0.207267   0.205905   0.462994  -0.040163
     2  C    0.546402   5.701112  -0.319229   0.090635  -0.050431   0.006482
     3  C   -0.207267  -0.319229   5.406931   0.259245   0.014187  -0.042317
     4  C    0.205905   0.090635   0.259245   6.006216  -0.027352   0.452937
     5  H    0.462994  -0.050431   0.014187  -0.027352   0.456356  -0.003501
     6  H   -0.040163   0.006482  -0.042317   0.452937  -0.003501   0.458826
     7  C   -0.109164   0.303556   0.424045  -0.210093   0.004373  -0.010153
     8  H    0.027867  -0.022569  -0.028429   0.028493  -0.000055   0.000012
     9  H   -0.031059  -0.017557  -0.022291  -0.015078  -0.000125   0.000218
    10  C   -0.293879   0.015798  -0.093439  -0.473641  -0.044062   0.029305
    11  H   -0.012720  -0.017808   0.002113  -0.000957  -0.006572   0.000097
    12  C   -0.381096  -0.277164   0.249489   0.035719   0.001189  -0.025203
    13  H    0.012494   0.007250  -0.023375  -0.006874   0.000089  -0.002918
    14  H   -0.033699   0.406098   0.009632  -0.004809   0.000601  -0.000003
    15  H    0.006519   0.005323   0.439311  -0.019799   0.000007  -0.002634
    16  N    0.099941   0.242874  -0.181284  -0.149688  -0.023272   0.017534
    17  N   -0.282796  -0.421162   0.232447   0.108031   0.001386  -0.018459
    18  C    0.088686   0.048319  -0.031947  -0.011636   0.006136  -0.000813
    19  C   -0.068438  -0.149103   0.047453   0.064599   0.014089  -0.000760
    20  O   -0.007066   0.000751  -0.000111   0.007457  -0.002624   0.000575
    21  O    0.009951   0.002932   0.001209  -0.014053   0.000060  -0.003348
    22  O    0.007720   0.009720  -0.003636  -0.002642  -0.007045  -0.000282
    23  O    0.014325   0.008399  -0.000094  -0.019625   0.001204  -0.000887
    24  C    0.011096   0.005818  -0.004815  -0.013360  -0.001086   0.000082
    25  H    0.003245   0.000495  -0.000286  -0.003745  -0.000008   0.000122
    26  H    0.000852   0.000491   0.000248  -0.004436   0.000012  -0.000099
    27  H   -0.006264  -0.001799  -0.000791   0.012905  -0.000041   0.000785
    28  C    0.004302  -0.006176  -0.003867  -0.006640   0.000037   0.000041
    29  H    0.005934   0.004064  -0.000409   0.000493   0.000015   0.000001
    30  H   -0.007146   0.000957  -0.000378  -0.001786  -0.000042   0.000000
    31  H    0.007721  -0.001382   0.000370   0.002422   0.000077   0.000000
               7          8          9         10         11         12
     1  C   -0.109164   0.027867  -0.031059  -0.293879  -0.012720  -0.381096
     2  C    0.303556  -0.022569  -0.017557   0.015798  -0.017808  -0.277164
     3  C    0.424045  -0.028429  -0.022291  -0.093439   0.002113   0.249489
     4  C   -0.210093   0.028493  -0.015078  -0.473641  -0.000957   0.035719
     5  H    0.004373  -0.000055  -0.000125  -0.044062  -0.006572   0.001189
     6  H   -0.010153   0.000012   0.000218   0.029305   0.000097  -0.025203
     7  C    5.437261   0.408793   0.428186  -0.253581   0.005196  -0.229839
     8  H    0.408793   0.516534  -0.014634  -0.031905  -0.000135  -0.024686
     9  H    0.428186  -0.014634   0.451944   0.008461   0.000019   0.010528
    10  C   -0.253581  -0.031905   0.008461   6.188756   0.439573   0.555922
    11  H    0.005196  -0.000135   0.000019   0.439573   0.438377  -0.040725
    12  C   -0.229839  -0.024686   0.010528   0.555922  -0.040725   5.719180
    13  H    0.004768   0.000063   0.000024  -0.076422  -0.002754   0.447750
    14  H   -0.018505  -0.001256  -0.000866  -0.005005  -0.001588   0.008091
    15  H   -0.010351  -0.001780  -0.002522   0.004873   0.000079  -0.047835
    16  N   -0.072041  -0.003030   0.002275   0.144792   0.003065  -0.125974
    17  N    0.131130  -0.002708  -0.002971  -0.005849  -0.004278   0.226791
    18  C    0.006199  -0.000515   0.001588  -0.043649  -0.000619  -0.047600
    19  C    0.072585   0.004096   0.003634  -0.122804  -0.000540  -0.002168
    20  O   -0.015110   0.000965  -0.000696   0.000730   0.000107  -0.004864
    21  O    0.002722  -0.000012   0.000248  -0.005994   0.000004  -0.002759
    22  O   -0.001372   0.000764   0.000482   0.025514   0.000721  -0.005679
    23  O    0.004166  -0.000147   0.000292   0.005161  -0.000067   0.009641
    24  C    0.000781  -0.000050  -0.000133   0.000925   0.000054   0.002913
    25  H   -0.000070   0.000000   0.000000   0.000481   0.000000  -0.000360
    26  H    0.000085   0.000000   0.000000  -0.000548   0.000000  -0.001675
    27  H   -0.000379   0.000000  -0.000001   0.001056   0.000000   0.006568
    28  C   -0.014616  -0.000435   0.002148   0.021351  -0.000214   0.010763
    29  H   -0.006896  -0.000004  -0.000057   0.005456  -0.000002   0.001763
    30  H    0.001606   0.000001   0.000019   0.001189   0.000001  -0.000219
    31  H    0.000072   0.000000  -0.000004  -0.005893  -0.000003  -0.000887
              13         14         15         16         17         18
     1  C    0.012494  -0.033699   0.006519   0.099941  -0.282796   0.088686
     2  C    0.007250   0.406098   0.005323   0.242874  -0.421162   0.048319
     3  C   -0.023375   0.009632   0.439311  -0.181284   0.232447  -0.031947
     4  C   -0.006874  -0.004809  -0.019799  -0.149688   0.108031  -0.011636
     5  H    0.000089   0.000601   0.000007  -0.023272   0.001386   0.006136
     6  H   -0.002918  -0.000003  -0.002634   0.017534  -0.018459  -0.000813
     7  C    0.004768  -0.018505  -0.010351  -0.072041   0.131130   0.006199
     8  H    0.000063  -0.001256  -0.001780  -0.003030  -0.002708  -0.000515
     9  H    0.000024  -0.000866  -0.002522   0.002275  -0.002971   0.001588
    10  C   -0.076422  -0.005005   0.004873   0.144792  -0.005849  -0.043649
    11  H   -0.002754  -0.001588   0.000079   0.003065  -0.004278  -0.000619
    12  C    0.447750   0.008091  -0.047835  -0.125974   0.226791  -0.047600
    13  H    0.466352   0.000017  -0.003401  -0.004932   0.004549   0.001126
    14  H    0.000017   0.467293   0.000015   0.007396  -0.012787  -0.000934
    15  H   -0.003401   0.000015   0.462942   0.010540  -0.011084  -0.002675
    16  N   -0.004932   0.007396   0.010540   9.823614  -2.489505   0.233677
    17  N    0.004549  -0.012787  -0.011084  -2.489505   9.927028  -0.124639
    18  C    0.001126  -0.000934  -0.002675   0.233677  -0.124639   4.994672
    19  C    0.000496   0.002723  -0.001585  -0.410045   0.478157  -0.111209
    20  O   -0.000011  -0.000115  -0.000057   0.003861  -0.104681  -0.020314
    21  O    0.000063  -0.000073   0.000675  -0.101311   0.032874   0.483931
    22  O   -0.000032   0.005601   0.000110  -0.049666  -0.101597  -0.010180
    23  O   -0.000023  -0.000097   0.000356   0.143494  -0.342088   0.200952
    24  C   -0.000194  -0.000094   0.000549   0.056005  -0.049027  -0.070550
    25  H    0.000000   0.000000   0.000001  -0.016457   0.024327   0.016155
    26  H    0.000000   0.000000  -0.000001   0.027361  -0.031898  -0.012760
    27  H    0.000001   0.000000  -0.000001  -0.015080   0.014224  -0.024208
    28  C    0.000014  -0.000209  -0.000006  -0.011826   0.019388  -0.007533
    29  H    0.000000   0.000434   0.000000  -0.011213   0.011253   0.000667
    30  H    0.000000   0.000017   0.000000   0.006242   0.002826  -0.000339
    31  H    0.000000  -0.000362   0.000000   0.005804  -0.007468   0.000057
              19         20         21         22         23         24
     1  C   -0.068438  -0.007066   0.009951   0.007720   0.014325   0.011096
     2  C   -0.149103   0.000751   0.002932   0.009720   0.008399   0.005818
     3  C    0.047453  -0.000111   0.001209  -0.003636  -0.000094  -0.004815
     4  C    0.064599   0.007457  -0.014053  -0.002642  -0.019625  -0.013360
     5  H    0.014089  -0.002624   0.000060  -0.007045   0.001204  -0.001086
     6  H   -0.000760   0.000575  -0.003348  -0.000282  -0.000887   0.000082
     7  C    0.072585  -0.015110   0.002722  -0.001372   0.004166   0.000781
     8  H    0.004096   0.000965  -0.000012   0.000764  -0.000147  -0.000050
     9  H    0.003634  -0.000696   0.000248   0.000482   0.000292  -0.000133
    10  C   -0.122804   0.000730  -0.005994   0.025514   0.005161   0.000925
    11  H   -0.000540   0.000107   0.000004   0.000721  -0.000067   0.000054
    12  C   -0.002168  -0.004864  -0.002759  -0.005679   0.009641   0.002913
    13  H    0.000496  -0.000011   0.000063  -0.000032  -0.000023  -0.000194
    14  H    0.002723  -0.000115  -0.000073   0.005601  -0.000097  -0.000094
    15  H   -0.001585  -0.000057   0.000675   0.000110   0.000356   0.000549
    16  N   -0.410045   0.003861  -0.101311  -0.049666   0.143494   0.056005
    17  N    0.478157  -0.104681   0.032874  -0.101597  -0.342088  -0.049027
    18  C   -0.111209  -0.020314   0.483931  -0.010180   0.200952  -0.070550
    19  C    5.176754   0.540931   0.002767   0.278191  -0.040571  -0.010006
    20  O    0.540931   8.131712   0.000977  -0.118373  -0.007068  -0.001031
    21  O    0.002767   0.000977   8.234694   0.002168  -0.174467  -0.003853
    22  O    0.278191  -0.118373   0.002168   8.167545  -0.014694  -0.002819
    23  O   -0.040571  -0.007068  -0.174467  -0.014694   8.364572   0.156959
    24  C   -0.010006  -0.001031  -0.003853  -0.002819   0.156959   4.896776
    25  H   -0.000941   0.000037   0.005963   0.000222  -0.077305   0.419304
    26  H   -0.002285   0.000017  -0.005491  -0.000056  -0.021295   0.428909
    27  H    0.002739  -0.000042  -0.007698  -0.000069  -0.022710   0.415303
    28  C   -0.070346  -0.029990   0.000359   0.171105   0.000347  -0.000137
    29  H   -0.013840  -0.008810  -0.000008  -0.025515   0.000050   0.000005
    30  H   -0.015465  -0.004885  -0.000006  -0.029881  -0.000003  -0.000001
    31  H    0.014407   0.006105   0.000005  -0.067043   0.000001   0.000012
              25         26         27         28         29         30
     1  C    0.003245   0.000852  -0.006264   0.004302   0.005934  -0.007146
     2  C    0.000495   0.000491  -0.001799  -0.006176   0.004064   0.000957
     3  C   -0.000286   0.000248  -0.000791  -0.003867  -0.000409  -0.000378
     4  C   -0.003745  -0.004436   0.012905  -0.006640   0.000493  -0.001786
     5  H   -0.000008   0.000012  -0.000041   0.000037   0.000015  -0.000042
     6  H    0.000122  -0.000099   0.000785   0.000041   0.000001   0.000000
     7  C   -0.000070   0.000085  -0.000379  -0.014616  -0.006896   0.001606
     8  H    0.000000   0.000000   0.000000  -0.000435  -0.000004   0.000001
     9  H    0.000000   0.000000  -0.000001   0.002148  -0.000057   0.000019
    10  C    0.000481  -0.000548   0.001056   0.021351   0.005456   0.001189
    11  H    0.000000   0.000000   0.000000  -0.000214  -0.000002   0.000001
    12  C   -0.000360  -0.001675   0.006568   0.010763   0.001763  -0.000219
    13  H    0.000000   0.000000   0.000001   0.000014   0.000000   0.000000
    14  H    0.000000   0.000000   0.000000  -0.000209   0.000434   0.000017
    15  H    0.000001  -0.000001  -0.000001  -0.000006   0.000000   0.000000
    16  N   -0.016457   0.027361  -0.015080  -0.011826  -0.011213   0.006242
    17  N    0.024327  -0.031898   0.014224   0.019388   0.011253   0.002826
    18  C    0.016155  -0.012760  -0.024208  -0.007533   0.000667  -0.000339
    19  C   -0.000941  -0.002285   0.002739  -0.070346  -0.013840  -0.015465
    20  O    0.000037   0.000017  -0.000042  -0.029990  -0.008810  -0.004885
    21  O    0.005963  -0.005491  -0.007698   0.000359  -0.000008  -0.000006
    22  O    0.000222  -0.000056  -0.000069   0.171105  -0.025515  -0.029881
    23  O   -0.077305  -0.021295  -0.022710   0.000347   0.000050  -0.000003
    24  C    0.419304   0.428909   0.415303  -0.000137   0.000005  -0.000001
    25  H    0.523849  -0.021224  -0.026644   0.000064   0.000000   0.000000
    26  H   -0.021224   0.509355  -0.029851   0.000001   0.000000   0.000000
    27  H   -0.026644  -0.029851   0.531978  -0.000015   0.000000   0.000000
    28  C    0.000064   0.000001  -0.000015   4.907762   0.412633   0.427648
    29  H    0.000000   0.000000   0.000000   0.412633   0.517006  -0.028137
    30  H    0.000000   0.000000   0.000000   0.427648  -0.028137   0.496878
    31  H    0.000000   0.000000   0.000000   0.416223  -0.024295  -0.020435
              31
     1  C    0.007721
     2  C   -0.001382
     3  C    0.000370
     4  C    0.002422
     5  H    0.000077
     6  H    0.000000
     7  C    0.000072
     8  H    0.000000
     9  H   -0.000004
    10  C   -0.005893
    11  H   -0.000003
    12  C   -0.000887
    13  H    0.000000
    14  H   -0.000362
    15  H    0.000000
    16  N    0.005804
    17  N   -0.007468
    18  C    0.000057
    19  C    0.014407
    20  O    0.006105
    21  O    0.000005
    22  O   -0.067043
    23  O    0.000001
    24  C    0.000012
    25  H    0.000000
    26  H    0.000000
    27  H    0.000000
    28  C    0.416223
    29  H   -0.024295
    30  H   -0.020435
    31  H    0.515147
 Mulliken charges:
               1
     1  C   -0.192327
     2  C   -0.123096
     3  C   -0.122716
     4  C   -0.288842
     5  H    0.203405
     6  H    0.184523
     7  C   -0.283353
     8  H    0.144761
     9  H    0.197925
    10  C    0.007329
    11  H    0.199574
    12  C   -0.067576
    13  H    0.175878
    14  H    0.172486
    15  H    0.172429
    16  N   -0.163151
    17  N   -0.201417
    18  C    0.439957
    19  C    0.316483
    20  O   -0.368378
    21  O   -0.462529
    22  O   -0.229283
    23  O   -0.188777
    24  C   -0.238334
    25  H    0.152775
    26  H    0.164291
    27  H    0.150033
    28  C   -0.242175
    29  H    0.159412
    30  H    0.171340
    31  H    0.159349
 Sum of Mulliken charges =   0.00000
 Mulliken charges with hydrogens summed into heavy atoms:
               1
     1  C    0.011079
     2  C    0.049391
     3  C    0.049712
     4  C   -0.104318
     7  C    0.059333
    10  C    0.206903
    12  C    0.108302
    16  N   -0.163151
    17  N   -0.201417
    18  C    0.439957
    19  C    0.316483
    20  O   -0.368378
    21  O   -0.462529
    22  O   -0.229283
    23  O   -0.188777
    24  C    0.228765
    28  C    0.247926
 Electronic spatial extent (au):  <R**2>=           3712.1196
 Charge=              0.0000 electrons
 Dipole moment (field-independent basis, Debye):
    X=              4.4732    Y=              5.8522    Z=             -6.3494  Tot=              9.7249
 Quadrupole moment (field-independent basis, Debye-Ang):
   XX=            -88.7005   YY=            -87.3164   ZZ=           -104.0256
   XY=             -0.6887   XZ=              4.8956   YZ=              4.0648
 Traceless Quadrupole moment (field-independent basis, Debye-Ang):
   XX=              4.6470   YY=              6.0311   ZZ=            -10.6781
   XY=             -0.6887   XZ=              4.8956   YZ=              4.0648
 Octapole moment (field-independent basis, Debye-Ang**2):
  XXX=             37.0497  YYY=              4.2697  ZZZ=            -22.3579  XYY=              1.7985
  XXY=            -20.8189  XXZ=            -51.0343  XZZ=              9.0876  YZZ=             15.9902
  YYZ=            -17.4106  XYZ=             -0.4187
 Hexadecapole moment (field-independent basis, Debye-Ang**3):
 XXXX=          -2258.8002 YYYY=          -1654.6873 ZZZZ=           -594.2877 XXXY=            -43.1660
 XXXZ=             92.2193 YYYX=            -41.7843 YYYZ=             -8.6732 ZZZX=              7.1780
 ZZZY=             22.1101 XXYY=           -622.0687 XXZZ=           -519.6011 YYZZ=           -387.8324
 XXYZ=             45.7668 YYXZ=            -31.7867 ZZXY=             17.5503
 N-N= 1.311855153789D+03 E-N=-4.582625808535D+03  KE= 8.340798924308D+02
 1\1\GINC-D10S10B3\FTS\RwB97XD\Gen\C11H14N2O4\PMMASS\09-Feb-2022\0\\#n 
 wB97XD/Gen scrf(smd,solvent=toluene) opt=(calcfc,ts,noeigentest)\\ts c
 ycloaddition toluene - opt\\0,1\C,0.463848978,0.851586684,-0.832460927
 6\C,1.564070719,1.5618528744,0.0078997396\C,-0.4190050445,2.3908751801
 ,0.8033370383\C,-0.7822213262,1.6203089335,-0.4312840403\H,0.634701826
 5,0.5077477594,-1.8392242777\H,-1.7836934862,1.356833006,-0.7268526889
 \C,0.9019825166,1.8833703607,1.3374055217\H,1.4610975037,2.6471698936,
 1.8791375381\H,0.7743042286,1.0031564397,1.9651654146\C,1.1341234581,2
 .5431684663,-0.9592853799\H,1.6189491862,2.7522692305,-1.900143205\C,-
 0.1930350114,3.0375329842,-0.5294364429\H,-0.7083976698,3.8934106124,-
 0.9311720456\H,2.5549864023,1.1348317642,-0.0558077214\H,-1.2104842196
 ,2.7386638161,1.4479914599\N,-0.7157676794,-0.7892534495,0.9037706825\
 N,0.1178685665,-0.9135310669,-0.0762694506\C,-2.0538215858,-0.89957983
 2,0.5308539476\C,1.4158723629,-1.3163313424,0.3416070742\O,1.736373243
 9,-1.6795102328,1.4380377452\O,-2.9467498879,-0.7349500122,1.328431234
 4\O,2.2232158221,-1.34203792,-0.7239519845\O,-2.2754666035,-1.23992684
 12,-0.7519240575\C,-3.6390159371,-1.4039306061,-1.1146109658\H,-3.6358
 902908,-1.6730537995,-2.169247377\H,-4.1078285744,-2.1973577091,-0.531
 2243801\H,-4.2019771188,-0.4800627629,-0.9695762338\C,3.5376283226,-1.
 8352533632,-0.4871520623\H,4.044175698,-1.2563451884,0.2862600149\H,3.
 5072739682,-2.882592386,-0.1851103547\H,4.0646016318,-1.7372314929,-1.
 4334938153\\Version=ES64L-G09RevD.01\State=1-A\HF=-837.865238\RMSD=6.4
 88e-09\RMSF=1.221e-05\Dipole=1.5780464,2.3894503,-2.5375523\Quadrupole
 =3.490338,4.5289199,-8.0192579,-0.5448368,3.4799985,3.0444783\PG=C01 [
 X(C11H14N2O4)]\\@


 IF THERE IS ONE WAY BETTER THAN ANOTHER IT IS THE WAY OF NATURE.

                          -- ARISTOTLE
 Job cpu time:       3 days  4 hours 43 minutes  4.3 seconds.
 File lengths (MBytes):  RWF=   1905 Int=      0 D2E=      0 Chk=     38 Scr=      1
 Normal termination of Gaussian 09 at Wed Feb  9 22:31:18 2022.
