 Entering Gaussian System, Link 0=g09
 Input=ts_cyclo_ma_freq.com
 Output=ts_cyclo_ma_freq.log
 Initial command:
 /apps/applications/gaussian/G09.D01/2/default/g09/l1.exe "/nobackup/pmmass/Temp/Gau-194312.inp" -scrdir="/nobackup/pmmass/Temp/"
 Entering Link 1 = /apps/applications/gaussian/G09.D01/2/default/g09/l1.exe PID=    194313.
  
 Copyright (c) 1988,1990,1992,1993,1995,1998,2003,2009,2013,
            Gaussian, Inc.  All Rights Reserved.
  
 This is part of the Gaussian(R) 09 program.  It is based on
 the Gaussian(R) 03 system (copyright 2003, Gaussian, Inc.),
 the Gaussian(R) 98 system (copyright 1998, Gaussian, Inc.),
 the Gaussian(R) 94 system (copyright 1995, Gaussian, Inc.),
 the Gaussian 92(TM) system (copyright 1992, Gaussian, Inc.),
 the Gaussian 90(TM) system (copyright 1990, Gaussian, Inc.),
 the Gaussian 88(TM) system (copyright 1988, Gaussian, Inc.),
 the Gaussian 86(TM) system (copyright 1986, Carnegie Mellon
 University), and the Gaussian 82(TM) system (copyright 1983,
 Carnegie Mellon University). Gaussian is a federally registered
 trademark of Gaussian, Inc.
  
 This software contains proprietary and confidential information,
 including trade secrets, belonging to Gaussian, Inc.
  
 This software is provided under written license and may be
 used, copied, transmitted, or stored only in accord with that
 written license.
  
 The following legend is applicable only to US Government
 contracts under FAR:
  
                    RESTRICTED RIGHTS LEGEND
  
 Use, reproduction and disclosure by the US Government is
 subject to restrictions as set forth in subparagraphs (a)
 and (c) of the Commercial Computer Software - Restricted
 Rights clause in FAR 52.227-19.
  
 Gaussian, Inc.
 340 Quinnipiac St., Bldg. 40, Wallingford CT 06492
  
  
 ---------------------------------------------------------------
 Warning -- This program may not be used in any manner that
 competes with the business of Gaussian, Inc. or will provide
 assistance to any competitor of Gaussian, Inc.  The licensee
 of this program is prohibited from giving any competitor of
 Gaussian, Inc. access to this program.  By using this program,
 the user acknowledges that Gaussian, Inc. is engaged in the
 business of creating and licensing software in the field of
 computational chemistry and represents and warrants to the
 licensee that it is not a competitor of Gaussian, Inc. and that
 it will not use this program in any manner prohibited above.
 ---------------------------------------------------------------
  

 Cite this work as:
 Gaussian 09, Revision D.01,
 M. J. Frisch, G. W. Trucks, H. B. Schlegel, G. E. Scuseria, 
 M. A. Robb, J. R. Cheeseman, G. Scalmani, V. Barone, B. Mennucci, 
 G. A. Petersson, H. Nakatsuji, M. Caricato, X. Li, H. P. Hratchian, 
 A. F. Izmaylov, J. Bloino, G. Zheng, J. L. Sonnenberg, M. Hada, 
 M. Ehara, K. Toyota, R. Fukuda, J. Hasegawa, M. Ishida, T. Nakajima, 
 Y. Honda, O. Kitao, H. Nakai, T. Vreven, J. A. Montgomery, Jr., 
 J. E. Peralta, F. Ogliaro, M. Bearpark, J. J. Heyd, E. Brothers, 
 K. N. Kudin, V. N. Staroverov, T. Keith, R. Kobayashi, J. Normand, 
 K. Raghavachari, A. Rendell, J. C. Burant, S. S. Iyengar, J. Tomasi, 
 M. Cossi, N. Rega, J. M. Millam, M. Klene, J. E. Knox, J. B. Cross, 
 V. Bakken, C. Adamo, J. Jaramillo, R. Gomperts, R. E. Stratmann, 
 O. Yazyev, A. J. Austin, R. Cammi, C. Pomelli, J. W. Ochterski, 
 R. L. Martin, K. Morokuma, V. G. Zakrzewski, G. A. Voth, 
 P. Salvador, J. J. Dannenberg, S. Dapprich, A. D. Daniels, 
 O. Farkas, J. B. Foresman, J. V. Ortiz, J. Cioslowski, 
 and D. J. Fox, Gaussian, Inc., Wallingford CT, 2013.
 
 ******************************************
 Gaussian 09:  ES64L-G09RevD.01 24-Apr-2013
                11-Feb-2022 
 ******************************************
 %nprocshared=8
 Will use up to    8 processors via shared memory.
 %mem=4GB
 %NoSave
 %chk="ts_claisen_ma_freq.chk"
 --------------------------------------------
 #n wB97XD/Gen scrf(smd,solvent=toluene) freq
 --------------------------------------------
 1/10=4,30=1,38=1/1,3;
 2/12=2,17=6,18=5,40=1/2;
 3/5=7,11=2,16=1,25=1,30=1,70=32201,71=2,72=13,74=-58,140=1/1,2,3;
 4//1;
 5/5=2,38=5,53=13,98=1/2;
 8/6=4,10=90,11=11/1;
 11/6=1,8=1,9=11,15=111,16=1/1,2,10;
 10/6=1/2;
 6/7=2,8=2,9=2,10=2,18=1,28=1/1;
 7/8=1,10=1,25=1/1,2,3,16;
 1/10=4,30=1/3;
 99//99;
 -------------------------
 ts_claisen toluene - freq
 -------------------------
 Symbolic Z-matrix:
 Charge =  0 Multiplicity = 1
 C                     0.52385   0.79241  -0.84176 
 C                     1.68661   1.38669   0.00439 
 C                    -0.21261   2.36418   0.83509 
 C                    -0.64895   1.65569  -0.41296 
 H                     0.65774   0.45809  -1.85729 
 H                    -1.67131   1.48566  -0.70552 
 C                     1.06357   1.73351   1.34636 
 H                     1.6898    2.43419   1.89986 
 H                     0.86514   0.85347   1.95571 
 C                     1.33586   2.42285  -0.93721 
 H                     1.83043   2.61093  -1.87743 
 C                     0.05894   3.01914  -0.48507 
 H                    -0.38384   3.92486  -0.8634 
 H                     2.63679   0.87797  -0.0773 
 H                    -0.96695   2.76376   1.49409 
 N                    -0.78034  -0.78033   0.86819 
 N                     0.03289  -0.95328  -0.12156 
 C                    -2.12543  -0.76725   0.5046 
 C                     1.29437  -1.47506   0.27605 
 O                     1.58998  -1.88907   1.3614 
 O                    -2.99551  -0.54489   1.31334 
 O                     2.08929  -1.54565  -0.7968 
 O                    -2.38415  -1.05825  -0.78338 
 C                    -3.75917  -1.09668  -1.1377 
 H                    -3.78629  -1.34114  -2.19798 
 H                    -4.29033  -1.86007  -0.56783 
 H                    -4.23982  -0.13154  -0.9675 
 C                     3.35813  -2.15479  -0.58235 
 H                     3.9177   -1.63903   0.19916 
 H                     3.24011  -3.20226  -0.30314 
 H                     3.88513  -2.08084  -1.53086 
 

 GradGradGradGradGradGradGradGradGradGradGradGradGradGradGradGradGradGrad
 Berny optimization.
 Initialization pass.
 Trust Radius=3.00D-01 FncErr=1.00D-07 GrdErr=1.00D-07
 Number of steps in this run=      2 maximum allowed number of steps=      2.
 GradGradGradGradGradGradGradGradGradGradGradGradGradGradGradGradGradGrad

                          Input orientation:                          
 ---------------------------------------------------------------------
 Center     Atomic      Atomic             Coordinates (Angstroms)
 Number     Number       Type             X           Y           Z
 ---------------------------------------------------------------------
      1          6           0        0.523850    0.792410   -0.841760
      2          6           0        1.686610    1.386690    0.004390
      3          6           0       -0.212610    2.364180    0.835090
      4          6           0       -0.648950    1.655690   -0.412960
      5          1           0        0.657740    0.458090   -1.857290
      6          1           0       -1.671310    1.485660   -0.705520
      7          6           0        1.063570    1.733510    1.346360
      8          1           0        1.689800    2.434190    1.899860
      9          1           0        0.865140    0.853470    1.955710
     10          6           0        1.335860    2.422850   -0.937210
     11          1           0        1.830430    2.610930   -1.877430
     12          6           0        0.058940    3.019140   -0.485070
     13          1           0       -0.383840    3.924860   -0.863400
     14          1           0        2.636790    0.877970   -0.077300
     15          1           0       -0.966950    2.763760    1.494090
     16          7           0       -0.780340   -0.780330    0.868190
     17          7           0        0.032890   -0.953280   -0.121560
     18          6           0       -2.125430   -0.767250    0.504600
     19          6           0        1.294370   -1.475060    0.276050
     20          8           0        1.589980   -1.889070    1.361400
     21          8           0       -2.995510   -0.544890    1.313340
     22          8           0        2.089290   -1.545650   -0.796800
     23          8           0       -2.384150   -1.058250   -0.783380
     24          6           0       -3.759170   -1.096680   -1.137700
     25          1           0       -3.786290   -1.341140   -2.197980
     26          1           0       -4.290330   -1.860070   -0.567830
     27          1           0       -4.239820   -0.131540   -0.967500
     28          6           0        3.358130   -2.154790   -0.582350
     29          1           0        3.917700   -1.639030    0.199160
     30          1           0        3.240110   -3.202260   -0.303140
     31          1           0        3.885130   -2.080840   -1.530860
 ---------------------------------------------------------------------
                    Distance matrix (angstroms):
                    1          2          3          4          5
     1  C    0.000000
     2  C    1.556004   0.000000
     3  C    2.413433   2.291852   0.000000
     4  C    1.518085   2.387757   1.499993   0.000000
     5  H    1.077496   2.320932   3.411686   2.286433   0.000000
     6  H    2.306054   3.433569   2.296319   1.076904   2.794092
     7  C    2.442301   1.519653   1.512540   2.456418   3.471998
     8  H    3.401670   2.165658   2.181238   3.380081   4.368786
     9  H    2.818873   2.183297   2.167851   2.923461   3.839051
    10  C    1.823953   1.443352   2.354198   2.191539   2.273032
    11  H    2.467140   2.249599   3.404800   3.033889   2.451597
    12  C    2.302541   2.356645   1.498511   1.537954   2.966568
    13  H    3.261382   3.388529   2.312987   2.328586   3.753825
    14  H    2.248607   1.080885   3.340712   3.393170   2.694680
    15  H    3.400721   3.340196   1.078413   2.228404   4.380352
    16  N    2.664273   3.395286   3.195521   2.755504   3.321144
    17  N    1.951195   2.868120   3.461357   2.712295   2.322749
    18  C    3.356175   4.406962   3.684285   2.982038   3.850457
    19  C    2.642843   2.901252   4.162124   3.748710   2.948475
    20  O    3.630548   3.547029   4.649351   4.552635   4.091234
    21  O    4.338055   5.231310   4.054127   3.650891   4.940152
    22  O    2.814098   3.066378   4.821678   4.230115   2.681221
    23  O    3.447436   4.813460   4.364408   3.242468   3.564501
    24  C    4.690469   6.093276   5.333624   4.215953   4.737532
    25  H    4.996867   6.499548   5.974956   4.691502   4.806527
    26  H    5.503364   6.825884   6.036578   5.064010   5.614265
    27  H    4.854075   6.194527   5.069159   4.049204   5.012533
    28  C    4.097124   3.959839   5.931308   5.532191   3.967962
    29  H    4.302747   3.764396   5.787016   5.664288   4.387965
    30  H    4.860614   4.854524   6.648466   6.223867   4.741538
    31  H    4.475335   4.383406   6.492103   5.980739   4.119316
                    6          7          8          9         10
     6  H    0.000000
     7  C    3.428004   0.000000
     8  H    4.357152   1.090632   0.000000
     9  H    3.730333   1.088647   1.783777   0.000000
    10  C    3.158334   2.400838   2.859085   3.324683   0.000000
    11  H    3.860283   3.427938   3.784037   4.325900   1.078882
    12  C    2.322482   2.452807   2.947840   3.361174   1.480040
    13  H    2.762644   3.432208   3.762670   4.352099   2.284480
    14  H    4.395870   2.287745   2.688452   2.696752   2.195112
    15  H    2.639687   2.281721   2.707690   2.686793   3.366062
    16  N    2.899155   3.154052   4.183189   2.561173   4.242421
    17  N    3.032117   3.230469   4.278603   2.876115   3.709619
    18  C    2.597348   4.139092   5.172229   3.698103   4.923016
    19  C    4.304021   3.390244   4.251513   2.903024   4.082576
    20  O    5.128057   3.660658   4.357807   2.898297   4.892938
    21  O    3.154748   4.654925   5.583104   4.156040   5.712550
    22  O    4.831075   4.049460   4.823971   3.851056   4.041827
    23  O    2.643044   4.921025   5.999499   4.659954   5.097077
    24  C    3.348794   6.118770   7.168339   5.895465   6.195694
    25  H    3.832933   6.748108   7.812360   6.610995   6.480246
    26  H    4.251133   6.726231   7.764800   6.349049   7.080527
    27  H    3.046508   6.079334   7.068601   5.964564   6.133028
    28  C    6.209937   4.909563   5.477539   4.659010   5.017000
    29  H    6.466774   4.564663   4.944395   4.314643   4.945311
    30  H    6.801511   5.640922   6.247098   5.214579   5.972443
    31  H    6.653956   5.548771   6.080692   5.466872   5.209071
                   11         12         13         14         15
    11  H    0.000000
    12  C    2.289864   0.000000
    13  H    2.767248   1.076808   0.000000
    14  H    2.625611   3.375825   4.361846   0.000000
    15  H    4.383587   2.243823   2.691826   4.360323   0.000000
    16  N    5.084800   4.119669   5.029357   3.914165   3.603769
    17  N    4.360943   3.989103   4.951792   3.183666   4.174493
    18  C    5.721450   4.481927   5.188493   5.071893   3.845673
    19  C    4.649747   4.722650   5.768351   2.731977   4.956287
    20  O    5.549580   5.462972   6.530504   3.289708   5.310774
    21  O    6.590137   5.026555   5.615842   5.973375   3.885214
    22  O    4.302549   5.005677   6.003939   2.586768   5.758454
    23  O    5.694077   4.762645   5.370198   5.427461   4.669377
    24  C    6.748126   5.651890   6.056728   6.777315   5.442960
    25  H    6.875257   6.060684   6.410033   7.118826   6.199215
    26  H    7.692113   6.536795   6.986662   7.464749   6.056086
    27  H    6.722875   5.351529   5.597660   7.007092   5.015363
    28  C    5.169447   6.137073   7.144471   3.158012   6.870957
    29  H    5.170211   6.087425   7.112605   2.837684   6.702329
    30  H    6.185367   6.989904   8.015157   4.130772   7.518164
    31  H    5.133674   6.460898   7.398516   3.525017   7.494208
                   16         17         18         19         20
    16  N    0.000000
    17  N    1.292617   0.000000
    18  C    1.393426   2.255001   0.000000
    19  C    2.266650   1.421858   3.499752   0.000000
    20  O    2.662889   2.345081   3.974526   1.198655   0.000000
    21  O    2.271689   3.375933   1.208530   4.510461   4.778687
    22  O    3.404803   2.244021   4.479220   1.337119   2.241668
    23  O    2.318864   2.508208   1.345552   3.850666   4.591737
    24  C    3.605149   3.928463   2.339825   5.261191   5.957079
    25  H    4.330317   4.364412   3.223623   5.652598   6.470989
    26  H    3.943098   4.439781   2.651632   5.661205   6.188765
    27  H    3.969721   4.432485   2.653649   5.829127   6.519145
    28  C    4.595665   3.565554   5.759875   2.336234   2.641046
    29  H    4.822504   3.957886   6.113323   2.629574   2.613733
    30  H    4.837538   3.921370   5.947330   2.665443   2.686650
    31  H    5.404940   4.254089   6.480389   3.216198   3.697250
                   21         22         23         24         25
    21  O    0.000000
    22  O    5.595481   0.000000
    23  O    2.243554   4.499934   0.000000
    24  C    2.625880   5.875566   1.420458   0.000000
    25  H    3.686287   6.043804   2.011745   1.088435   0.000000
    26  H    2.635348   6.391466   2.079158   1.090709   1.783461
    27  H    2.630855   6.487409   2.082355   1.091553   1.784069
    28  C    6.823061   1.423726   5.849495   7.216922   7.369873
    29  H    7.087384   2.084164   6.404374   7.811253   8.073814
    30  H    6.968327   2.076642   6.038188   7.356621   7.511623
    31  H    7.602093   2.012539   6.395959   7.717413   7.735819
                   26         27         28         29         30
    26  H    0.000000
    27  H    1.774853   0.000000
    28  C    7.654150   7.872149   0.000000
    29  H    8.246750   8.377276   1.090818   0.000000
    30  H    7.653696   8.112956   1.090450   1.776266   0.000000
    31  H    8.234945   8.374483   1.087598   1.785840   1.783516
                   31
    31  H    0.000000
 Stoichiometry    C11H14N2O4
 Framework group  C1[X(C11H14N2O4)]
 Deg. of freedom    87
 Full point group                 C1      NOp   1
 Largest Abelian subgroup         C1      NOp   1
 Largest concise Abelian subgroup C1      NOp   1
                         Standard orientation:                         
 ---------------------------------------------------------------------
 Center     Atomic      Atomic             Coordinates (Angstroms)
 Number     Number       Type             X           Y           Z
 ---------------------------------------------------------------------
      1          6           0        0.523850    0.792410   -0.841761
      2          6           0        1.686610    1.386689    0.004389
      3          6           0       -0.212610    2.364180    0.835089
      4          6           0       -0.648950    1.655690   -0.412961
      5          1           0        0.657740    0.458089   -1.857291
      6          1           0       -1.671310    1.485660   -0.705521
      7          6           0        1.063570    1.733509    1.346359
      8          1           0        1.689800    2.434189    1.899859
      9          1           0        0.865140    0.853469    1.955709
     10          6           0        1.335860    2.422849   -0.937211
     11          1           0        1.830430    2.610929   -1.877431
     12          6           0        0.058940    3.019140   -0.485071
     13          1           0       -0.383839    3.924860   -0.863401
     14          1           0        2.636790    0.877969   -0.077301
     15          1           0       -0.966950    2.763760    1.494089
     16          7           0       -0.780341   -0.780330    0.868189
     17          7           0        0.032889   -0.953280   -0.121561
     18          6           0       -2.125431   -0.767250    0.504599
     19          6           0        1.294369   -1.475061    0.276049
     20          8           0        1.589979   -1.889071    1.361399
     21          8           0       -2.995511   -0.544889    1.313339
     22          8           0        2.089289   -1.545651   -0.796801
     23          8           0       -2.384151   -1.058250   -0.783381
     24          6           0       -3.759171   -1.096679   -1.137701
     25          1           0       -3.786291   -1.341139   -2.197981
     26          1           0       -4.290331   -1.860069   -0.567831
     27          1           0       -4.239820   -0.131539   -0.967501
     28          6           0        3.358129   -2.154791   -0.582351
     29          1           0        3.917699   -1.639031    0.199159
     30          1           0        3.240109   -3.202261   -0.303141
     31          1           0        3.885129   -2.080841   -1.530861
 ---------------------------------------------------------------------
 Rotational constants (GHZ):      0.5991382      0.4539488      0.3212727
 General basis read from cards:  (5D, 7F)
 There are   764 symmetry adapted cartesian basis functions of A   symmetry.
 There are   679 symmetry adapted basis functions of A   symmetry.
   679 basis functions,  1047 primitive gaussians,   764 cartesian basis functions
    63 alpha electrons       63 beta electrons
       nuclear repulsion energy      1311.8873540013 Hartrees.
 NAtoms=   31 NActive=   31 NUniq=   31 SFac= 1.00D+00 NAtFMM=   60 NAOKFM=F Big=F
 Integral buffers will be    131072 words long.
 Raffenetti 2 integral format.
 Two-electron integral symmetry is turned on.
 Nuclear repulsion after empirical dispersion term =     1311.8635447333 Hartrees.
 Force inversion solution in PCM.
 ------------------------------------------------------------------------------
 Polarizable Continuum Model (PCM)
 =================================
 Model                : PCM (using non-symmetric T matrix).
 Atomic radii         : SMD-Coulomb.
 Polarization charges : Total charges.
 Charge compensation  : None.
 Solution method      : Matrix inversion.
 Cavity type          : VdW (van der Waals Surface) (Alpha=1.000).
 Cavity algorithm     : GePol (No added spheres)
                        Default sphere list used, NSphG=   31.
                        Lebedev-Laikov grids with approx.  5.0 points / Ang**2.
                        Smoothing algorithm: Karplus/York (Gamma=1.0000).
                        Polarization charges: spherical gaussians, with
                                              point-specific exponents (IZeta= 3).
                        Self-potential: point-specific (ISelfS= 7).
                        Self-field    : sphere-specific E.n sum rule (ISelfD= 2).
 1st derivatives      : Analytical E(r).r(x)/FMM algorithm (CHGder, D1EAlg=3).
                        Cavity 1st derivative terms included.
 2nd derivatives      : Analytical E(r).r(xy)/FMM algorithm (CHGder, D2EAlg=3).
                        Cavity 2nd derivative terms included.
 Solvent              : Toluene, Eps=   2.374100 Eps(inf)=   2.238315
 ------------------------------------------------------------------------------
 ------------------------------------------------------------------------------
 Atomic radii for non-electrostatic terms: SMD-CDS.
 ------------------------------------------------------------------------------
 Nuclear repulsion after PCM non-electrostatic terms =     1311.8552467512 Hartrees.
 One-electron integrals computed using PRISM.
 NBasis=   679 RedAO= T EigKep=  1.33D-06  NBF=   679
 NBsUse=   676 1.00D-06 EigRej=  6.79D-07 NBFU=   676
 ExpMin= 3.17D-02 ExpMax= 2.70D+04 ExpMxC= 9.22D+02 IAcc=3 IRadAn=         5 AccDes= 0.00D+00
 Harris functional with IExCor= 4639 and IRadAn=       5 diagonalized for initial guess.
 HarFok:  IExCor= 4639 AccDes= 0.00D+00 IRadAn=         5 IDoV= 1 UseB2=F ITyADJ=14
 ICtDFT=  3500011 ScaDFX=  1.000000  1.000000  1.000000  1.000000
 FoFCou: FMM=F IPFlag=           0 FMFlag=      100000 FMFlg1=           0
         NFxFlg=           0 DoJE=T BraDBF=F KetDBF=T FulRan=T
         wScrn=  0.000000 ICntrl=     500 IOpCl=  0 I1Cent=   200000004 NGrid=           0
         NMat0=    1 NMatS0=      1 NMatT0=    0 NMatD0=    1 NMtDS0=    0 NMtDT0=    0
 Petite list used in FoFCou.
 Requested convergence on RMS density matrix=1.00D-08 within 128 cycles.
 Requested convergence on MAX density matrix=1.00D-06.
 Requested convergence on             energy=1.00D-06.
 No special actions if energy rises.
 Inv3:  Mode=1 IEnd=    15336363.
 Iteration    1 A*A^-1 deviation from unit magnitude is 5.66D-15 for    254.
 Iteration    1 A*A^-1 deviation from orthogonality  is 3.02D-15 for   2231   1608.
 Iteration    1 A^-1*A deviation from unit magnitude is 5.11D-15 for    267.
 Iteration    1 A^-1*A deviation from orthogonality  is 1.08D-14 for   1182   1056.
 Error on total polarization charges =  0.01964
 SCF Done:  E(RwB97XD) =  -837.865238018     A.U. after   19 cycles
            NFock= 19  Conv=0.25D-08     -V/T= 2.0045
 SMD-CDS (non-electrostatic) energy       (kcal/mol) =      -5.21
 (included in total energy above)
 DoSCS=F DFT=T ScalE2(SS,OS)=  1.000000  1.000000
 Range of M.O.s used for correlation:     1   676
 NBasis=   679 NAE=    63 NBE=    63 NFC=     0 NFV=     0
 NROrb=    676 NOA=    63 NOB=    63 NVA=   613 NVB=   613

 **** Warning!!: The largest alpha MO coefficient is  0.14233617D+03

 Symmetrizing basis deriv contribution to polar:
 IMax=3 JMax=2 DiffMx= 0.00D+00
 G2DrvN: will do    32 centers at a time, making    1 passes.
 Calling FoFCou, ICntrl=  3107 FMM=F I1Cent=   0 AccDes= 0.00D+00.
 NEqPCM:  Using equilibrium solvation (IEInf=0, Eps=   2.3741, EpsInf=   2.2383)
 G2PCM: DoFxE=T DoFxN=T DoGrad=T DoDP/DQ/DG/TGxP=FFFF NFrqRd=   0 IEInf=0 SqF1=F DoCFld=F IF1Alg=4.
 End of G2Drv F.D. properties file   721 does not exist.
 End of G2Drv F.D. properties file   722 does not exist.
 End of G2Drv F.D. properties file   788 does not exist.
          IDoAtm=1111111111111111111111111111111
 NEqPCM:  Using equilibrium solvation (IEInf=0, Eps=   2.3741, EpsInf=   2.2383)
          Differentiating once with respect to electric field.
                with respect to dipole field.
          Differentiating once with respect to nuclear coordinates.
          There are    96 degrees of freedom in the 1st order CPHF.  IDoFFX=6 NUNeed=     3.
     93 vectors produced by pass  0 Test12= 4.02D-14 1.04D-09 XBig12= 1.23D+02 7.01D+00.
 AX will form    93 AO Fock derivatives at one time.
     93 vectors produced by pass  1 Test12= 4.02D-14 1.04D-09 XBig12= 1.88D+01 4.93D-01.
     93 vectors produced by pass  2 Test12= 4.02D-14 1.04D-09 XBig12= 6.19D-01 1.09D-01.
     93 vectors produced by pass  3 Test12= 4.02D-14 1.04D-09 XBig12= 1.23D-02 1.32D-02.
     93 vectors produced by pass  4 Test12= 4.02D-14 1.04D-09 XBig12= 1.58D-04 1.14D-03.
     93 vectors produced by pass  5 Test12= 4.02D-14 1.04D-09 XBig12= 1.41D-06 1.01D-04.
     93 vectors produced by pass  6 Test12= 4.02D-14 1.04D-09 XBig12= 1.06D-08 6.13D-06.
     53 vectors produced by pass  7 Test12= 4.02D-14 1.04D-09 XBig12= 7.29D-11 5.35D-07.
     16 vectors produced by pass  8 Test12= 4.02D-14 1.04D-09 XBig12= 1.18D-12 1.22D-07.
     16 vectors produced by pass  9 Test12= 4.02D-14 1.04D-09 XBig12= 1.35D-13 3.77D-08.
     16 vectors produced by pass 10 Test12= 4.02D-14 1.04D-09 XBig12= 4.43D-15 9.06D-09.
     16 vectors produced by pass 11 Test12= 4.02D-14 1.04D-09 XBig12= 2.40D-15 3.55D-09.
     16 vectors produced by pass 12 Test12= 4.02D-14 1.04D-09 XBig12= 4.19D-15 6.28D-09.
     16 vectors produced by pass 13 Test12= 4.02D-14 1.04D-09 XBig12= 2.11D-14 1.39D-08.
     16 vectors produced by pass 14 Test12= 4.02D-14 1.04D-09 XBig12= 1.50D-14 9.57D-09.
     16 vectors produced by pass 15 Test12= 4.02D-14 1.04D-09 XBig12= 1.34D-14 8.95D-09.
     16 vectors produced by pass 16 Test12= 4.02D-14 1.04D-09 XBig12= 1.83D-14 1.06D-08.
     16 vectors produced by pass 17 Test12= 4.02D-14 1.04D-09 XBig12= 8.58D-15 6.89D-09.
     16 vectors produced by pass 18 Test12= 4.02D-14 1.04D-09 XBig12= 1.94D-14 1.06D-08.
     16 vectors produced by pass 19 Test12= 4.02D-14 1.04D-09 XBig12= 7.47D-15 9.94D-09.
     16 vectors produced by pass 20 Test12= 4.02D-14 1.04D-09 XBig12= 9.19D-15 6.94D-09.
     16 vectors produced by pass 21 Test12= 4.02D-14 1.04D-09 XBig12= 6.71D-15 5.66D-09.
     16 vectors produced by pass 22 Test12= 4.02D-14 1.04D-09 XBig12= 1.03D-14 8.46D-09.
     14 vectors produced by pass 23 Test12= 4.02D-14 1.04D-09 XBig12= 4.02D-15 4.59D-09.
     14 vectors produced by pass 24 Test12= 4.02D-14 1.04D-09 XBig12= 1.20D-14 7.26D-09.
     14 vectors produced by pass 25 Test12= 4.02D-14 1.04D-09 XBig12= 4.30D-15 4.48D-09.
     14 vectors produced by pass 26 Test12= 4.02D-14 1.04D-09 XBig12= 9.53D-15 7.78D-09.
     14 vectors produced by pass 27 Test12= 4.02D-14 1.04D-09 XBig12= 6.11D-15 5.03D-09.
     14 vectors produced by pass 28 Test12= 4.02D-14 1.04D-09 XBig12= 8.21D-15 6.28D-09.
     12 vectors produced by pass 29 Test12= 4.02D-14 1.04D-09 XBig12= 4.41D-15 4.05D-09.
     11 vectors produced by pass 30 Test12= 4.02D-14 1.04D-09 XBig12= 3.57D-15 3.75D-09.
     10 vectors produced by pass 31 Test12= 4.02D-14 1.04D-09 XBig12= 2.22D-15 2.81D-09.
     10 vectors produced by pass 32 Test12= 4.02D-14 1.04D-09 XBig12= 5.33D-15 5.23D-09.
     10 vectors produced by pass 33 Test12= 4.02D-14 1.04D-09 XBig12= 4.11D-15 4.03D-09.
     10 vectors produced by pass 34 Test12= 4.02D-14 1.04D-09 XBig12= 5.67D-15 4.77D-09.
     10 vectors produced by pass 35 Test12= 4.02D-14 1.04D-09 XBig12= 5.10D-15 4.85D-09.
     10 vectors produced by pass 36 Test12= 4.02D-14 1.04D-09 XBig12= 3.12D-15 3.55D-09.
     10 vectors produced by pass 37 Test12= 4.02D-14 1.04D-09 XBig12= 4.29D-15 3.64D-09.
     10 vectors produced by pass 38 Test12= 4.02D-14 1.04D-09 XBig12= 3.30D-15 3.64D-09.
     10 vectors produced by pass 39 Test12= 4.02D-14 1.04D-09 XBig12= 3.44D-15 3.60D-09.
     10 vectors produced by pass 40 Test12= 4.02D-14 1.04D-09 XBig12= 4.98D-15 4.61D-09.
      3 vectors produced by pass 41 Test12= 4.02D-14 1.04D-09 XBig12= 7.30D-16 1.69D-09.
      3 vectors produced by pass 42 Test12= 4.02D-14 1.04D-09 XBig12= 1.11D-15 2.19D-09.
      3 vectors produced by pass 43 Test12= 4.02D-14 1.04D-09 XBig12= 4.90D-16 1.23D-09.
      3 vectors produced by pass 44 Test12= 4.02D-14 1.04D-09 XBig12= 5.47D-16 1.59D-09.
      2 vectors produced by pass 45 Test12= 4.02D-14 1.04D-09 XBig12= 8.87D-16 1.84D-09.
 InvSVY:  IOpt=1 It=  1 EMax= 1.78D-14
 Solved reduced A of dimension  1165 with    96 vectors.
 Isotropic polarizability for W=    0.000000      209.05 Bohr**3.
 End of Minotr F.D. properties file   721 does not exist.
 End of Minotr F.D. properties file   722 does not exist.
 End of Minotr F.D. properties file   788 does not exist.

 **********************************************************************

            Population analysis using the SCF density.

 **********************************************************************

 Orbital symmetries:
       Occupied  (A) (A) (A) (A) (A) (A) (A) (A) (A) (A) (A) (A)
                 (A) (A) (A) (A) (A) (A) (A) (A) (A) (A) (A) (A)
                 (A) (A) (A) (A) (A) (A) (A) (A) (A) (A) (A) (A)
                 (A) (A) (A) (A) (A) (A) (A) (A) (A) (A) (A) (A)
                 (A) (A) (A) (A) (A) (A) (A) (A) (A) (A) (A) (A)
                 (A) (A) (A)
       Virtual   (A) (A) (A) (A) (A) (A) (A) (A) (A) (A) (A) (A)
                 (A) (A) (A) (A) (A) (A) (A) (A) (A) (A) (A) (A)
                 (A) (A) (A) (A) (A) (A) (A) (A) (A) (A) (A) (A)
                 (A) (A) (A) (A) (A) (A) (A) (A) (A) (A) (A) (A)
                 (A) (A) (A) (A) (A) (A) (A) (A) (A) (A) (A) (A)
                 (A) (A) (A) (A) (A) (A) (A) (A) (A) (A) (A) (A)
                 (A) (A) (A) (A) (A) (A) (A) (A) (A) (A) (A) (A)
                 (A) (A) (A) (A) (A) (A) (A) (A) (A) (A) (A) (A)
                 (A) (A) (A) (A) (A) (A) (A) (A) (A) (A) (A) (A)
                 (A) (A) (A) (A) (A) (A) (A) (A) (A) (A) (A) (A)
                 (A) (A) (A) (A) (A) (A) (A) (A) (A) (A) (A) (A)
                 (A) (A) (A) (A) (A) (A) (A) (A) (A) (A) (A) (A)
                 (A) (A) (A) (A) (A) (A) (A) (A) (A) (A) (A) (A)
                 (A) (A) (A) (A) (A) (A) (A) (A) (A) (A) (A) (A)
                 (A) (A) (A) (A) (A) (A) (A) (A) (A) (A) (A) (A)
                 (A) (A) (A) (A) (A) (A) (A) (A) (A) (A) (A) (A)
                 (A) (A) (A) (A) (A) (A) (A) (A) (A) (A) (A) (A)
                 (A) (A) (A) (A) (A) (A) (A) (A) (A) (A) (A) (A)
                 (A) (A) (A) (A) (A) (A) (A) (A) (A) (A) (A) (A)
                 (A) (A) (A) (A) (A) (A) (A) (A) (A) (A) (A) (A)
                 (A) (A) (A) (A) (A) (A) (A) (A) (A) (A) (A) (A)
                 (A) (A) (A) (A) (A) (A) (A) (A) (A) (A) (A) (A)
                 (A) (A) (A) (A) (A) (A) (A) (A) (A) (A) (A) (A)
                 (A) (A) (A) (A) (A) (A) (A) (A) (A) (A) (A) (A)
                 (A) (A) (A) (A) (A) (A) (A) (A) (A) (A) (A) (A)
                 (A) (A) (A) (A) (A) (A) (A) (A) (A) (A) (A) (A)
                 (A) (A) (A) (A) (A) (A) (A) (A) (A) (A) (A) (A)
                 (A) (A) (A) (A) (A) (A) (A) (A) (A) (A) (A) (A)
                 (A) (A) (A) (A) (A) (A) (A) (A) (A) (A) (A) (A)
                 (A) (A) (A) (A) (A) (A) (A) (A) (A) (A) (A) (A)
                 (A) (A) (A) (A) (A) (A) (A) (A) (A) (A) (A) (A)
                 (A) (A) (A) (A) (A) (A) (A) (A) (A) (A) (A) (A)
                 (A) (A) (A) (A) (A) (A) (A) (A) (A) (A) (A) (A)
                 (A) (A) (A) (A) (A) (A) (A) (A) (A) (A) (A) (A)
                 (A) (A) (A) (A) (A) (A) (A) (A) (A) (A) (A) (A)
                 (A) (A) (A) (A) (A) (A) (A) (A) (A) (A) (A) (A)
                 (A) (A) (A) (A) (A) (A) (A) (A) (A) (A) (A) (A)
                 (A) (A) (A) (A) (A) (A) (A) (A) (A) (A) (A) (A)
                 (A) (A) (A) (A) (A) (A) (A) (A) (A) (A) (A) (A)
                 (A) (A) (A) (A) (A) (A) (A) (A) (A) (A) (A) (A)
                 (A) (A) (A) (A) (A) (A) (A) (A) (A) (A) (A) (A)
                 (A) (A) (A) (A) (A) (A) (A) (A) (A) (A) (A) (A)
                 (A) (A) (A) (A) (A) (A) (A) (A) (A) (A) (A) (A)
                 (A) (A) (A) (A) (A) (A) (A) (A) (A) (A) (A) (A)
                 (A) (A) (A) (A) (A) (A) (A) (A) (A) (A) (A) (A)
                 (A) (A) (A) (A) (A) (A) (A) (A) (A) (A) (A) (A)
                 (A) (A) (A) (A) (A) (A) (A) (A) (A) (A) (A) (A)
                 (A) (A) (A) (A) (A) (A) (A) (A) (A) (A) (A) (A)
                 (A) (A) (A) (A) (A) (A) (A) (A) (A) (A) (A) (A)
                 (A) (A) (A) (A) (A) (A) (A) (A) (A) (A) (A) (A)
                 (A) (A) (A) (A) (A) (A) (A) (A) (A) (A) (A) (A)
                 (A)
 The electronic state is 1-A.
 Alpha  occ. eigenvalues --  -19.29841 -19.28072 -19.23402 -19.21032 -14.49090
 Alpha  occ. eigenvalues --  -14.44039 -10.42918 -10.40789 -10.35229 -10.34416
 Alpha  occ. eigenvalues --  -10.33479 -10.33259 -10.32289 -10.32181 -10.32029
 Alpha  occ. eigenvalues --  -10.31181 -10.29299  -1.22454  -1.20303  -1.13051
 Alpha  occ. eigenvalues --   -1.10363  -1.09640  -1.07736  -0.91099  -0.88753
 Alpha  occ. eigenvalues --   -0.85152  -0.82079  -0.79969  -0.78390  -0.69192
 Alpha  occ. eigenvalues --   -0.67803  -0.66760  -0.66291  -0.65030  -0.63933
 Alpha  occ. eigenvalues --   -0.62305  -0.59049  -0.58254  -0.56954  -0.56251
 Alpha  occ. eigenvalues --   -0.55471  -0.54712  -0.54092  -0.52582  -0.50598
 Alpha  occ. eigenvalues --   -0.50349  -0.50064  -0.48805  -0.47866  -0.47474
 Alpha  occ. eigenvalues --   -0.45686  -0.44860  -0.44264  -0.43425  -0.42946
 Alpha  occ. eigenvalues --   -0.39526  -0.39465  -0.38368  -0.37626  -0.37145
 Alpha  occ. eigenvalues --   -0.35566  -0.31592  -0.26644
 Alpha virt. eigenvalues --   -0.03926   0.03843   0.05216   0.05503   0.05940
 Alpha virt. eigenvalues --    0.06937   0.07364   0.07400   0.07852   0.08089
 Alpha virt. eigenvalues --    0.08865   0.09019   0.09604   0.09897   0.10040
 Alpha virt. eigenvalues --    0.10840   0.11100   0.11431   0.11931   0.12261
 Alpha virt. eigenvalues --    0.12667   0.13533   0.13657   0.13804   0.13871
 Alpha virt. eigenvalues --    0.14467   0.14734   0.15027   0.15401   0.15759
 Alpha virt. eigenvalues --    0.15891   0.16343   0.16865   0.17195   0.17428
 Alpha virt. eigenvalues --    0.17807   0.18014   0.18441   0.18765   0.18984
 Alpha virt. eigenvalues --    0.19481   0.19666   0.19875   0.20443   0.21074
 Alpha virt. eigenvalues --    0.21437   0.21742   0.22252   0.22484   0.22652
 Alpha virt. eigenvalues --    0.23236   0.23351   0.23730   0.24280   0.24307
 Alpha virt. eigenvalues --    0.24745   0.25330   0.25694   0.25879   0.26341
 Alpha virt. eigenvalues --    0.26530   0.27091   0.27340   0.27743   0.28516
 Alpha virt. eigenvalues --    0.28705   0.29198   0.29478   0.30031   0.30176
 Alpha virt. eigenvalues --    0.30611   0.30817   0.31240   0.31406   0.31755
 Alpha virt. eigenvalues --    0.32364   0.32733   0.33132   0.34018   0.34238
 Alpha virt. eigenvalues --    0.34536   0.34793   0.35056   0.35961   0.36296
 Alpha virt. eigenvalues --    0.36680   0.37431   0.38079   0.38584   0.38818
 Alpha virt. eigenvalues --    0.39894   0.40189   0.41893   0.41962   0.42410
 Alpha virt. eigenvalues --    0.43202   0.43483   0.43760   0.44843   0.45236
 Alpha virt. eigenvalues --    0.45509   0.46026   0.46259   0.47049   0.47792
 Alpha virt. eigenvalues --    0.48276   0.48774   0.49629   0.50095   0.50993
 Alpha virt. eigenvalues --    0.51376   0.51836   0.51924   0.52464   0.53674
 Alpha virt. eigenvalues --    0.53812   0.54243   0.54774   0.55494   0.55899
 Alpha virt. eigenvalues --    0.56398   0.56578   0.57270   0.57439   0.57854
 Alpha virt. eigenvalues --    0.58335   0.58505   0.59355   0.59859   0.60301
 Alpha virt. eigenvalues --    0.60754   0.61049   0.61179   0.61748   0.62018
 Alpha virt. eigenvalues --    0.62216   0.62494   0.62571   0.63749   0.64285
 Alpha virt. eigenvalues --    0.64419   0.64978   0.65251   0.65496   0.66567
 Alpha virt. eigenvalues --    0.66983   0.67648   0.68549   0.69182   0.70221
 Alpha virt. eigenvalues --    0.71249   0.71985   0.73770   0.74742   0.75432
 Alpha virt. eigenvalues --    0.75575   0.76090   0.77023   0.78255   0.79484
 Alpha virt. eigenvalues --    0.80070   0.81698   0.81941   0.83638   0.84130
 Alpha virt. eigenvalues --    0.84514   0.85581   0.85921   0.87176   0.87573
 Alpha virt. eigenvalues --    0.88039   0.88795   0.89806   0.90555   0.91013
 Alpha virt. eigenvalues --    0.92935   0.94204   0.95163   0.95243   0.95628
 Alpha virt. eigenvalues --    0.98224   0.98822   0.99169   1.01261   1.01665
 Alpha virt. eigenvalues --    1.02319   1.03037   1.04599   1.05066   1.06631
 Alpha virt. eigenvalues --    1.06918   1.08441   1.08769   1.11432   1.12620
 Alpha virt. eigenvalues --    1.12771   1.13676   1.14064   1.15236   1.15885
 Alpha virt. eigenvalues --    1.16136   1.18075   1.18431   1.18791   1.20552
 Alpha virt. eigenvalues --    1.21439   1.22028   1.23001   1.23836   1.24257
 Alpha virt. eigenvalues --    1.25787   1.25997   1.27620   1.28173   1.28998
 Alpha virt. eigenvalues --    1.30122   1.30492   1.32334   1.32650   1.34242
 Alpha virt. eigenvalues --    1.34713   1.35032   1.35927   1.36902   1.38195
 Alpha virt. eigenvalues --    1.39856   1.40720   1.41469   1.42300   1.43001
 Alpha virt. eigenvalues --    1.44830   1.45411   1.46026   1.47297   1.49662
 Alpha virt. eigenvalues --    1.50477   1.51759   1.53338   1.53895   1.55228
 Alpha virt. eigenvalues --    1.58483   1.60689   1.60980   1.61792   1.62190
 Alpha virt. eigenvalues --    1.63633   1.64468   1.65139   1.65217   1.65798
 Alpha virt. eigenvalues --    1.67145   1.67752   1.68634   1.69040   1.70275
 Alpha virt. eigenvalues --    1.70720   1.72199   1.73374   1.73959   1.75164
 Alpha virt. eigenvalues --    1.75508   1.78026   1.78753   1.80203   1.80492
 Alpha virt. eigenvalues --    1.82343   1.82958   1.84891   1.85653   1.86296
 Alpha virt. eigenvalues --    1.88445   1.89032   1.91352   1.91923   1.93243
 Alpha virt. eigenvalues --    1.95533   1.96648   1.97405   1.98529   1.99745
 Alpha virt. eigenvalues --    2.00287   2.01351   2.03475   2.04467   2.05443
 Alpha virt. eigenvalues --    2.05764   2.07685   2.09285   2.10190   2.11957
 Alpha virt. eigenvalues --    2.13330   2.13765   2.14250   2.15823   2.16284
 Alpha virt. eigenvalues --    2.16578   2.16929   2.19465   2.20144   2.20310
 Alpha virt. eigenvalues --    2.23341   2.24190   2.24740   2.24978   2.26639
 Alpha virt. eigenvalues --    2.27515   2.28522   2.28599   2.30429   2.30694
 Alpha virt. eigenvalues --    2.31875   2.32975   2.35619   2.36937   2.38501
 Alpha virt. eigenvalues --    2.39130   2.40762   2.42897   2.43579   2.43953
 Alpha virt. eigenvalues --    2.44629   2.45251   2.46864   2.47470   2.47776
 Alpha virt. eigenvalues --    2.48637   2.49872   2.50283   2.51042   2.51624
 Alpha virt. eigenvalues --    2.52398   2.53348   2.53729   2.54228   2.55201
 Alpha virt. eigenvalues --    2.56423   2.57528   2.58397   2.59263   2.60431
 Alpha virt. eigenvalues --    2.62479   2.62906   2.63655   2.64973   2.66357
 Alpha virt. eigenvalues --    2.67079   2.67635   2.68019   2.69818   2.71673
 Alpha virt. eigenvalues --    2.72447   2.72901   2.74554   2.75098   2.77051
 Alpha virt. eigenvalues --    2.77591   2.78494   2.80402   2.81222   2.82280
 Alpha virt. eigenvalues --    2.83175   2.84861   2.85996   2.86321   2.87578
 Alpha virt. eigenvalues --    2.88561   2.89719   2.90669   2.91769   2.92286
 Alpha virt. eigenvalues --    2.93541   2.93872   2.95443   2.96470   2.98045
 Alpha virt. eigenvalues --    2.98881   3.00728   3.01400   3.02824   3.04560
 Alpha virt. eigenvalues --    3.05179   3.06158   3.06291   3.08163   3.10016
 Alpha virt. eigenvalues --    3.10536   3.11373   3.13277   3.14049   3.14674
 Alpha virt. eigenvalues --    3.16137   3.17625   3.18499   3.19142   3.20955
 Alpha virt. eigenvalues --    3.21037   3.21816   3.22361   3.23565   3.24485
 Alpha virt. eigenvalues --    3.25426   3.26115   3.26989   3.27906   3.28346
 Alpha virt. eigenvalues --    3.29815   3.30048   3.30628   3.31505   3.32822
 Alpha virt. eigenvalues --    3.33436   3.34884   3.36129   3.36885   3.37409
 Alpha virt. eigenvalues --    3.38110   3.39335   3.40081   3.40537   3.40868
 Alpha virt. eigenvalues --    3.41924   3.42829   3.43806   3.45603   3.46783
 Alpha virt. eigenvalues --    3.47278   3.47475   3.49261   3.49978   3.50751
 Alpha virt. eigenvalues --    3.51567   3.51745   3.52999   3.54125   3.54766
 Alpha virt. eigenvalues --    3.56622   3.57647   3.58262   3.59424   3.60335
 Alpha virt. eigenvalues --    3.62320   3.63017   3.64269   3.65478   3.66631
 Alpha virt. eigenvalues --    3.66788   3.67679   3.67962   3.68580   3.69947
 Alpha virt. eigenvalues --    3.71782   3.72728   3.74843   3.75783   3.76975
 Alpha virt. eigenvalues --    3.78433   3.80740   3.82752   3.83531   3.86022
 Alpha virt. eigenvalues --    3.86884   3.88637   3.88937   3.94064   3.95142
 Alpha virt. eigenvalues --    3.97815   3.98505   4.01265   4.01983   4.03925
 Alpha virt. eigenvalues --    4.06802   4.08623   4.10277   4.11496   4.13577
 Alpha virt. eigenvalues --    4.14245   4.17178   4.17607   4.19991   4.22130
 Alpha virt. eigenvalues --    4.24632   4.25658   4.26896   4.27700   4.28878
 Alpha virt. eigenvalues --    4.29384   4.29873   4.32384   4.32971   4.33688
 Alpha virt. eigenvalues --    4.35840   4.38176   4.38955   4.40389   4.41500
 Alpha virt. eigenvalues --    4.42238   4.42799   4.45988   4.47579   4.49348
 Alpha virt. eigenvalues --    4.52060   4.52528   4.54486   4.55040   4.56037
 Alpha virt. eigenvalues --    4.56783   4.59788   4.61216   4.62025   4.64268
 Alpha virt. eigenvalues --    4.67122   4.68336   4.73669   4.75305   4.78166
 Alpha virt. eigenvalues --    4.79701   4.81637   4.83644   4.84495   4.88042
 Alpha virt. eigenvalues --    4.94979   4.97645   5.00334   5.02818   5.05563
 Alpha virt. eigenvalues --    5.08554   5.09282   5.10141   5.11502   5.12126
 Alpha virt. eigenvalues --    5.14750   5.15989   5.18287   5.19517   5.20654
 Alpha virt. eigenvalues --    5.22455   5.25278   5.26733   5.27066   5.29461
 Alpha virt. eigenvalues --    5.31933   5.33015   5.35384   5.38539   5.40097
 Alpha virt. eigenvalues --    5.43598   5.45547   5.49565   5.54682   5.57029
 Alpha virt. eigenvalues --    5.62490   5.64270   5.65641   5.72332   5.81193
 Alpha virt. eigenvalues --    5.81858   5.83124   5.84210   5.89007   5.94615
 Alpha virt. eigenvalues --    6.02230   6.07494   6.10255   6.13358   6.16264
 Alpha virt. eigenvalues --    6.23376   6.31666   6.34882   6.35783   6.41906
 Alpha virt. eigenvalues --    6.46411   6.48001   6.48499   6.56456   6.57343
 Alpha virt. eigenvalues --    6.65343   6.65997   6.77914   6.78777   6.87010
 Alpha virt. eigenvalues --    6.89461   6.90839   6.92027   7.01588   7.02535
 Alpha virt. eigenvalues --    7.04234   7.07668   7.12909   7.17897   7.21931
 Alpha virt. eigenvalues --    7.32445   7.33547   7.44718   7.47996   7.55907
 Alpha virt. eigenvalues --    7.58466  22.56386  22.59388  22.63531  22.71364
 Alpha virt. eigenvalues --   22.72310  22.77300  22.85252  22.96163  22.99270
 Alpha virt. eigenvalues --   23.58200  23.65555  32.57001  32.80702  44.20718
 Alpha virt. eigenvalues --   44.22254  44.33814  44.40948
          Condensed to atoms (all electrons):
               1          2          3          4          5          6
     1  C    6.157123   0.546398  -0.207263   0.205900   0.462993  -0.040164
     2  C    0.546398   5.701114  -0.319225   0.090636  -0.050431   0.006482
     3  C   -0.207263  -0.319225   5.406928   0.259239   0.014187  -0.042317
     4  C    0.205900   0.090636   0.259239   6.006207  -0.027352   0.452936
     5  H    0.462993  -0.050431   0.014187  -0.027352   0.456357  -0.003501
     6  H   -0.040164   0.006482  -0.042317   0.452936  -0.003501   0.458826
     7  C   -0.109174   0.303554   0.424041  -0.210107   0.004373  -0.010152
     8  H    0.027866  -0.022568  -0.028430   0.028493  -0.000055   0.000012
     9  H   -0.031057  -0.017557  -0.022291  -0.015077  -0.000125   0.000218
    10  C   -0.293861   0.015802  -0.093436  -0.473630  -0.044061   0.029305
    11  H   -0.012720  -0.017808   0.002113  -0.000958  -0.006572   0.000097
    12  C   -0.381083  -0.277164   0.249489   0.035731   0.001189  -0.025202
    13  H    0.012495   0.007251  -0.023375  -0.006873   0.000089  -0.002918
    14  H   -0.033699   0.406098   0.009631  -0.004809   0.000601  -0.000003
    15  H    0.006518   0.005322   0.439313  -0.019800   0.000007  -0.002634
    16  N    0.099950   0.242875  -0.181282  -0.149686  -0.023273   0.017534
    17  N   -0.282806  -0.421165   0.232445   0.108031   0.001387  -0.018460
    18  C    0.088681   0.048318  -0.031945  -0.011635   0.006136  -0.000813
    19  C   -0.068441  -0.149103   0.047452   0.064600   0.014089  -0.000760
    20  O   -0.007066   0.000751  -0.000111   0.007457  -0.002624   0.000575
    21  O    0.009950   0.002932   0.001210  -0.014054   0.000060  -0.003348
    22  O    0.007719   0.009721  -0.003636  -0.002643  -0.007045  -0.000282
    23  O    0.014328   0.008398  -0.000094  -0.019624   0.001205  -0.000887
    24  C    0.011097   0.005818  -0.004815  -0.013360  -0.001086   0.000082
    25  H    0.003245   0.000495  -0.000286  -0.003745  -0.000008   0.000122
    26  H    0.000852   0.000491   0.000248  -0.004436   0.000012  -0.000099
    27  H   -0.006264  -0.001799  -0.000791   0.012905  -0.000041   0.000785
    28  C    0.004303  -0.006176  -0.003867  -0.006640   0.000037   0.000041
    29  H    0.005934   0.004064  -0.000409   0.000493   0.000015   0.000001
    30  H   -0.007146   0.000957  -0.000378  -0.001786  -0.000042   0.000000
    31  H    0.007722  -0.001382   0.000370   0.002422   0.000077   0.000000
               7          8          9         10         11         12
     1  C   -0.109174   0.027866  -0.031057  -0.293861  -0.012720  -0.381083
     2  C    0.303554  -0.022568  -0.017557   0.015802  -0.017808  -0.277164
     3  C    0.424041  -0.028430  -0.022291  -0.093436   0.002113   0.249489
     4  C   -0.210107   0.028493  -0.015077  -0.473630  -0.000958   0.035731
     5  H    0.004373  -0.000055  -0.000125  -0.044061  -0.006572   0.001189
     6  H   -0.010152   0.000012   0.000218   0.029305   0.000097  -0.025202
     7  C    5.437276   0.408792   0.428186  -0.253572   0.005196  -0.229836
     8  H    0.408792   0.516536  -0.014634  -0.031904  -0.000135  -0.024686
     9  H    0.428186  -0.014634   0.451943   0.008460   0.000019   0.010528
    10  C   -0.253572  -0.031904   0.008460   6.188717   0.439573   0.555916
    11  H    0.005196  -0.000135   0.000019   0.439573   0.438377  -0.040724
    12  C   -0.229836  -0.024686   0.010528   0.555916  -0.040724   5.719163
    13  H    0.004768   0.000063   0.000024  -0.076421  -0.002754   0.447747
    14  H   -0.018505  -0.001256  -0.000866  -0.005005  -0.001588   0.008092
    15  H   -0.010350  -0.001780  -0.002522   0.004873   0.000079  -0.047834
    16  N   -0.072047  -0.003030   0.002275   0.144791   0.003065  -0.125976
    17  N    0.131141  -0.002709  -0.002971  -0.005853  -0.004278   0.226792
    18  C    0.006197  -0.000515   0.001588  -0.043646  -0.000619  -0.047595
    19  C    0.072586   0.004096   0.003634  -0.122804  -0.000540  -0.002169
    20  O   -0.015110   0.000965  -0.000696   0.000731   0.000107  -0.004864
    21  O    0.002722  -0.000012   0.000248  -0.005994   0.000004  -0.002759
    22  O   -0.001372   0.000764   0.000482   0.025515   0.000721  -0.005678
    23  O    0.004166  -0.000147   0.000292   0.005159  -0.000067   0.009640
    24  C    0.000780  -0.000050  -0.000133   0.000925   0.000054   0.002912
    25  H   -0.000070   0.000000   0.000000   0.000481   0.000000  -0.000360
    26  H    0.000085   0.000000   0.000000  -0.000548   0.000000  -0.001675
    27  H   -0.000379   0.000000  -0.000001   0.001056   0.000000   0.006568
    28  C   -0.014616  -0.000435   0.002148   0.021350  -0.000214   0.010762
    29  H   -0.006896  -0.000004  -0.000057   0.005456  -0.000002   0.001763
    30  H    0.001606   0.000001   0.000019   0.001189   0.000001  -0.000219
    31  H    0.000072   0.000000  -0.000004  -0.005893  -0.000003  -0.000887
              13         14         15         16         17         18
     1  C    0.012495  -0.033699   0.006518   0.099950  -0.282806   0.088681
     2  C    0.007251   0.406098   0.005322   0.242875  -0.421165   0.048318
     3  C   -0.023375   0.009631   0.439313  -0.181282   0.232445  -0.031945
     4  C   -0.006873  -0.004809  -0.019800  -0.149686   0.108031  -0.011635
     5  H    0.000089   0.000601   0.000007  -0.023273   0.001387   0.006136
     6  H   -0.002918  -0.000003  -0.002634   0.017534  -0.018460  -0.000813
     7  C    0.004768  -0.018505  -0.010350  -0.072047   0.131141   0.006197
     8  H    0.000063  -0.001256  -0.001780  -0.003030  -0.002709  -0.000515
     9  H    0.000024  -0.000866  -0.002522   0.002275  -0.002971   0.001588
    10  C   -0.076421  -0.005005   0.004873   0.144791  -0.005853  -0.043646
    11  H   -0.002754  -0.001588   0.000079   0.003065  -0.004278  -0.000619
    12  C    0.447747   0.008092  -0.047834  -0.125976   0.226792  -0.047595
    13  H    0.466351   0.000017  -0.003400  -0.004932   0.004549   0.001126
    14  H    0.000017   0.467292   0.000015   0.007396  -0.012786  -0.000934
    15  H   -0.003400   0.000015   0.462943   0.010540  -0.011083  -0.002675
    16  N   -0.004932   0.007396   0.010540   9.823655  -2.489547   0.233667
    17  N    0.004549  -0.012786  -0.011083  -2.489547   9.927062  -0.124634
    18  C    0.001126  -0.000934  -0.002675   0.233667  -0.124634   4.994674
    19  C    0.000496   0.002723  -0.001585  -0.410046   0.478159  -0.111207
    20  O   -0.000011  -0.000115  -0.000057   0.003863  -0.104681  -0.020313
    21  O    0.000063  -0.000073   0.000675  -0.101311   0.032876   0.483931
    22  O   -0.000032   0.005601   0.000110  -0.049662  -0.101593  -0.010180
    23  O   -0.000023  -0.000097   0.000356   0.143492  -0.342085   0.200954
    24  C   -0.000194  -0.000094   0.000549   0.056006  -0.049029  -0.070550
    25  H    0.000000   0.000000   0.000001  -0.016457   0.024327   0.016155
    26  H    0.000000   0.000000  -0.000001   0.027362  -0.031898  -0.012761
    27  H    0.000001   0.000000  -0.000001  -0.015081   0.014225  -0.024208
    28  C    0.000014  -0.000209  -0.000006  -0.011825   0.019388  -0.007533
    29  H    0.000000   0.000434   0.000000  -0.011214   0.011253   0.000667
    30  H    0.000000   0.000017   0.000000   0.006242   0.002827  -0.000339
    31  H    0.000000  -0.000362   0.000000   0.005804  -0.007468   0.000057
              19         20         21         22         23         24
     1  C   -0.068441  -0.007066   0.009950   0.007719   0.014328   0.011097
     2  C   -0.149103   0.000751   0.002932   0.009721   0.008398   0.005818
     3  C    0.047452  -0.000111   0.001210  -0.003636  -0.000094  -0.004815
     4  C    0.064600   0.007457  -0.014054  -0.002643  -0.019624  -0.013360
     5  H    0.014089  -0.002624   0.000060  -0.007045   0.001205  -0.001086
     6  H   -0.000760   0.000575  -0.003348  -0.000282  -0.000887   0.000082
     7  C    0.072586  -0.015110   0.002722  -0.001372   0.004166   0.000780
     8  H    0.004096   0.000965  -0.000012   0.000764  -0.000147  -0.000050
     9  H    0.003634  -0.000696   0.000248   0.000482   0.000292  -0.000133
    10  C   -0.122804   0.000731  -0.005994   0.025515   0.005159   0.000925
    11  H   -0.000540   0.000107   0.000004   0.000721  -0.000067   0.000054
    12  C   -0.002169  -0.004864  -0.002759  -0.005678   0.009640   0.002912
    13  H    0.000496  -0.000011   0.000063  -0.000032  -0.000023  -0.000194
    14  H    0.002723  -0.000115  -0.000073   0.005601  -0.000097  -0.000094
    15  H   -0.001585  -0.000057   0.000675   0.000110   0.000356   0.000549
    16  N   -0.410046   0.003863  -0.101311  -0.049662   0.143492   0.056006
    17  N    0.478159  -0.104681   0.032876  -0.101593  -0.342085  -0.049029
    18  C   -0.111207  -0.020313   0.483931  -0.010180   0.200954  -0.070550
    19  C    5.176758   0.540929   0.002767   0.278188  -0.040570  -0.010006
    20  O    0.540929   8.131711   0.000977  -0.118375  -0.007068  -0.001031
    21  O    0.002767   0.000977   8.234682   0.002168  -0.174465  -0.003853
    22  O    0.278188  -0.118375   0.002168   8.167547  -0.014693  -0.002819
    23  O   -0.040570  -0.007068  -0.174465  -0.014693   8.364572   0.156957
    24  C   -0.010006  -0.001031  -0.003853  -0.002819   0.156957   4.896774
    25  H   -0.000941   0.000037   0.005963   0.000222  -0.077305   0.419305
    26  H   -0.002285   0.000017  -0.005491  -0.000056  -0.021297   0.428910
    27  H    0.002739  -0.000042  -0.007698  -0.000069  -0.022711   0.415304
    28  C   -0.070346  -0.029989   0.000359   0.171103   0.000347  -0.000137
    29  H   -0.013840  -0.008809  -0.000008  -0.025516   0.000050   0.000005
    30  H   -0.015465  -0.004885  -0.000006  -0.029882  -0.000003  -0.000001
    31  H    0.014407   0.006105   0.000005  -0.067043   0.000001   0.000012
              25         26         27         28         29         30
     1  C    0.003245   0.000852  -0.006264   0.004303   0.005934  -0.007146
     2  C    0.000495   0.000491  -0.001799  -0.006176   0.004064   0.000957
     3  C   -0.000286   0.000248  -0.000791  -0.003867  -0.000409  -0.000378
     4  C   -0.003745  -0.004436   0.012905  -0.006640   0.000493  -0.001786
     5  H   -0.000008   0.000012  -0.000041   0.000037   0.000015  -0.000042
     6  H    0.000122  -0.000099   0.000785   0.000041   0.000001   0.000000
     7  C   -0.000070   0.000085  -0.000379  -0.014616  -0.006896   0.001606
     8  H    0.000000   0.000000   0.000000  -0.000435  -0.000004   0.000001
     9  H    0.000000   0.000000  -0.000001   0.002148  -0.000057   0.000019
    10  C    0.000481  -0.000548   0.001056   0.021350   0.005456   0.001189
    11  H    0.000000   0.000000   0.000000  -0.000214  -0.000002   0.000001
    12  C   -0.000360  -0.001675   0.006568   0.010762   0.001763  -0.000219
    13  H    0.000000   0.000000   0.000001   0.000014   0.000000   0.000000
    14  H    0.000000   0.000000   0.000000  -0.000209   0.000434   0.000017
    15  H    0.000001  -0.000001  -0.000001  -0.000006   0.000000   0.000000
    16  N   -0.016457   0.027362  -0.015081  -0.011825  -0.011214   0.006242
    17  N    0.024327  -0.031898   0.014225   0.019388   0.011253   0.002827
    18  C    0.016155  -0.012761  -0.024208  -0.007533   0.000667  -0.000339
    19  C   -0.000941  -0.002285   0.002739  -0.070346  -0.013840  -0.015465
    20  O    0.000037   0.000017  -0.000042  -0.029989  -0.008809  -0.004885
    21  O    0.005963  -0.005491  -0.007698   0.000359  -0.000008  -0.000006
    22  O    0.000222  -0.000056  -0.000069   0.171103  -0.025516  -0.029882
    23  O   -0.077305  -0.021297  -0.022711   0.000347   0.000050  -0.000003
    24  C    0.419305   0.428910   0.415304  -0.000137   0.000005  -0.000001
    25  H    0.523849  -0.021224  -0.026643   0.000064   0.000000   0.000000
    26  H   -0.021224   0.509357  -0.029852   0.000001   0.000000   0.000000
    27  H   -0.026643  -0.029852   0.531979  -0.000015   0.000000   0.000000
    28  C    0.000064   0.000001  -0.000015   4.907760   0.412634   0.427648
    29  H    0.000000   0.000000   0.000000   0.412634   0.517008  -0.028138
    30  H    0.000000   0.000000   0.000000   0.427648  -0.028138   0.496882
    31  H    0.000000   0.000000   0.000000   0.416223  -0.024295  -0.020436
              31
     1  C    0.007722
     2  C   -0.001382
     3  C    0.000370
     4  C    0.002422
     5  H    0.000077
     6  H    0.000000
     7  C    0.000072
     8  H    0.000000
     9  H   -0.000004
    10  C   -0.005893
    11  H   -0.000003
    12  C   -0.000887
    13  H    0.000000
    14  H   -0.000362
    15  H    0.000000
    16  N    0.005804
    17  N   -0.007468
    18  C    0.000057
    19  C    0.014407
    20  O    0.006105
    21  O    0.000005
    22  O   -0.067043
    23  O    0.000001
    24  C    0.000012
    25  H    0.000000
    26  H    0.000000
    27  H    0.000000
    28  C    0.416223
    29  H   -0.024295
    30  H   -0.020436
    31  H    0.515147
 Mulliken charges:
               1
     1  C   -0.192330
     2  C   -0.123097
     3  C   -0.122717
     4  C   -0.288835
     5  H    0.203405
     6  H    0.184524
     7  C   -0.283353
     8  H    0.144760
     9  H    0.197926
    10  C    0.007331
    11  H    0.199574
    12  C   -0.067580
    13  H    0.175879
    14  H    0.172486
    15  H    0.172428
    16  N   -0.163150
    17  N   -0.201415
    18  C    0.439952
    19  C    0.316484
    20  O   -0.368376
    21  O   -0.462520
    22  O   -0.229283
    23  O   -0.188779
    24  C   -0.238333
    25  H    0.152775
    26  H    0.164289
    27  H    0.150033
    28  C   -0.242175
    29  H    0.159411
    30  H    0.171338
    31  H    0.159348
 Sum of Mulliken charges =   0.00000
 Mulliken charges with hydrogens summed into heavy atoms:
               1
     1  C    0.011075
     2  C    0.049389
     3  C    0.049712
     4  C   -0.104311
     7  C    0.059334
    10  C    0.206904
    12  C    0.108299
    16  N   -0.163150
    17  N   -0.201415
    18  C    0.439952
    19  C    0.316484
    20  O   -0.368376
    21  O   -0.462520
    22  O   -0.229283
    23  O   -0.188779
    24  C    0.228764
    28  C    0.247923
 APT charges:
               1
     1  C   -1.090032
     2  C    0.347505
     3  C    0.036351
     4  C   -0.279605
     5  H    0.131503
     6  H    0.108022
     7  C    0.009764
     8  H    0.007700
     9  H    0.054945
    10  C    0.152426
    11  H    0.081288
    12  C    0.239538
    13  H    0.053560
    14  H    0.047212
    15  H    0.070204
    16  N   -0.842073
    17  N    0.366315
    18  C    1.726446
    19  C    1.486740
    20  O   -0.846157
    21  O   -1.026281
    22  O   -0.905873
    23  O   -0.981381
    24  C    0.579685
    25  H   -0.006338
    26  H   -0.022403
    27  H   -0.031451
    28  C    0.554461
    29  H   -0.017133
    30  H   -0.012624
    31  H    0.007689
 Sum of APT charges =   0.00000
 APT charges with hydrogens summed into heavy atoms:
               1
     1  C   -0.958529
     2  C    0.394717
     3  C    0.106554
     4  C   -0.171584
     7  C    0.072409
    10  C    0.233714
    12  C    0.293098
    16  N   -0.842073
    17  N    0.366315
    18  C    1.726446
    19  C    1.486740
    20  O   -0.846157
    21  O   -1.026281
    22  O   -0.905873
    23  O   -0.981381
    24  C    0.519492
    28  C    0.532393
 Electronic spatial extent (au):  <R**2>=           3712.1200
 Charge=              0.0000 electrons
 Dipole moment (field-independent basis, Debye):
    X=              4.4731    Y=              5.8523    Z=             -6.3494  Tot=              9.7248
 Quadrupole moment (field-independent basis, Debye-Ang):
   XX=            -88.7007   YY=            -87.3166   ZZ=           -104.0255
   XY=             -0.6886   XZ=              4.8954   YZ=              4.0646
 Traceless Quadrupole moment (field-independent basis, Debye-Ang):
   XX=              4.6469   YY=              6.0310   ZZ=            -10.6779
   XY=             -0.6886   XZ=              4.8954   YZ=              4.0646
 Octapole moment (field-independent basis, Debye-Ang**2):
  XXX=             37.0487  YYY=              4.2699  ZZZ=            -22.3577  XYY=              1.7980
  XXY=            -20.8183  XXZ=            -51.0334  XZZ=              9.0875  YZZ=             15.9900
  YYZ=            -17.4106  XYZ=             -0.4185
 Hexadecapole moment (field-independent basis, Debye-Ang**3):
 XXXX=          -2258.8050 YYYY=          -1654.6901 ZZZZ=           -594.2876 XXXY=            -43.1652
 XXXZ=             92.2166 YYYX=            -41.7836 YYYZ=             -8.6747 ZZZX=              7.1779
 ZZZY=             22.1093 XXYY=           -622.0705 XXZZ=           -519.6009 YYZZ=           -387.8324
 XXYZ=             45.7656 YYXZ=            -31.7867 ZZXY=             17.5502
 N-N= 1.311855246751D+03 E-N=-4.582625999002D+03  KE= 8.340799330563D+02
  Exact polarizability: 218.412  39.374 246.005 -18.992 -28.389 162.737
 Approx polarizability: 200.976  39.423 232.178 -26.860 -36.302 181.996
 D2PCM: PCM CHGder 2nd derivatives, FixD1E=F FixD2E=F DoIter=F DoCFld=F I1PDM=0
 Calling FoFJK, ICntrl=    100127 FMM=F ISym2X=0 I1Cent= 0 IOpClX= 0 NMat=1 NMatS=1 NMatT=0.
 Full mass-weighted force constant matrix:
 Low frequencies --- -635.4371  -12.4368    0.0006    0.0007    0.0010   12.8106
 Low frequencies ---   13.3565   49.9476   56.3384
 ******    1 imaginary frequencies (negative Signs) ****** 
 Diagonal vibrational polarizability:
       90.1809082     197.3473192      44.6696053
 Harmonic frequencies (cm**-1), IR intensities (KM/Mole), Raman scattering
 activities (A**4/AMU), depolarization ratios for plane and unpolarized
 incident light, reduced masses (AMU), force constants (mDyne/A),
 and normal coordinates:
                      1                      2                      3
                      A                      A                      A
 Frequencies --   -635.4337                49.4476                54.6891
 Red. masses --      9.6287                 4.9448                 4.6370
 Frc consts  --      2.2906                 0.0071                 0.0082
 IR Inten    --   2014.3684                 2.7827                 0.2297
  Atom  AN      X      Y      Z        X      Y      Z        X      Y      Z
     1   6     0.22   0.60  -0.25    -0.05  -0.06   0.00    -0.04   0.03   0.00
     2   6     0.04  -0.03   0.08    -0.03  -0.02  -0.04     0.06  -0.01  -0.12
     3   6     0.01   0.01   0.03    -0.02  -0.02  -0.02     0.17   0.01   0.11
     4   6    -0.04   0.11  -0.05    -0.04  -0.05   0.00     0.02   0.05   0.14
     5   1     0.06  -0.30   0.06    -0.06  -0.07   0.00    -0.15   0.05  -0.02
     6   1    -0.03  -0.12   0.08    -0.05  -0.06   0.03    -0.01   0.08   0.24
     7   6     0.01   0.00   0.03    -0.01   0.00  -0.03     0.21  -0.03  -0.04
     8   1     0.00   0.02   0.03     0.00   0.02  -0.06     0.29  -0.05  -0.09
     9   1     0.04   0.02   0.07     0.01   0.01  -0.01     0.26  -0.03  -0.04
    10   6    -0.04  -0.17  -0.10    -0.06  -0.05  -0.05    -0.02   0.02  -0.05
    11   1     0.15   0.04   0.06    -0.08  -0.07  -0.07    -0.11   0.02  -0.10
    12   6    -0.10   0.00   0.02    -0.05  -0.05  -0.05     0.05   0.04   0.09
    13   1     0.05   0.16   0.21    -0.07  -0.06  -0.06     0.03   0.05   0.16
    14   1     0.04  -0.02   0.11    -0.03  -0.02  -0.04     0.04  -0.03  -0.23
    15   1     0.02  -0.03   0.06    -0.01  -0.01  -0.02     0.25   0.02   0.19
    16   7     0.09  -0.10  -0.02     0.01  -0.08   0.03    -0.06   0.05  -0.02
    17   7    -0.19  -0.34   0.10     0.01  -0.06   0.02    -0.04   0.03   0.00
    18   6    -0.08   0.01  -0.05     0.01  -0.07   0.03    -0.05  -0.04  -0.04
    19   6     0.04  -0.02   0.04     0.04   0.01   0.04    -0.04   0.07   0.03
    20   8     0.03   0.01   0.03     0.09   0.14   0.07     0.01   0.21   0.07
    21   8     0.03   0.01   0.01     0.00  -0.24   0.06    -0.09  -0.14  -0.05
    22   8    -0.03   0.00   0.02     0.00  -0.07   0.01    -0.08  -0.06   0.00
    23   8     0.00   0.00   0.02     0.02   0.18  -0.03    -0.01   0.00  -0.06
    24   6    -0.01   0.00  -0.01     0.02   0.35  -0.07     0.00  -0.17  -0.07
    25   1     0.01   0.00  -0.01     0.03   0.55  -0.12     0.04  -0.17  -0.07
    26   1     0.00   0.00   0.00    -0.04   0.27  -0.23     0.09  -0.24  -0.08
    27   1     0.01   0.01  -0.01     0.09   0.35   0.10    -0.12  -0.23  -0.07
    28   6     0.00   0.00   0.00     0.03   0.01   0.03    -0.06  -0.02   0.03
    29   1    -0.01   0.02  -0.01     0.04   0.11  -0.05    -0.04   0.09  -0.06
    30   1     0.00   0.00   0.00     0.09   0.03   0.14    -0.03   0.02   0.17
    31   1    -0.03   0.02  -0.01    -0.01  -0.07   0.00    -0.10  -0.13   0.00
                      4                      5                      6
                      A                      A                      A
 Frequencies --     63.7611                83.5354                95.9003
 Red. masses --      5.7479                 4.8384                 3.6727
 Frc consts  --      0.0138                 0.0199                 0.0199
 IR Inten    --      1.6493                 1.2691                 2.6101
  Atom  AN      X      Y      Z        X      Y      Z        X      Y      Z
     1   6     0.06  -0.02   0.04     0.06   0.04   0.03     0.03  -0.04  -0.03
     2   6    -0.02  -0.02   0.15     0.02   0.01   0.11     0.03  -0.09   0.01
     3   6    -0.10  -0.03  -0.02     0.00   0.14  -0.09     0.04  -0.05  -0.02
     4   6     0.02  -0.01  -0.07     0.06   0.10  -0.09     0.05  -0.01  -0.05
     5   1     0.16   0.02   0.04     0.12   0.00   0.05     0.05  -0.02  -0.04
     6   1     0.05  -0.01  -0.18     0.07   0.12  -0.15     0.05   0.02  -0.08
     7   6    -0.15  -0.03   0.10    -0.08   0.10   0.04     0.00  -0.10   0.00
     8   1    -0.20  -0.03   0.16    -0.08   0.09   0.06     0.01  -0.14   0.04
     9   1    -0.21  -0.03   0.07    -0.17   0.13   0.06    -0.04  -0.11  -0.02
    10   6     0.08   0.00   0.14     0.14  -0.02   0.03     0.09  -0.06   0.03
    11   1     0.17   0.01   0.18     0.24  -0.08   0.06     0.12  -0.06   0.04
    12   6     0.03  -0.01   0.01     0.13   0.06  -0.11     0.10  -0.03   0.00
    13   1     0.07  -0.01  -0.02     0.21   0.07  -0.18     0.14  -0.01   0.01
    14   1    -0.01  -0.02   0.24     0.00  -0.04   0.21     0.02  -0.11   0.02
    15   1    -0.16  -0.03  -0.09    -0.03   0.22  -0.17     0.03  -0.04  -0.03
    16   7     0.01  -0.02  -0.03    -0.02   0.03   0.02    -0.03  -0.03  -0.07
    17   7     0.00   0.00  -0.05    -0.02   0.06   0.01    -0.03  -0.03  -0.08
    18   6     0.01   0.02  -0.02    -0.02  -0.07   0.03    -0.04  -0.01  -0.02
    19   6     0.04   0.06  -0.04    -0.03   0.01  -0.01    -0.02   0.01  -0.03
    20   8     0.16   0.34   0.03    -0.05  -0.05  -0.03    -0.04   0.06  -0.01
    21   8     0.03   0.10  -0.02    -0.03  -0.31   0.09     0.00  -0.01   0.03
    22   8    -0.08  -0.18  -0.11    -0.03   0.04  -0.01     0.02   0.04   0.00
    23   8    -0.02  -0.06   0.00    -0.01   0.10   0.00    -0.12   0.02  -0.01
    24   6    -0.02  -0.04   0.03    -0.02  -0.12   0.04    -0.15   0.00   0.10
    25   1    -0.05  -0.10   0.04    -0.01   0.00   0.02    -0.24   0.01   0.10
    26   1    -0.03   0.00   0.08     0.15  -0.29  -0.02    -0.10  -0.01   0.14
    27   1     0.00  -0.02  -0.02    -0.19  -0.23   0.17    -0.15  -0.01   0.15
    28   6    -0.05  -0.12  -0.11    -0.07  -0.05  -0.05     0.11   0.27   0.10
    29   1     0.03   0.07  -0.29    -0.05  -0.15   0.00     0.02   0.46   0.04
    30   1    -0.01  -0.05   0.15    -0.13  -0.07  -0.15     0.29   0.29   0.24
    31   1    -0.16  -0.33  -0.18    -0.05   0.00  -0.04     0.12   0.24   0.10
                      7                      8                      9
                      A                      A                      A
 Frequencies --    109.6396               153.9377               159.5009
 Red. masses --      4.1195                 3.8347                 1.3041
 Frc consts  --      0.0292                 0.0535                 0.0195
 IR Inten    --      1.8001                 8.1818                 1.3662
  Atom  AN      X      Y      Z        X      Y      Z        X      Y      Z
     1   6     0.05   0.06  -0.08     0.00  -0.02  -0.08     0.00  -0.01  -0.02
     2   6     0.01   0.09  -0.05    -0.02  -0.07  -0.02     0.00  -0.03  -0.01
     3   6    -0.05  -0.09   0.01    -0.05  -0.13  -0.01     0.00  -0.04   0.00
     4   6     0.01  -0.02  -0.04    -0.02  -0.05  -0.07     0.00  -0.01  -0.02
     5   1     0.08   0.11  -0.09     0.01  -0.07  -0.06     0.00  -0.02  -0.02
     6   1     0.02  -0.05  -0.08    -0.01  -0.04  -0.11     0.01   0.00  -0.03
     7   6    -0.01  -0.04  -0.03    -0.05  -0.14  -0.02     0.00  -0.05  -0.01
     8   1    -0.05  -0.04   0.02    -0.07  -0.16   0.02     0.00  -0.06   0.01
     9   1     0.04  -0.09  -0.09    -0.05  -0.17  -0.06    -0.01  -0.06  -0.02
    10   6    -0.05   0.14   0.02    -0.02  -0.04   0.01     0.01  -0.02   0.00
    11   1    -0.07   0.23   0.03    -0.02   0.01   0.03     0.01  -0.01   0.01
    12   6    -0.08   0.03   0.07    -0.03  -0.05   0.04     0.01  -0.01   0.01
    13   1    -0.14   0.03   0.13    -0.02  -0.02   0.09     0.03   0.00   0.03
    14   1     0.04   0.15  -0.09    -0.02  -0.06  -0.04     0.00  -0.04  -0.01
    15   1    -0.08  -0.19   0.04    -0.07  -0.19   0.00     0.00  -0.04   0.00
    16   7     0.05   0.04  -0.12     0.02   0.12   0.06    -0.01   0.01   0.00
    17   7     0.05   0.03  -0.12     0.00   0.02   0.07     0.00   0.00   0.01
    18   6     0.04   0.02  -0.04     0.02   0.13   0.03    -0.01  -0.01   0.00
    19   6     0.02   0.01  -0.03    -0.01   0.00   0.03     0.01   0.04   0.01
    20   8    -0.08   0.02   0.00     0.01  -0.02   0.02     0.02   0.07   0.02
    21   8     0.09  -0.07   0.05    -0.01   0.04   0.02    -0.01   0.00   0.00
    22   8     0.11  -0.04   0.04    -0.05   0.00   0.00     0.01   0.06   0.02
    23   8    -0.06   0.09  -0.03     0.09   0.25  -0.01    -0.01  -0.02   0.01
    24   6    -0.10  -0.02   0.12     0.11  -0.13  -0.02    -0.01   0.01   0.00
    25   1    -0.21   0.04   0.11     0.19   0.07  -0.07    -0.01   0.00   0.01
    26   1     0.03  -0.09   0.15     0.37  -0.44  -0.17    -0.04   0.04   0.01
    27   1    -0.17  -0.07   0.23    -0.22  -0.33   0.18     0.02   0.03  -0.02
    28   6     0.02  -0.21   0.16    -0.01   0.06  -0.05    -0.02  -0.02  -0.02
    29   1     0.02  -0.26   0.19     0.01   0.12  -0.09    -0.20  -0.41   0.36
    30   1    -0.15  -0.18   0.18     0.05   0.07   0.00    -0.09  -0.17  -0.59
    31   1     0.10  -0.31   0.20    -0.07   0.06  -0.08     0.17   0.45   0.12
                     10                     11                     12
                      A                      A                      A
 Frequencies --    175.8237               183.6626               196.2226
 Red. masses --      1.6950                 1.7483                 3.8025
 Frc consts  --      0.0309                 0.0347                 0.0863
 IR Inten    --      0.6725                 1.0386                 5.3672
  Atom  AN      X      Y      Z        X      Y      Z        X      Y      Z
     1   6    -0.01  -0.02   0.06    -0.01  -0.02   0.05     0.22  -0.03   0.03
     2   6     0.00   0.02   0.03    -0.01   0.01   0.02     0.13   0.16   0.00
     3   6     0.01   0.06   0.01     0.00   0.03   0.01    -0.02  -0.11  -0.02
     4   6    -0.01  -0.02   0.07    -0.01  -0.02   0.05     0.12  -0.15  -0.06
     5   1    -0.02   0.00   0.06    -0.02  -0.01   0.04     0.31  -0.06   0.05
     6   1    -0.01  -0.03   0.09    -0.01  -0.03   0.07     0.16  -0.27  -0.12
     7   6     0.02   0.09   0.02     0.01   0.06   0.02     0.08   0.09   0.00
     8   1     0.03   0.11  -0.03     0.01   0.08  -0.02    -0.04   0.21  -0.01
     9   1     0.03   0.11   0.07     0.02   0.08   0.05     0.22   0.07   0.02
    10   6    -0.02  -0.02  -0.01    -0.02  -0.02  -0.01     0.00   0.13   0.01
    11   1    -0.02  -0.05  -0.02    -0.02  -0.04  -0.01    -0.05   0.18   0.00
    12   6    -0.02  -0.01  -0.03    -0.02  -0.02  -0.02    -0.08  -0.04   0.00
    13   1    -0.04  -0.04  -0.08    -0.04  -0.04  -0.06    -0.20  -0.10   0.00
    14   1     0.00   0.03   0.04     0.00   0.02   0.03     0.20   0.28   0.01
    15   1     0.02   0.10   0.00     0.00   0.06   0.00    -0.10  -0.25  -0.04
    16   7    -0.01  -0.07  -0.02     0.00  -0.04  -0.01    -0.04   0.06   0.02
    17   7     0.01  -0.05  -0.02     0.01  -0.04  -0.01    -0.02   0.00   0.05
    18   6     0.00   0.01  -0.03     0.00   0.04  -0.03    -0.05   0.00   0.00
    19   6     0.02  -0.03  -0.01     0.01  -0.04   0.00    -0.04  -0.04   0.04
    20   8     0.03   0.00   0.00     0.03  -0.01   0.00    -0.01  -0.03   0.04
    21   8     0.01   0.07  -0.04     0.01   0.00  -0.01    -0.06  -0.04   0.00
    22   8     0.01  -0.04  -0.01     0.00  -0.06  -0.01    -0.10  -0.07   0.00
    23   8    -0.03   0.04  -0.04    -0.01   0.15  -0.05    -0.04  -0.03   0.01
    24   6    -0.05  -0.04   0.03    -0.02  -0.05   0.02    -0.04   0.03  -0.02
    25   1    -0.07   0.43  -0.08    -0.06  -0.59   0.15    -0.02   0.05  -0.02
    26   1     0.13  -0.40  -0.29     0.01   0.25   0.44    -0.08   0.04  -0.04
    27   1    -0.21  -0.21   0.49    -0.03   0.04  -0.45     0.00   0.04  -0.01
    28   6     0.03   0.00   0.00     0.03   0.01  -0.01    -0.03   0.09  -0.08
    29   1    -0.05  -0.09   0.12    -0.05  -0.04   0.09    -0.09   0.08  -0.03
    30   1     0.06  -0.05  -0.17     0.09  -0.03  -0.14     0.13   0.04  -0.19
    31   1     0.10   0.16   0.05     0.08   0.16   0.03    -0.04   0.26  -0.08
                     13                     14                     15
                      A                      A                      A
 Frequencies --    212.1007               274.0408               294.9729
 Red. masses --      3.5216                 4.6753                 6.1832
 Frc consts  --      0.0933                 0.2069                 0.3170
 IR Inten    --      6.5598                10.6850                11.5282
  Atom  AN      X      Y      Z        X      Y      Z        X      Y      Z
     1   6     0.04  -0.05   0.03    -0.06   0.03  -0.05    -0.02   0.06  -0.01
     2   6     0.04  -0.01   0.02    -0.04   0.02  -0.09    -0.03  -0.09   0.10
     3   6     0.01  -0.05   0.00    -0.01   0.03  -0.02     0.00   0.01   0.03
     4   6     0.03  -0.08   0.01    -0.02   0.14  -0.08    -0.06  -0.09   0.11
     5   1     0.05  -0.08   0.04    -0.07   0.05  -0.06    -0.07  -0.03   0.01
     6   1     0.03  -0.12   0.02    -0.02   0.22  -0.11    -0.07  -0.12   0.16
     7   6     0.03   0.01   0.01    -0.05  -0.09  -0.06    -0.01   0.04   0.08
     8   1     0.01   0.05  -0.01    -0.02  -0.20   0.05     0.03   0.10  -0.03
     9   1     0.07   0.02   0.05    -0.12  -0.15  -0.17     0.00   0.12   0.18
    10   6     0.00  -0.06  -0.01     0.03   0.13   0.02    -0.06  -0.20  -0.03
    11   1    -0.01  -0.07  -0.02     0.01   0.15   0.01     0.01  -0.22   0.01
    12   6    -0.01  -0.07  -0.02     0.05   0.12   0.04    -0.03  -0.10  -0.02
    13   1    -0.03  -0.09  -0.04     0.08   0.16   0.10    -0.01  -0.11  -0.07
    14   1     0.05   0.01   0.03    -0.05   0.00  -0.12    -0.06  -0.13   0.12
    15   1     0.00  -0.05  -0.01     0.01   0.02   0.01     0.01   0.07   0.01
    16   7    -0.04  -0.03  -0.01    -0.03  -0.05   0.03     0.07   0.40  -0.09
    17   7     0.01  -0.03   0.04     0.09   0.02   0.11     0.06   0.07  -0.01
    18   6    -0.04   0.00  -0.05     0.00  -0.03  -0.07     0.08   0.05  -0.12
    19   6     0.06   0.08   0.06     0.07  -0.07   0.16     0.00   0.02   0.03
    20   8     0.07   0.01   0.03     0.09  -0.10   0.14    -0.08  -0.02   0.04
    21   8    -0.04   0.02  -0.05    -0.05  -0.02  -0.13     0.04  -0.10  -0.12
    22   8     0.10   0.27   0.07    -0.01  -0.11   0.10    -0.03  -0.06   0.01
    23   8    -0.07   0.05  -0.05    -0.03  -0.02  -0.08     0.05  -0.10  -0.08
    24   6    -0.10  -0.01   0.03    -0.10   0.03   0.12    -0.02   0.07   0.16
    25   1    -0.15  -0.06   0.04    -0.28   0.03   0.12    -0.27   0.14   0.15
    26   1    -0.03   0.00   0.09    -0.03   0.05   0.20    -0.02   0.13   0.23
    27   1    -0.12  -0.02   0.01    -0.04   0.04   0.21     0.14   0.13   0.31
    28   6    -0.05  -0.08  -0.11     0.08   0.01  -0.15     0.02   0.03  -0.07
    29   1     0.32  -0.08  -0.38     0.16   0.02  -0.21     0.03   0.05  -0.10
    30   1    -0.30   0.02   0.15     0.25  -0.02  -0.20     0.12   0.01  -0.10
    31   1    -0.26  -0.45  -0.26    -0.09   0.14  -0.23    -0.04   0.09  -0.10
                     16                     17                     18
                      A                      A                      A
 Frequencies --    333.0942               340.8458               428.0016
 Red. masses --      4.9820                 5.9639                 5.0651
 Frc consts  --      0.3257                 0.4082                 0.5467
 IR Inten    --     16.5381                 6.7054                28.3406
  Atom  AN      X      Y      Z        X      Y      Z        X      Y      Z
     1   6     0.01   0.01  -0.01    -0.02   0.03  -0.02     0.02   0.02   0.03
     2   6     0.02   0.01   0.00    -0.03  -0.02   0.01     0.02   0.05   0.00
     3   6    -0.01  -0.03   0.00     0.00   0.03   0.01     0.03   0.06   0.00
     4   6     0.01   0.01  -0.03    -0.02   0.00   0.03     0.00  -0.03   0.07
     5   1     0.02  -0.07   0.02    -0.05   0.02  -0.02    -0.03   0.03   0.02
     6   1     0.01  -0.01  -0.04    -0.02   0.03   0.02    -0.01  -0.07   0.12
     7   6     0.01   0.00   0.00    -0.02  -0.01   0.01    -0.05  -0.10   0.00
     8   1    -0.01   0.02  -0.01     0.00  -0.02   0.01    -0.03  -0.32   0.25
     9   1     0.04  -0.01   0.01    -0.05   0.00   0.01    -0.24  -0.22  -0.23
    10   6    -0.01  -0.01  -0.01    -0.01  -0.02   0.00     0.00   0.02  -0.03
    11   1    -0.02  -0.02  -0.01     0.01  -0.01   0.01     0.02   0.00  -0.03
    12   6     0.00   0.00   0.01     0.01   0.01   0.01    -0.02  -0.03  -0.07
    13   1     0.01   0.02   0.04     0.01   0.00  -0.01    -0.07  -0.06  -0.11
    14   1     0.01   0.01  -0.01    -0.04  -0.04   0.01     0.03   0.06  -0.01
    15   1    -0.02  -0.05   0.00     0.00   0.04   0.01     0.06   0.12   0.00
    16   7    -0.03   0.03   0.11    -0.04   0.26  -0.04     0.04  -0.01  -0.07
    17   7    -0.01   0.03   0.12     0.05   0.02   0.04     0.09   0.04   0.04
    18   6    -0.02   0.00  -0.02    -0.13   0.07   0.04     0.08  -0.02  -0.09
    19   6     0.03   0.02  -0.08     0.11  -0.03   0.01    -0.01   0.01   0.10
    20   8     0.25  -0.07  -0.17     0.22  -0.09  -0.04     0.13  -0.08   0.03
    21   8    -0.16  -0.02  -0.16    -0.07   0.00   0.14     0.26   0.01   0.08
    22   8    -0.03   0.02  -0.13     0.12  -0.08  -0.02    -0.18   0.05   0.01
    23   8     0.05   0.00  -0.04    -0.21  -0.02   0.08    -0.06  -0.02  -0.09
    24   6    -0.01   0.03   0.15    -0.14  -0.04  -0.25    -0.08  -0.02  -0.10
    25   1    -0.18   0.04   0.15     0.16  -0.03  -0.26    -0.07  -0.02  -0.10
    26   1     0.05   0.06   0.23    -0.28  -0.06  -0.41    -0.08  -0.02  -0.10
    27   1     0.04   0.04   0.23    -0.19  -0.04  -0.38    -0.08  -0.01  -0.10
    28   6    -0.09  -0.01   0.23     0.15  -0.06   0.01    -0.24   0.08   0.08
    29   1    -0.29   0.03   0.35     0.12  -0.05   0.02    -0.30   0.09   0.12
    30   1    -0.20   0.02   0.31     0.18  -0.07   0.01    -0.26   0.09   0.12
    31   1     0.16  -0.12   0.36     0.16  -0.04   0.02    -0.16   0.05   0.13
                     19                     20                     21
                      A                      A                      A
 Frequencies --    436.6198               457.4696               539.0186
 Red. masses --      2.1720                 7.3707                 2.9916
 Frc consts  --      0.2440                 0.9088                 0.5121
 IR Inten    --      1.3896                43.0410                28.6650
  Atom  AN      X      Y      Z        X      Y      Z        X      Y      Z
[...]
 ,0.00014277,-0.00000046,-0.00000488,-0.00002783,-0.00003347,-0.0000166
 0,-0.00000857,-0.00002966,0.00000055,0.00001726,-0.00001781,-0.0013357
 4,0.00007255,-0.00029695,0.00064797,0.00031228,-0.00052972,0.00099323,
 0.00034623,0.00225987,0.00012302,-0.00018552,-0.00014436,-0.00010365,0
 .00008100,0.00000378,-0.00132463,-0.00012589,-0.00015940,-0.00011375,0
 .00007662,0.00006697,-0.00542777,-0.00199698,-0.00830889,-0.00092120,-
 0.06001472,-0.31221980,0.00622144,0.06661705,0.33487383,-0.00030277,-0
 .00057037,0.00023652,0.00009160,0.00017455,-0.00001204,0.00000567,-0.0
 0004659,-0.00002146,0.00016021,-0.00030287,0.00003087,0.00002137,0.000
 04247,-0.00004842,-0.00015405,0.00012743,-0.00012313,-0.00002764,-0.00
 000551,-0.00002421,-0.00000176,-0.00001872,-0.00001307,0.00000557,0.00
 001159,0.00000799,-0.00015667,0.00018458,0.00023118,-0.00000976,-0.000
 01041,-0.00003330,0.00025347,0.00013761,-0.00003871,-0.00001426,-0.000
 03405,-0.00003614,-0.00001576,-0.00000560,-0.00003226,-0.00001033,0.00
 001102,-0.00002961,-0.00155810,0.00082980,-0.00033902,0.00042391,0.000
 30167,-0.00089308,0.00083598,0.00082825,0.00957915,0.00028208,-0.00036
 948,-0.00012092,-0.00020848,0.00020947,-0.00010524,0.00154701,-0.00045
 098,-0.00228426,-0.00016841,0.00009719,0.00007171,-0.03435433,-0.02581
 686,0.00799266,-0.10190952,-0.08208548,0.06243694,0.00192624,0.0008325
 3,0.00050298,0.12491857,0.00008545,0.00012434,-0.00007695,-0.00001682,
 0.00001756,0.00000603,-0.00002749,0.00002412,0.00002223,0.00002177,0.0
 0008717,-0.00000313,0.00000618,-0.00000863,0.00000309,0.00012884,0.000
 05141,0.00005436,-0.00000398,-0.00001835,-0.00000147,-0.00000961,-0.00
 000183,-0.00000257,0.00000021,0.00000405,0.00000630,0.00007523,-0.0000
 5413,-0.00005317,0.00000808,0.00000895,0.00000894,-0.00008346,-0.00005
 332,0.00000257,0.00000873,0.00001205,0.00001037,-0.00000368,-0.0000021
 6,0.00000025,0.00000272,0.00000110,0.00001269,0.00013063,-0.00035322,-
 0.00036061,-0.00003224,-0.00008432,0.00002491,-0.00173651,0.00127777,0
 .00342154,0.00011896,-0.00003885,0.00001174,-0.00003975,0.00003189,-0.
 00004311,0.00203464,0.00003652,-0.00044140,-0.00003617,0.00000962,0.00
 001183,-0.00304197,0.00456310,-0.00473941,-0.08749349,-0.18678803,0.10
 336886,0.00501980,0.00706343,-0.00476248,0.09718766,0.19298249,-0.0000
 9213,-0.00017688,0.00004187,0.00001883,0.00006330,-0.00000100,0.000011
 50,-0.00001698,-0.00001327,-0.00000241,-0.00011051,0.00003827,-0.00001
 269,0.00000867,-0.00000669,0.00001797,-0.00000919,-0.00004608,-0.00000
 407,0.00000444,-0.00000256,0.00000568,-0.00000102,-0.00000074,-0.00000
 811,0.00000058,-0.00000106,-0.00002642,0.00006513,0.00006955,-0.000008
 60,-0.00000880,-0.00000989,0.00010013,0.00003610,-0.00001278,-0.000004
 51,-0.00001189,-0.00001530,-0.00000299,-0.00000278,-0.00000865,-0.0000
 0284,-0.00000513,-0.00000647,-0.00035616,0.00084439,-0.00004579,0.0001
 3075,0.00010843,-0.00030448,-0.00151049,-0.00125625,0.00223620,-0.0000
 0328,-0.00002537,-0.00002262,-0.00000747,-0.00000640,0.00001485,0.0000
 4635,-0.00027024,-0.00065680,0.00002423,-0.00001373,-0.00000697,-0.007
 14161,-0.01040287,0.00689793,0.06863817,0.10697090,-0.13013535,0.01295
 177,0.02222665,-0.01341740,-0.07026499,-0.11264861,0.13195923,-0.00057
 186,-0.00087247,0.00039623,0.00015129,0.00020094,-0.00004181,0.0000386
 7,-0.00007065,-0.00008522,0.00005132,-0.00033334,0.00001041,0.00001245
 ,0.00005824,-0.00006151,-0.00017737,0.00000702,-0.00010358,-0.00002564
 ,0.00003722,-0.00002905,0.00001024,-0.00001919,-0.00000146,0.00001507,
 0.00000082,0.00000969,-0.00025880,0.00025788,0.00034674,-0.00000692,-0
 .00001985,-0.00004710,0.00044871,0.00024750,-0.00000604,-0.00002077,-0
 .00005436,-0.00005965,-0.00001061,-0.00000428,-0.00003956,-0.00001886,
 -0.00000043,-0.00004429,-0.00215106,-0.00051553,0.00027864,0.00086397,
 0.00014555,-0.00128394,0.00138368,0.00318208,0.00914306,0.00010301,-0.
 00024422,-0.00017403,-0.00011601,0.00013439,-0.00004169,0.00149959,-0.
 00090725,-0.00216407,-0.00009124,0.00007115,0.00003209,-0.03227736,0.0
 2883344,-0.00448397,-0.09219933,0.09020793,0.01708394,0.00176148,-0.00
 046396,0.00090013,0.00836976,-0.01232041,-0.00249223,0.11317430,-0.000
 02988,-0.00001140,-0.00004015,-0.00000382,0.00003959,-0.00000313,0.000
 01221,0.00003241,-0.00001447,-0.00014626,0.00006406,-0.00003208,-0.000
 00308,-0.00001638,0.00001230,0.00020912,0.00002150,0.00008513,0.000000
 11,0.00000228,0.00000658,0.00000259,0.00000570,0.00000326,-0.00000186,
 -0.00000601,-0.00000655,0.00007240,-0.00002224,-0.00001382,0.00000429,
 -0.00000246,0.00000498,0.00001730,-0.00001511,0.00004302,0.00000194,0.
 00000163,-0.00000140,-0.00000404,-0.00000793,0.00000051,0.00000139,-0.
 00000261,0.00001032,-0.00001489,-0.00039267,0.00051227,-0.00021811,0.0
 0004005,0.00004083,0.00069300,0.00034331,-0.00348671,0.00000155,0.0000
 2099,0.00005194,0.00003345,-0.00001176,0.00000115,-0.00193994,0.000493
 96,0.00010376,0.00003116,-0.00000354,-0.00000822,0.00261175,0.00917354
 ,0.00336050,0.09655932,-0.26785091,-0.03906824,0.00090277,-0.00407133,
 -0.00001678,0.00877221,-0.01888506,-0.00536823,-0.10753898,0.28105741,
 -0.00003509,-0.00006762,0.00001747,0.00001466,0.00003911,0.00000004,-0
 .00003586,0.00000032,-0.00000125,0.00002241,-0.00002083,-0.00002083,0.
 00000775,-0.00000796,-0.00000454,0.00008955,-0.00000076,0.00014818,-0.
 00000540,-0.00000801,-0.00001533,-0.00000455,-0.00000019,-0.00000211,-
 0.00000307,0.00000135,0.00000277,0.00000704,0.00001214,0.00002624,0.00
 000759,-0.00000023,-0.00000111,0.00004080,0.00001134,-0.00001520,0.000
 00628,0.00000730,0.00000460,-0.00000541,-0.00000481,-0.00000640,-0.000
 01037,-0.00000988,-0.00000485,-0.00032223,-0.00055965,0.00007167,0.000
 04005,-0.00007905,-0.00022560,-0.00194268,0.00222597,0.00302946,0.0001
 0232,-0.00000506,-0.00001325,-0.00002408,0.00001460,-0.00002354,0.0009
 2651,-0.00032077,-0.00075828,-0.00000218,0.00000891,0.00000321,-0.0075
 8116,0.00940601,0.00008535,0.02012347,-0.04293683,-0.05912978,0.012297
 83,-0.02769253,-0.00229334,-0.00667218,0.01616733,0.00345595,-0.017042
 76,0.04382535,0.05567314,-0.00093421,-0.00160968,-0.00037279,0.0007360
 7,0.00061141,-0.00001524,0.00011088,0.00001393,-0.00026190,0.00014049,
 -0.00177532,0.00022950,-0.00015600,0.00068194,-0.00071577,0.00005669,0
 .00014679,-0.00025230,0.00003795,-0.00010958,-0.00003030,0.00001542,-0
 .00021209,-0.00011510,-0.00003833,0.00015741,0.00011127,-0.00042951,0.
 00055967,0.00050997,0.00010714,0.00004665,-0.00004194,0.00142178,0.000
 31241,0.00028624,-0.00002965,-0.00021888,-0.00024007,0.00080273,0.0006
 2553,0.00036092,-0.00001332,-0.00001570,-0.00008908,-0.00009960,0.0008
 8531,-0.00018310,0.00565638,-0.00102681,0.00167327,-0.00102494,-0.0006
 1668,0.00037757,-0.05337800,0.01509605,0.02820511,0.00107770,0.0013604
 1,-0.01721489,0.00080914,-0.00001782,-0.00029355,-0.17903047,0.0536216
 8,-0.01416945,0.00081445,0.00015995,0.00031093,-0.00047234,-0.00003225
 ,-0.00018651,0.00002177,0.00001007,0.00005216,0.00007970,0.00002214,-0
 .00000839,0.00006002,-0.00002857,0.00000289,0.49580479,0.00133715,0.00
 105254,-0.00056613,0.00019993,-0.00012664,0.00008161,-0.00010170,0.000
 04166,0.00021694,-0.00020593,0.00070263,-0.00002578,0.00009580,-0.0001
 8826,0.00002796,-0.00004074,-0.00007230,0.00013211,-0.00011505,0.00005
 863,-0.00010011,0.00000754,0.00005979,0.00003299,0.00005709,-0.0000485
 6,-0.00004543,0.00018709,-0.00051563,-0.00026005,-0.00002031,0.0000048
 2,0.00004243,-0.00076214,-0.00027173,-0.00015973,-0.00000800,0.0000797
 0,0.00009327,-0.00060277,-0.00058989,0.00006767,-0.00001056,0.00001227
 ,0.00003748,0.00021040,0.00049023,0.00020230,-0.00518940,0.00441001,0.
 00268233,0.00078011,0.00028632,-0.00001195,0.01450489,-0.00457564,-0.0
 1301936,-0.00374820,-0.00418371,0.00642954,-0.00044729,-0.00005306,0.0
 0010641,0.06253911,-0.09606553,0.01191861,-0.00040754,-0.00012898,-0.0
 0023337,0.00021564,0.00003534,0.00008129,-0.00001220,0.00000203,-0.000
 02998,-0.00004693,-0.00000982,0.00000943,-0.00002636,0.00000228,-0.000
 00621,0.05166140,0.57264635,-0.00034726,-0.00004749,-0.00017594,0.0002
 0262,-0.00009012,-0.00005689,-0.00004020,0.00001519,-0.00001592,-0.000
 00825,-0.00009246,0.00007094,-0.00002253,-0.00015091,0.00013140,-0.000
 00694,0.00003784,-0.00002471,-0.00000585,-0.00001279,-0.00006363,0.000
 00730,-0.00004854,-0.00001139,0.00005043,0.00002354,0.00000548,-0.0000
 9127,0.00007237,0.00010912,0.00000221,0.00004983,-0.00000042,0.0000843
 8,0.00006714,-0.00003525,-0.00001267,-0.00001051,-0.00002332,0.0001876
 4,-0.00025565,0.00019092,-0.00000696,0.00002288,-0.00001305,0.00159605
 ,-0.00020214,0.00080782,0.00233855,0.00119335,-0.00438996,0.00010544,-
 0.00028636,-0.00019764,0.03422172,-0.01650623,0.00657335,0.00233223,-0
 .00128906,-0.00203212,0.00028959,0.00004452,-0.00008888,-0.03927206,0.
 02290834,-0.09421676,0.00008513,0.00002131,0.00001754,-0.00003638,0.00
 000657,0.00000940,0.00000441,-0.00000073,0.00000270,0.00000698,0.00000
 009,-0.00000221,0.00000500,-0.00000252,-0.00000214,-0.03046924,0.00533
 935,0.62143581,0.00043712,0.00053881,-0.00018195,-0.00033586,-0.000209
 22,0.00001292,-0.00002977,-0.00001349,0.00005696,-0.00004446,0.0003340
 0,-0.00000238,0.00005254,-0.00013650,0.00010664,-0.00000803,-0.0000345
 2,0.00004349,0.00005129,0.00003198,0.00005207,-0.00000656,0.00002797,0
 .00002014,-0.00002079,-0.00001783,0.00000728,0.00015630,-0.00015758,-0
 .00025654,0.00000056,0.00000141,0.00003121,-0.00028889,-0.00015501,-0.
 00001252,0.00001834,0.00003838,0.00004871,-0.00006607,0.00016344,-0.00
 009365,0.00001967,-0.00000076,0.00002901,0.00038173,-0.00013223,-0.000
 04078,-0.00159779,0.00089985,0.00089993,-0.00002862,0.00011889,-0.0000
 8989,0.00371005,-0.00065860,-0.00961536,0.00087604,-0.00082973,0.00299
 769,-0.00004231,-0.00001478,0.00001149,-0.03264337,-0.00700393,-0.0198
 0032,-0.00004607,-0.00001365,0.00003364,0.00003775,0.00000609,0.000016
 71,0.00000079,-0.00000077,-0.00000284,-0.00000707,-0.00000295,0.000001
 67,-0.00000434,0.00000221,-0.00000058,-0.11078272,-0.06158803,-0.08919
 392,0.13022220,-0.00019664,-0.00031214,0.00016702,0.00020203,0.0002207
 4,-0.00008747,0.00000967,0.00000792,-0.00000320,0.00003233,-0.00023060
 ,-0.00000215,-0.00002973,0.00005420,-0.00003688,-0.00000087,0.00002210
 ,-0.00001906,-0.00006923,0.00003985,-0.00005821,0.00000635,-0.00001107
 ,-0.00000980,-0.00000446,0.00001408,-0.00000199,-0.00012149,0.00011346
 ,0.00022936,-0.00001193,-0.00002106,-0.00002638,0.00020059,0.00012512,
 -0.00000594,-0.00002320,-0.00001585,-0.00001719,0.00017173,-0.00020138
 ,0.00004157,-0.00001691,0.00000118,-0.00002114,-0.00028134,0.00001720,
 0.00013039,0.00085151,-0.00060120,-0.00026499,0.00005530,-0.00006440,0
 .00002461,-0.00138176,0.00174911,0.00049098,0.00117593,-0.00050887,-0.
 00019216,-0.00001892,0.00001496,0.00002820,0.01426583,0.00958365,0.014
 36395,0.00002280,0.00001965,0.00000349,-0.00000486,-0.00000390,-0.0000
 0676,0.00000186,-0.00000137,0.00000264,0.00000394,0.00000011,-0.000001
 69,0.00000071,0.00000198,0.00000088,-0.06701827,-0.12075042,-0.0984589
 5,0.06440035,0.12155860,0.00022118,0.00006579,-0.00003238,-0.00020881,
 0.00002428,-0.00004295,0.00001711,-0.00001101,-0.00000078,-0.00000640,
 0.00007548,0.00004128,0.00002338,-0.00006849,0.00004378,0.00000160,-0.
 00002185,0.00001640,0.00001883,-0.00000865,0.00006665,-0.00000560,0.00
 001341,0.00001306,0.00000493,-0.00000914,-0.00000624,0.00007204,-0.000
 01291,-0.00008656,-0.00002299,-0.00000216,-0.00000547,-0.00006863,-0.0
 0004073,-0.00002329,0.00000472,0.00001367,0.00001557,-0.00019889,0.000
 19762,0.00002036,0.00001247,-0.00000503,0.00001395,0.00026489,-0.00005
 634,-0.00005378,-0.00079491,-0.00028690,0.00005459,-0.00006122,0.00005
 069,-0.00008481,0.00283402,0.00030082,-0.00081175,0.00036480,-0.000248
 77,0.00055465,-0.00001967,-0.00000318,0.00001547,-0.00654113,0.0035164
 2,0.00017694,-0.00003807,0.00000166,0.00002543,0.00002470,-0.00000316,
 0.00000879,0.00000148,-0.00000167,-0.00000073,-0.00000357,-0.00000124,
 0.00000030,-0.00000382,0.00000405,0.00000125,-0.09574434,-0.09682069,-
 0.18914375,0.10786063,0.10296062,0.19893776,0.00002547,0.00025896,0.00
 015026,-0.00030310,-0.00014807,-0.00003079,-0.00000141,-0.00002458,0.0
 0001883,-0.00000002,0.00028661,-0.00005194,0.00002095,-0.00012387,0.00
 017145,-0.00000660,-0.00001734,0.00003183,0.00003066,0.00001702,0.0000
 2749,-0.00000783,0.00002564,0.00002293,-0.00000257,-0.00001819,-0.0000
 0567,0.00006268,-0.00002380,-0.00010082,-0.00002288,-0.00000046,0.0000
 0303,-0.00019528,-0.00002330,-0.00003425,0.00001094,0.00003813,0.00004
 084,-0.00011583,-0.00002164,-0.00001134,0.00000926,0.00000238,0.000015
 25,-0.00003137,-0.00026995,-0.00013429,-0.00077857,-0.00048318,-0.0002
 2963,0.00009678,0.00014866,0.00003397,0.00382869,0.00220955,-0.0061818
 9,-0.00020736,-0.00040584,0.00237702,-0.00011537,-0.00000578,0.0000243
 5,-0.01011089,0.04091208,-0.00727958,-0.00009181,-0.00003752,-0.000045
 95,0.00004756,0.00000664,0.00002351,-0.00000426,0.00000019,-0.00000724
 ,-0.00001183,-0.00000131,0.00000185,-0.00000609,0.00000006,-0.00000074
 ,-0.05574888,-0.04668009,0.01313516,-0.00017700,-0.01424178,0.00514187
 ,0.06427674,0.00014080,0.00001693,-0.00011334,-0.00005485,0.00011277,-
 0.00001181,0.00002084,-0.00000854,-0.00002555,-0.00001037,-0.00013560,
 0.00005103,-0.00002390,0.00008070,-0.00009901,0.00000764,-0.00000098,-
 0.00001754,0.00000237,-0.00002363,0.00003724,-0.00000073,-0.00001082,-
 0.00000888,-0.00001066,0.00000265,0.00001037,-0.00000304,0.00003463,-0
 .00001839,0.00000401,0.00001173,-0.00000232,0.00009939,0.00000108,0.00
 001765,0.00000098,-0.00001567,-0.00001641,0.00003381,0.00012794,0.0000
 2275,0.00000558,-0.00000743,-0.00000141,0.00034694,0.00003493,-0.00007
 328,0.00006555,-0.00036489,-0.00024042,-0.00025617,-0.00004586,-0.0000
 7954,-0.00232488,-0.00054295,0.00620606,-0.00114919,0.00130494,-0.0020
 4797,0.00015268,-0.00000393,-0.00004557,0.01252383,-0.01264878,0.00208
 768,0.00008772,0.00002776,0.00007802,-0.00005301,-0.00000935,-0.000018
 39,0.00000410,-0.00000094,0.00000784,0.00001091,0.00000213,-0.00000228
 ,0.00000602,0.,0.00000145,-0.03760556,-0.29798040,0.06422535,-0.003510
 23,-0.01297090,0.00451250,0.03263752,0.32202577,0.00004832,-0.00000203
 ,-0.00000735,-0.00008366,0.00001005,0.00001443,-0.00000710,-0.00000198
 ,0.00001079,0.00002378,0.00007129,0.00000834,0.00002995,-0.00001936,0.
 00002953,-0.00000279,-0.00000768,0.00001309,-0.00000975,0.00000588,0.0
 0002380,-0.00000263,0.00001645,0.00000582,0.00000208,-0.00001137,-0.00
 000768,0.00001126,-0.00004027,-0.00003226,-0.00000115,-0.00001255,0.00
 000038,-0.00004255,-0.00000203,-0.00001089,0.00000390,0.00001088,0.000
 01114,-0.00007971,0.00004039,-0.00005873,0.00000383,0.00000024,0.00000
 623,-0.00009128,0.00006403,-0.00005813,-0.00010041,0.00028945,0.000051
 21,0.00012244,0.00000852,0.00005488,0.00162804,-0.00178508,0.00056275,
 -0.00023336,0.00010962,-0.00007438,-0.00005901,0.00000237,-0.00000344,
 -0.00343013,0.00539614,-0.00026002,-0.00006615,-0.00002301,-0.00006838
 ,0.00002685,0.00000376,0.00001328,-0.00000455,0.00000182,-0.00000657,-
 0.00000624,-0.00000018,0.00000199,-0.00000384,-0.00000112,-0.00000153,
 0.01071941,0.06583332,-0.06678941,-0.00320280,-0.02273302,0.00655496,-
 0.00894638,-0.07388783,0.06474122,0.00028890,0.00038076,-0.00001417,-0
 .00006943,-0.00015296,-0.00000026,0.00000172,-0.00000551,0.00002622,-0
 .00006968,0.00028353,-0.00006632,-0.00000968,-0.00003086,0.00005975,-0
 .00000848,-0.00003256,0.00004242,0.00001663,-0.00000464,0.00001223,-0.
 00000029,0.00001864,0.00000651,0.00000051,-0.00001419,-0.00001066,0.00
 009555,-0.00012813,-0.00013770,0.00000100,0.00001655,0.00002159,-0.000
 26555,-0.00009189,-0.00002293,0.00001099,0.00003077,0.00003641,-0.0000
 2621,-0.00001925,0.00000622,0.00000337,-0.00000381,0.00001450,-0.00028
 199,-0.00001030,-0.00033673,-0.00142670,0.00010221,0.00169300,0.000081
 30,0.00019520,0.00009864,-0.00238282,0.00225517,-0.00582535,0.00137791
 ,-0.00056289,0.00088051,-0.00015004,-0.00002956,0.00001163,-0.02949030
 ,0.00382096,0.03110744,-0.00010918,-0.00003902,-0.00007195,0.00005053,
 0.00000573,0.00002599,-0.00000742,-0.00000096,-0.00000916,-0.00001040,
 -0.00000117,0.00000049,-0.00000730,0.00000060,-0.00000081,-0.10561513,
 -0.01178289,0.10485870,0.01016534,0.00202043,-0.01315060,-0.00047080,-
 0.00114811,0.00375365,0.12830765,-0.00016233,-0.00016025,0.00001576,0.
 00006388,0.00006336,0.00001919,-0.00002049,0.00000817,0.00000203,0.000
 03452,-0.00010977,0.00002313,0.00002073,0.00002871,-0.00000257,-0.0000
 0024,0.00001592,-0.00001292,-0.00002415,0.00000881,-0.00002322,0.00000
 219,-0.00000210,-0.00000383,-0.00000923,0.00000280,0.00000704,-0.00002
 898,0.00004848,0.00006547,0.00001563,-0.00002469,-0.00000167,0.0001115
 8,0.00003176,0.00001408,-0.00000538,-0.00001037,-0.00001392,0.00000078
 ,0.00004739,-0.00008358,-0.00000499,0.00000339,-0.00000693,0.00010473,
 0.00001448,0.00016531,0.00061723,0.00017415,-0.00090452,0.00008060,-0.
 00010562,0.00000463,0.00213435,-0.00123815,0.00253733,-0.00063094,0.00
 095208,-0.00040249,0.00002724,0.00001830,-0.00000627,0.01452903,-0.000
 93891,-0.01606277,0.00000488,0.00000356,-0.00002106,-0.00000404,0.0000
 0294,0.00000178,-0.00000025,0.00000159,-0.00000071,0.00000096,-0.00000
 010,0.00000082,0.00000040,-0.00000129,-0.00000169,-0.01568555,-0.05432
 403,0.02342678,0.00791646,0.00214925,-0.01413509,-0.01401675,0.0009867
 1,0.02666329,0.00492812,0.05235342,-0.00011621,-0.00017732,0.00003624,
 0.00005681,0.00005887,0.00001085,-0.00000520,0.00000848,-0.00000615,0.
 00002446,-0.00013867,0.00000842,0.00000499,0.00003407,-0.00003408,0.00
 000230,0.00001421,-0.00001754,-0.00000508,0.00001983,-0.00001954,-0.00
 000052,-0.00000477,-0.00000496,-0.00001999,0.00001014,0.00001332,-0.00
 003031,0.00005436,0.00005796,0.00001224,-0.00001183,0.00000044,0.00012
 283,0.00002693,0.00002889,-0.00000421,-0.00001494,-0.00001406,0.000028
 90,0.00005898,-0.00009025,-0.00000288,-0.00000020,-0.00000773,-0.00017
 906,0.00006087,0.00009786,0.00022241,0.00001696,0.00028605,-0.00006282
 ,-0.00005452,0.00004762,-0.00265151,0.00146481,-0.00118337,0.00176005,
 -0.00083433,0.00082929,0.00002319,0.00000126,-0.00000206,-0.00588149,-
 0.00024326,0.00899019,0.00006056,0.00001354,0.00002542,-0.00002932,0.0
 0000095,-0.00001356,0.00000164,0.00000121,0.00000405,0.00000487,0.0000
 0121,-0.00000003,0.00000367,-0.00000251,-0.00000023,0.11756472,0.01794
 378,-0.27207109,0.01026336,0.00350329,-0.01626871,0.00184087,-0.000548
 01,-0.00472509,-0.12300927,-0.02126341,0.28402186\\0.00000334,-0.00000
 422,0.00000855,0.00000429,-0.00000861,-0.00001642,0.00001001,0.0000082
 8,-0.00001362,0.00000344,0.00000398,-0.00001158,0.00000479,-0.00001398
 ,-0.00000422,0.00000884,0.00000466,-0.00001009,0.00000026,0.00000296,-
 0.00000989,0.00000921,0.00000745,-0.00001302,0.00000220,0.00000784,-0.
 00000258,0.00001909,-0.00001171,-0.00001159,0.00001359,-0.00002114,-0.
 00001219,0.00001443,0.00000211,-0.00002383,0.00001797,-0.00000341,-0.0
 0002656,0.00000069,-0.00001033,-0.00000056,0.00001124,0.00001588,-0.00
 001939,-0.00000189,0.00000966,0.00000387,-0.00000650,-0.00000026,0.000
 00926,-0.00000962,0.00001744,0.00001213,-0.00001270,0.00000098,0.00001
 564,-0.00001510,0.00000587,0.00001461,-0.00000173,0.00002508,-0.000000
 62,-0.00000280,-0.00002250,0.00001582,-0.00000958,0.00000565,-0.000001
 89,-0.00000421,0.00001473,0.00000349,-0.00000415,0.00000526,0.00000752
 ,-0.00000835,0.00002030,0.00000810,-0.00000108,0.00001423,-0.00000338,
 -0.00001905,-0.00001160,0.00000904,-0.00001025,-0.00002026,0.00001556,
 -0.00001190,-0.00001784,0.00003218,-0.00000449,-0.00002650,0.00002567\
 \\@



 WE LOSE BECAUSE WE WIN

 GAMBLERS,

 RECOLLECTING WHICH,

 TOSS THEIR DICE AGAIN....


                          EMILY DICKINSON  BOLTS OF MELODY NO. 533
 Job cpu time:       1 days 21 hours 22 minutes 34.4 seconds.
 File lengths (MBytes):  RWF=   1903 Int=      0 D2E=      0 Chk=     33 Scr=      1
 Normal termination of Gaussian 09 at Fri Feb 11 19:05:55 2022.
