 Entering Gaussian System, Link 0=g09
 Input=prod_claisen_freq.com
 Output=prod_claisen_freq.log
 Initial command:
 /apps/applications/gaussian/G09.D01/2/default/g09/l1.exe "/nobackup/pmmass/Temp/Gau-185573.inp" -scrdir="/nobackup/pmmass/Temp/"
 Entering Link 1 = /apps/applications/gaussian/G09.D01/2/default/g09/l1.exe PID=    185574.
  
 Copyright (c) 1988,1990,1992,1993,1995,1998,2003,2009,2013,
            Gaussian, Inc.  All Rights Reserved.
  
 This is part of the Gaussian(R) 09 program.  It is based on
 the Gaussian(R) 03 system (copyright 2003, Gaussian, Inc.),
 the Gaussian(R) 98 system (copyright 1998, Gaussian, Inc.),
 the Gaussian(R) 94 system (copyright 1995, Gaussian, Inc.),
 the Gaussian 92(TM) system (copyright 1992, Gaussian, Inc.),
 the Gaussian 90(TM) system (copyright 1990, Gaussian, Inc.),
 the Gaussian 88(TM) system (copyright 1988, Gaussian, Inc.),
 the Gaussian 86(TM) system (copyright 1986, Carnegie Mellon
 University), and the Gaussian 82(TM) system (copyright 1983,
 Carnegie Mellon University). Gaussian is a federally registered
 trademark of Gaussian, Inc.
  
 This software contains proprietary and confidential information,
 including trade secrets, belonging to Gaussian, Inc.
  
 This software is provided under written license and may be
 used, copied, transmitted, or stored only in accord with that
 written license.
  
 The following legend is applicable only to US Government
 contracts under FAR:
  
                    RESTRICTED RIGHTS LEGEND
  
 Use, reproduction and disclosure by the US Government is
 subject to restrictions as set forth in subparagraphs (a)
 and (c) of the Commercial Computer Software - Restricted
 Rights clause in FAR 52.227-19.
  
 Gaussian, Inc.
 340 Quinnipiac St., Bldg. 40, Wallingford CT 06492
  
  
 ---------------------------------------------------------------
 Warning -- This program may not be used in any manner that
 competes with the business of Gaussian, Inc. or will provide
 assistance to any competitor of Gaussian, Inc.  The licensee
 of this program is prohibited from giving any competitor of
 Gaussian, Inc. access to this program.  By using this program,
 the user acknowledges that Gaussian, Inc. is engaged in the
 business of creating and licensing software in the field of
 computational chemistry and represents and warrants to the
 licensee that it is not a competitor of Gaussian, Inc. and that
 it will not use this program in any manner prohibited above.
 ---------------------------------------------------------------
  

 Cite this work as:
 Gaussian 09, Revision D.01,
 M. J. Frisch, G. W. Trucks, H. B. Schlegel, G. E. Scuseria, 
 M. A. Robb, J. R. Cheeseman, G. Scalmani, V. Barone, B. Mennucci, 
 G. A. Petersson, H. Nakatsuji, M. Caricato, X. Li, H. P. Hratchian, 
 A. F. Izmaylov, J. Bloino, G. Zheng, J. L. Sonnenberg, M. Hada, 
 M. Ehara, K. Toyota, R. Fukuda, J. Hasegawa, M. Ishida, T. Nakajima, 
 Y. Honda, O. Kitao, H. Nakai, T. Vreven, J. A. Montgomery, Jr., 
 J. E. Peralta, F. Ogliaro, M. Bearpark, J. J. Heyd, E. Brothers, 
 K. N. Kudin, V. N. Staroverov, T. Keith, R. Kobayashi, J. Normand, 
 K. Raghavachari, A. Rendell, J. C. Burant, S. S. Iyengar, J. Tomasi, 
 M. Cossi, N. Rega, J. M. Millam, M. Klene, J. E. Knox, J. B. Cross, 
 V. Bakken, C. Adamo, J. Jaramillo, R. Gomperts, R. E. Stratmann, 
 O. Yazyev, A. J. Austin, R. Cammi, C. Pomelli, J. W. Ochterski, 
 R. L. Martin, K. Morokuma, V. G. Zakrzewski, G. A. Voth, 
 P. Salvador, J. J. Dannenberg, S. Dapprich, A. D. Daniels, 
 O. Farkas, J. B. Foresman, J. V. Ortiz, J. Cioslowski, 
 and D. J. Fox, Gaussian, Inc., Wallingford CT, 2013.
 
 ******************************************
 Gaussian 09:  ES64L-G09RevD.01 24-Apr-2013
                 4-Feb-2022 
 ******************************************
 %nprocshared=8
 Will use up to    8 processors via shared memory.
 %mem=4GB
 %NoSave
 %chk="prod_claisen_freq.chk"
 -------------------------------------------------
 #n wB97XD/Def2TZVP scrf(smd,solvent=toluene) freq
 -------------------------------------------------
 1/10=4,30=1,38=1/1,3;
 2/12=2,17=6,18=5,40=1/2;
 3/5=44,7=101,11=2,16=1,25=1,30=1,70=32201,71=2,72=13,74=-58,140=1/1,2,3;
 4//1;
 5/5=2,38=5,53=13,98=1/2;
 8/6=4,10=90,11=11/1;
 11/6=1,8=1,9=11,15=111,16=1/1,2,10;
 10/6=1/2;
 6/7=2,8=2,9=2,10=2,18=1,28=1/1;
 7/8=1,10=1,25=1/1,2,3,16;
 1/10=4,30=1/3;
 99//99;
 ----------------------------------
 clasisen product in toluene - freq
 ----------------------------------
 Symbolic Z-matrix:
 Charge =  0 Multiplicity = 1
 C                     4.31481  -0.30727   0.37774 
 C                     3.35331   0.67176   0.19877 
 C                     2.02487   0.32667  -0.03519 
 C                     1.68219  -1.03465  -0.0908 
 C                     2.65983  -2.00768   0.08499 
 C                     3.97323  -1.65148   0.32272 
 H                     5.34189  -0.0167    0.56032 
 H                     3.63793   1.71346   0.24049 
 H                     2.3653   -3.0476    0.02997 
 H                     4.72887  -2.41373   0.46187 
 C                     0.28473  -1.46131  -0.35083 
 C                     0.96604   1.32342  -0.23629 
 C                    -0.80023  -0.40492  -0.36697 
 C                    -0.31076   1.00317  -0.40288 
 H                    -1.0529    1.77857  -0.54436 
 O                    -0.00308  -2.62577  -0.52386 
 Cl                    1.4255    3.00832  -0.25661 
 C                    -4.10645  -0.01203   0.21932 
 C                    -2.95243   0.24555   0.83366 
 H                    -2.85808   1.19309   1.35648 
 C                    -5.24657   0.96318   0.26279 
 H                    -6.12875   0.50659   0.72157 
 H                    -4.99536   1.86255   0.82591 
 H                    -5.53923   1.26147  -0.74859 
 C                    -4.38459  -1.26181  -0.56321 
 H                    -3.56416  -1.97752  -0.54956 
 H                    -5.27727  -1.76153  -0.17602 
 H                    -4.59534  -1.01479  -1.60815 
 C                    -1.7396   -0.63828   0.85169 
 H                    -1.16853  -0.45809   1.76583 
 H                    -2.01341  -1.69318   0.8472 
 H                    -1.40009  -0.59382  -1.26274 
 

 GradGradGradGradGradGradGradGradGradGradGradGradGradGradGradGradGradGrad
 Berny optimization.
 Initialization pass.
 Trust Radius=3.00D-01 FncErr=1.00D-07 GrdErr=1.00D-07
 Number of steps in this run=      2 maximum allowed number of steps=      2.
 GradGradGradGradGradGradGradGradGradGradGradGradGradGradGradGradGradGrad

                          Input orientation:                          
 ---------------------------------------------------------------------
 Center     Atomic      Atomic             Coordinates (Angstroms)
 Number     Number       Type             X           Y           Z
 ---------------------------------------------------------------------
      1          6           0        4.314810   -0.307270    0.377740
      2          6           0        3.353310    0.671760    0.198770
      3          6           0        2.024870    0.326670   -0.035190
      4          6           0        1.682190   -1.034650   -0.090800
      5          6           0        2.659830   -2.007680    0.084990
      6          6           0        3.973230   -1.651480    0.322720
      7          1           0        5.341890   -0.016700    0.560320
      8          1           0        3.637930    1.713460    0.240490
      9          1           0        2.365300   -3.047600    0.029970
     10          1           0        4.728870   -2.413730    0.461870
     11          6           0        0.284730   -1.461310   -0.350830
     12          6           0        0.966040    1.323420   -0.236290
     13          6           0       -0.800230   -0.404920   -0.366970
     14          6           0       -0.310760    1.003170   -0.402880
     15          1           0       -1.052900    1.778570   -0.544360
     16          8           0       -0.003080   -2.625770   -0.523860
     17         17           0        1.425500    3.008320   -0.256610
     18          6           0       -4.106450   -0.012030    0.219320
     19          6           0       -2.952430    0.245550    0.833660
     20          1           0       -2.858080    1.193090    1.356480
     21          6           0       -5.246570    0.963180    0.262790
     22          1           0       -6.128750    0.506590    0.721570
     23          1           0       -4.995360    1.862550    0.825910
     24          1           0       -5.539230    1.261470   -0.748590
     25          6           0       -4.384590   -1.261810   -0.563210
     26          1           0       -3.564160   -1.977520   -0.549560
     27          1           0       -5.277270   -1.761530   -0.176020
     28          1           0       -4.595340   -1.014790   -1.608150
     29          6           0       -1.739600   -0.638280    0.851690
     30          1           0       -1.168530   -0.458090    1.765830
     31          1           0       -2.013410   -1.693180    0.847200
     32          1           0       -1.400090   -0.593820   -1.262740
 ---------------------------------------------------------------------
                    Distance matrix (angstroms):
                    1          2          3          4          5
     1  C    0.000000
     2  C    1.383840   0.000000
     3  C    2.411683   1.392328   0.000000
     4  C    2.771155   2.405894   1.404889   0.000000
     5  C    2.390827   2.770065   2.422149   1.390493   0.000000
     6  C    1.388022   2.407719   2.799515   2.408390   1.381453
     7  H    1.082894   2.135216   3.387500   3.854035   3.373927
     8  H    2.135498   1.080689   2.145029   3.389215   3.850681
     9  H    3.380968   3.852051   3.392025   2.129129   1.082224
    10  H    2.148417   3.388456   3.881814   3.389626   2.141925
    11  C    4.254899   3.777331   2.514873   1.484099   2.475795
    12  C    3.774976   2.512568   1.468017   2.468711   3.750783
    13  C    5.169890   4.327955   2.937089   2.575896   3.839938
    14  C    4.870577   3.727898   2.459271   2.867395   4.257657
    15  H    5.832093   4.603472   3.440921   3.949765   5.340050
    16  O    4.983222   4.760384   3.615008   2.357825   2.800683
    17  Cl   4.443383   3.063223   2.756722   4.054502   5.176922
    18  C    8.427923   7.491062   6.145940   5.886449   7.055722
    19  C    7.302482   6.351936   5.053216   4.896248   6.093851
    20  H    7.393197   6.339830   5.150789   5.260370   6.504533
    21  C    9.646100   8.605054   7.305325   7.219700   8.448005
    22  H   10.480865   9.497898   8.190640   8.002884   9.163292
    23  H    9.570175   8.456452   7.237683   7.336470   8.609853
    24  H   10.041497   8.962283   7.654959   7.606166   8.866047
    25  C    8.802051   8.012141   6.624443   6.089384   7.113391
    26  H    8.107268   7.445138   6.067217   5.350108   6.256326
    27  H    9.717485   8.974869   7.596161   6.997835   7.945204
    28  H    9.156152   8.324088   6.935481   6.458338   7.515986
    29  C    6.081947   5.299079   3.986091   3.571280   4.670982
    30  H    5.658318   4.917243   3.749310   3.450522   4.459013
    31  H    6.495191   5.900431   4.600664   3.869233   4.745424
    32  H    5.952593   5.131522   3.752936   3.326894   4.505366
                    6          7          8          9         10
     6  C    0.000000
     7  H    2.145271   0.000000
     8  H    3.382604   2.449331   0.000000
     9  H    2.149487   4.281088   4.932707   0.000000
    10  H    1.082303   2.476134   4.274676   2.484913   0.000000
    11  C    3.754313   5.337786   4.655403   2.643879   4.617138
    12  C    4.266815   4.645274   2.741979   4.597243   5.349075
    13  C    4.981516   6.223843   4.955180   4.142692   5.940811
    14  C    5.091781   5.824117   4.063322   4.874156   6.149867
    15  H    6.146467   6.733250   4.756481   5.941874   7.212263
    16  O    4.180548   6.045775   5.715777   2.468581   4.838179
    17  Cl   5.342311   5.015599   2.611248   6.135105   6.389608
    18  C    8.244981   9.454493   7.934304   7.150810   9.159141
    19  C    7.198927   8.302965   6.777865   6.306267   8.137098
    20  H    7.471749   8.326882   6.611684   6.857607   8.448153
    21  C    9.583567  10.637865   8.916152   8.607039  10.533402
    22  H   10.337618  11.483702   9.852716   9.233605  11.246494
    23  H    9.645580  10.510036   8.654400   8.883829  10.629193
    24  H   10.005992  11.033845   9.241366   9.036362  10.972975
    25  C    8.413672   9.870007   8.594125   7.007276   9.242990
    26  H    7.594697   9.186641   8.131274   6.053051   8.365860
    27  H    9.264589  10.786713   9.577569   7.752760  10.047642
    28  H    8.806476  10.219931   8.868346   7.434128   9.653129
    29  C    5.826046   7.114686   5.901023   4.830140   6.719024
    30  H    5.472152   6.635785   5.490387   4.712401   6.348556
    31  H    6.009715   7.549392   6.626533   4.655687   6.791613
    32  H    5.701307   7.007918   5.741506   4.676569   6.621971
                   11         12         13         14         15
    11  C    0.000000
    12  C    2.869150   0.000000
    13  C    1.514384   2.474661   0.000000
    14  C    2.535938   1.326850   1.491170   0.000000
    15  H    3.510489   2.092412   2.205207   1.082605   0.000000
    16  O    1.211916   4.076517   2.364791   3.643969   4.527776
    17  Cl   4.613873   1.746541   4.076305   2.656430   2.781645
    18  C    4.659179   5.265089   3.380708   3.978068   3.621274
    19  C    3.846504   4.202500   2.548841   3.013543   2.803088
    20  H    4.453987   4.144610   3.123886   3.101654   2.686011
    21  C    6.070417   6.243026   4.694490   4.980656   4.347783
    22  H    6.793776   7.205606   5.514426   5.946426   5.383750
    23  H    6.349182   6.079245   4.915638   4.918733   4.174648
    24  H    6.441293   6.525705   5.037917   5.246249   4.520648
    25  C    4.678403   5.951431   3.690584   4.663897   4.510479
    26  H    3.888434   5.614005   3.185235   4.414820   4.518259
    27  H    5.572839   6.964156   4.681959   5.688695   5.523883
    28  H    5.059181   6.186936   4.039224   4.886969   4.635018
    29  C    2.494262   3.514606   1.556279   2.511949   2.874313
    30  H    2.756568   3.426172   2.165019   2.752154   3.217607
    31  H    2.602016   4.376180   2.146073   3.425204   3.861615
    32  H    2.103030   3.213717   1.094495   2.115745   2.502967
                   16         17         18         19         20
    16  O    0.000000
    17  Cl   5.818525   0.000000
    18  C    4.921544   6.320719   0.000000
    19  C    4.334282   5.290355   1.332488   0.000000
    20  H    5.125465   4.924041   2.074578   1.086312   0.000000
    21  C    6.402622   6.997778   1.500932   2.470620   2.637025
    22  H    6.991896   8.017617   2.147305   3.188999   3.401717
    23  H    6.847609   6.611511   2.161519   2.605439   2.301662
    24  H    6.768316   7.197291   2.147443   3.197990   3.409481
    25  C    4.589070   7.217005   1.500555   2.504888   3.470155
    26  H    3.619693   7.059825   2.179084   2.688783   3.766206
    27  H    5.355836   8.227095   2.141930   3.233064   4.114707
    28  H    4.985960   7.366314   2.141072   3.201569   4.084341
    29  C    2.976198   4.954178   2.528648   1.500812   2.204479
    30  H    3.361516   4.778625   3.349931   2.132217   2.397612
    31  H    2.605946   5.928626   2.757048   2.154209   3.050146
    32  H    2.574180   4.687395   3.139963   2.740291   3.489856
                   21         22         23         24         25
    21  C    0.000000
    22  H    1.094164   0.000000
    23  H    1.090448   1.770335   0.000000
    24  H    1.094311   1.754636   1.770916   0.000000
    25  C    2.525048   2.796425   3.473373   2.781097   0.000000
    26  H    3.483982   3.789947   4.322776   3.798891   1.088822
    27  H    2.759989   2.583613   3.770583   3.087878   1.093853
    28  H    2.799443   3.177033   3.789954   2.609814   1.094228
    29  C    3.900041   4.537874   4.105458   4.539508   3.063773
    30  H    4.572696   5.159929   4.573122   5.327496   4.051350
    31  H    4.225057   4.668061   4.640657   4.869077   2.792460
    32  H    4.421188   5.244865   4.829304   4.564968   3.137323
                   26         27         28         29         30
    26  H    0.000000
    27  H    1.766615   0.000000
    28  H    1.763744   1.753182   0.000000
    29  C    2.661970   3.851362   3.787852   0.000000
    30  H    3.661795   4.727735   4.841145   1.092813   0.000000
    31  H    2.106327   3.421174   3.627026   1.089865   1.755890
    32  H    2.665793   4.192497   3.241319   2.141975   3.040441
                   31         32
    31  H    0.000000
    32  H    2.456949   0.000000
 Stoichiometry    C15H15ClO
 Framework group  C1[X(C15H15ClO)]
 Deg. of freedom    90
 Full point group                 C1      NOp   1
 Largest Abelian subgroup         C1      NOp   1
 Largest concise Abelian subgroup C1      NOp   1
                         Standard orientation:                         
 ---------------------------------------------------------------------
 Center     Atomic      Atomic             Coordinates (Angstroms)
 Number     Number       Type             X           Y           Z
 ---------------------------------------------------------------------
      1          6           0        4.314810   -0.307271    0.377740
      2          6           0        3.353310    0.671759    0.198770
      3          6           0        2.024870    0.326670   -0.035190
      4          6           0        1.682190   -1.034650   -0.090800
      5          6           0        2.659829   -2.007680    0.084990
      6          6           0        3.973230   -1.651481    0.322720
      7          1           0        5.341890   -0.016701    0.560320
      8          1           0        3.637930    1.713459    0.240490
      9          1           0        2.365299   -3.047600    0.029970
     10          1           0        4.728869   -2.413731    0.461870
     11          6           0        0.284730   -1.461310   -0.350830
     12          6           0        0.966040    1.323420   -0.236290
     13          6           0       -0.800230   -0.404920   -0.366970
     14          6           0       -0.310760    1.003170   -0.402880
     15          1           0       -1.052900    1.778570   -0.544360
     16          8           0       -0.003081   -2.625770   -0.523860
     17         17           0        1.425501    3.008320   -0.256610
     18          6           0       -4.106450   -0.012029    0.219320
     19          6           0       -2.952430    0.245551    0.833660
     20          1           0       -2.858080    1.193091    1.356480
     21          6           0       -5.246570    0.963182    0.262790
     22          1           0       -6.128750    0.506592    0.721570
     23          1           0       -4.995360    1.862551    0.825910
     24          1           0       -5.539230    1.261472   -0.748590
     25          6           0       -4.384590   -1.261809   -0.563210
     26          1           0       -3.564161   -1.977519   -0.549560
     27          1           0       -5.277271   -1.761528   -0.176020
     28          1           0       -4.595340   -1.014789   -1.608150
     29          6           0       -1.739600   -0.638279    0.851690
     30          1           0       -1.168530   -0.458089    1.765830
     31          1           0       -2.013410   -1.693179    0.847200
     32          1           0       -1.400090   -0.593819   -1.262740
 ---------------------------------------------------------------------
 Rotational constants (GHZ):      0.7062482      0.2521324      0.1930657
 Standard basis: def2TZVP (5D, 7F)
 There are   708 symmetry adapted cartesian basis functions of A   symmetry.
 There are   623 symmetry adapted basis functions of A   symmetry.
   623 basis functions,  1005 primitive gaussians,   708 cartesian basis functions
    65 alpha electrons       65 beta electrons
       nuclear repulsion energy      1239.3277138746 Hartrees.
 NAtoms=   32 NActive=   32 NUniq=   32 SFac= 1.00D+00 NAtFMM=   60 NAOKFM=F Big=F
 Integral buffers will be    131072 words long.
 Raffenetti 2 integral format.
 Two-electron integral symmetry is turned on.
 Nuclear repulsion after empirical dispersion term =     1239.3048495682 Hartrees.
 Force inversion solution in PCM.
 ------------------------------------------------------------------------------
 Polarizable Continuum Model (PCM)
 =================================
 Model                : PCM (using non-symmetric T matrix).
 Atomic radii         : SMD-Coulomb.
 Polarization charges : Total charges.
 Charge compensation  : None.
 Solution method      : Matrix inversion.
 Cavity type          : VdW (van der Waals Surface) (Alpha=1.000).
 Cavity algorithm     : GePol (No added spheres)
                        Default sphere list used, NSphG=   32.
                        Lebedev-Laikov grids with approx.  5.0 points / Ang**2.
                        Smoothing algorithm: Karplus/York (Gamma=1.0000).
                        Polarization charges: spherical gaussians, with
                                              point-specific exponents (IZeta= 3).
                        Self-potential: point-specific (ISelfS= 7).
                        Self-field    : sphere-specific E.n sum rule (ISelfD= 2).
 1st derivatives      : Analytical E(r).r(x)/FMM algorithm (CHGder, D1EAlg=3).
                        Cavity 1st derivative terms included.
 2nd derivatives      : Analytical E(r).r(xy)/FMM algorithm (CHGder, D2EAlg=3).
                        Cavity 2nd derivative terms included.
 Solvent              : Toluene, Eps=   2.374100 Eps(inf)=   2.238315
 ------------------------------------------------------------------------------
 ------------------------------------------------------------------------------
 Atomic radii for non-electrostatic terms: SMD-CDS.
 ------------------------------------------------------------------------------
 Nuclear repulsion after PCM non-electrostatic terms =     1239.2921805605 Hartrees.
 One-electron integrals computed using PRISM.
   1 Symmetry operations used in ECPInt.
 ECPInt:  NShTT=   31125 NPrTT=   96136 LenC2=   27462 LenP2D=   61389.
 LDataN:  DoStor=T MaxTD1= 6 Len=  172
 NBasis=   623 RedAO= T EigKep=  6.29D-06  NBF=   623
 NBsUse=   623 1.00D-06 EigRej= -1.00D+00 NBFU=   623
 ExpMin= 9.52D-02 ExpMax= 6.95D+04 ExpMxC= 2.37D+03 IAcc=2 IRadAn=         4 AccDes= 0.00D+00
 Harris functional with IExCor= 4639 and IRadAn=       4 diagonalized for initial guess.
 HarFok:  IExCor= 4639 AccDes= 0.00D+00 IRadAn=         4 IDoV= 1 UseB2=F ITyADJ=14
 ICtDFT=  3500011 ScaDFX=  1.000000  1.000000  1.000000  1.000000
 FoFCou: FMM=F IPFlag=           0 FMFlag=      100000 FMFlg1=           0
         NFxFlg=           0 DoJE=T BraDBF=F KetDBF=T FulRan=T
         wScrn=  0.000000 ICntrl=     500 IOpCl=  0 I1Cent=   200000004 NGrid=           0
         NMat0=    1 NMatS0=      1 NMatT0=    0 NMatD0=    1 NMtDS0=    0 NMtDT0=    0
 Petite list used in FoFCou.
 Requested convergence on RMS density matrix=1.00D-08 within 128 cycles.
 Requested convergence on MAX density matrix=1.00D-06.
 Requested convergence on             energy=1.00D-06.
 No special actions if energy rises.
 Inv3:  Mode=1 IEnd=    19814700.
 Iteration    1 A*A^-1 deviation from unit magnitude is 4.88D-15 for   2544.
 Iteration    1 A*A^-1 deviation from orthogonality  is 2.56D-15 for   1480    976.
 Iteration    1 A^-1*A deviation from unit magnitude is 4.55D-15 for   2554.
 Iteration    1 A^-1*A deviation from orthogonality  is 3.26D-12 for   1429   1366.
 Error on total polarization charges =  0.02669
 SCF Done:  E(RwB97XD) =  -1116.08743567     A.U. after   15 cycles
            NFock= 15  Conv=0.42D-08     -V/T= 2.0035
 SMD-CDS (non-electrostatic) energy       (kcal/mol) =      -7.95
 (included in total energy above)
 DoSCS=F DFT=T ScalE2(SS,OS)=  1.000000  1.000000
 Range of M.O.s used for correlation:     1   623
 NBasis=   623 NAE=    65 NBE=    65 NFC=     0 NFV=     0
 NROrb=    623 NOA=    65 NOB=    65 NVA=   558 NVB=   558

 **** Warning!!: The largest alpha MO coefficient is  0.63834169D+02

   1 Symmetry operations used in ECPInt.
 ECPInt:  NShTT=   31125 NPrTT=   96136 LenC2=   27462 LenP2D=   61389.
 LDataN:  DoStor=T MaxTD1= 7 Len=  274
 Number of processors reduced to   4 by ecpmxn.
 Symmetrizing basis deriv contribution to polar:
 IMax=3 JMax=2 DiffMx= 0.00D+00
 G2DrvN: will do    33 centers at a time, making    1 passes.
 Calling FoFCou, ICntrl=  3107 FMM=F I1Cent=   0 AccDes= 0.00D+00.
 NEqPCM:  Using equilibrium solvation (IEInf=0, Eps=   2.3741, EpsInf=   2.2383)
 G2PCM: DoFxE=T DoFxN=T DoGrad=T DoDP/DQ/DG/TGxP=FFFF NFrqRd=   0 IEInf=0 SqF1=F DoCFld=F IF1Alg=4.
 End of G2Drv F.D. properties file   721 does not exist.
 End of G2Drv F.D. properties file   722 does not exist.
 End of G2Drv F.D. properties file   788 does not exist.
          IDoAtm=11111111111111111111111111111111
 NEqPCM:  Using equilibrium solvation (IEInf=0, Eps=   2.3741, EpsInf=   2.2383)
          Differentiating once with respect to electric field.
                with respect to dipole field.
          Differentiating once with respect to nuclear coordinates.
          There are    99 degrees of freedom in the 1st order CPHF.  IDoFFX=6 NUNeed=     3.
     96 vectors produced by pass  0 Test12= 3.66D-14 1.01D-09 XBig12= 1.27D+02 4.56D+00.
 AX will form    96 AO Fock derivatives at one time.
     96 vectors produced by pass  1 Test12= 3.66D-14 1.01D-09 XBig12= 9.32D+00 3.94D-01.
     96 vectors produced by pass  2 Test12= 3.66D-14 1.01D-09 XBig12= 3.41D-01 8.52D-02.
     96 vectors produced by pass  3 Test12= 3.66D-14 1.01D-09 XBig12= 4.83D-03 7.45D-03.
     96 vectors produced by pass  4 Test12= 3.66D-14 1.01D-09 XBig12= 5.26D-05 6.37D-04.
     96 vectors produced by pass  5 Test12= 3.66D-14 1.01D-09 XBig12= 5.04D-07 6.68D-05.
     96 vectors produced by pass  6 Test12= 3.66D-14 1.01D-09 XBig12= 3.98D-09 5.31D-06.
     44 vectors produced by pass  7 Test12= 3.66D-14 1.01D-09 XBig12= 2.66D-11 5.08D-07.
      3 vectors produced by pass  8 Test12= 3.66D-14 1.01D-09 XBig12= 2.08D-13 3.59D-08.
      3 vectors produced by pass  9 Test12= 3.66D-14 1.01D-09 XBig12= 6.86D-15 8.96D-09.
      2 vectors produced by pass 10 Test12= 3.66D-14 1.01D-09 XBig12= 3.90D-16 2.38D-09.
 InvSVY:  IOpt=1 It=  1 EMax= 3.20D-14
 Solved reduced A of dimension   724 with    99 vectors.
 Isotropic polarizability for W=    0.000000      223.95 Bohr**3.
 End of Minotr F.D. properties file   721 does not exist.
 End of Minotr F.D. properties file   722 does not exist.
 End of Minotr F.D. properties file   788 does not exist.

 **********************************************************************

            Population analysis using the SCF density.

 **********************************************************************

 Orbital symmetries:
       Occupied  (A) (A) (A) (A) (A) (A) (A) (A) (A) (A) (A) (A)
                 (A) (A) (A) (A) (A) (A) (A) (A) (A) (A) (A) (A)
                 (A) (A) (A) (A) (A) (A) (A) (A) (A) (A) (A) (A)
                 (A) (A) (A) (A) (A) (A) (A) (A) (A) (A) (A) (A)
                 (A) (A) (A) (A) (A) (A) (A) (A) (A) (A) (A) (A)
                 (A) (A) (A) (A) (A)
       Virtual   (A) (A) (A) (A) (A) (A) (A) (A) (A) (A) (A) (A)
                 (A) (A) (A) (A) (A) (A) (A) (A) (A) (A) (A) (A)
                 (A) (A) (A) (A) (A) (A) (A) (A) (A) (A) (A) (A)
                 (A) (A) (A) (A) (A) (A) (A) (A) (A) (A) (A) (A)
                 (A) (A) (A) (A) (A) (A) (A) (A) (A) (A) (A) (A)
                 (A) (A) (A) (A) (A) (A) (A) (A) (A) (A) (A) (A)
                 (A) (A) (A) (A) (A) (A) (A) (A) (A) (A) (A) (A)
                 (A) (A) (A) (A) (A) (A) (A) (A) (A) (A) (A) (A)
                 (A) (A) (A) (A) (A) (A) (A) (A) (A) (A) (A) (A)
                 (A) (A) (A) (A) (A) (A) (A) (A) (A) (A) (A) (A)
                 (A) (A) (A) (A) (A) (A) (A) (A) (A) (A) (A) (A)
                 (A) (A) (A) (A) (A) (A) (A) (A) (A) (A) (A) (A)
                 (A) (A) (A) (A) (A) (A) (A) (A) (A) (A) (A) (A)
                 (A) (A) (A) (A) (A) (A) (A) (A) (A) (A) (A) (A)
                 (A) (A) (A) (A) (A) (A) (A) (A) (A) (A) (A) (A)
                 (A) (A) (A) (A) (A) (A) (A) (A) (A) (A) (A) (A)
                 (A) (A) (A) (A) (A) (A) (A) (A) (A) (A) (A) (A)
                 (A) (A) (A) (A) (A) (A) (A) (A) (A) (A) (A) (A)
                 (A) (A) (A) (A) (A) (A) (A) (A) (A) (A) (A) (A)
                 (A) (A) (A) (A) (A) (A) (A) (A) (A) (A) (A) (A)
                 (A) (A) (A) (A) (A) (A) (A) (A) (A) (A) (A) (A)
                 (A) (A) (A) (A) (A) (A) (A) (A) (A) (A) (A) (A)
                 (A) (A) (A) (A) (A) (A) (A) (A) (A) (A) (A) (A)
                 (A) (A) (A) (A) (A) (A) (A) (A) (A) (A) (A) (A)
                 (A) (A) (A) (A) (A) (A) (A) (A) (A) (A) (A) (A)
                 (A) (A) (A) (A) (A) (A) (A) (A) (A) (A) (A) (A)
                 (A) (A) (A) (A) (A) (A) (A) (A) (A) (A) (A) (A)
                 (A) (A) (A) (A) (A) (A) (A) (A) (A) (A) (A) (A)
                 (A) (A) (A) (A) (A) (A) (A) (A) (A) (A) (A) (A)
                 (A) (A) (A) (A) (A) (A) (A) (A) (A) (A) (A) (A)
                 (A) (A) (A) (A) (A) (A) (A) (A) (A) (A) (A) (A)
                 (A) (A) (A) (A) (A) (A) (A) (A) (A) (A) (A) (A)
                 (A) (A) (A) (A) (A) (A) (A) (A) (A) (A) (A) (A)
                 (A) (A) (A) (A) (A) (A) (A) (A) (A) (A) (A) (A)
                 (A) (A) (A) (A) (A) (A) (A) (A) (A) (A) (A) (A)
                 (A) (A) (A) (A) (A) (A) (A) (A) (A) (A) (A) (A)
                 (A) (A) (A) (A) (A) (A) (A) (A) (A) (A) (A) (A)
                 (A) (A) (A) (A) (A) (A) (A) (A) (A) (A) (A) (A)
                 (A) (A) (A) (A) (A) (A) (A) (A) (A) (A) (A) (A)
                 (A) (A) (A) (A) (A) (A) (A) (A) (A) (A) (A) (A)
                 (A) (A) (A) (A) (A) (A) (A) (A) (A) (A) (A) (A)
                 (A) (A) (A) (A) (A) (A) (A) (A) (A) (A) (A) (A)
                 (A) (A) (A) (A) (A) (A) (A) (A) (A) (A) (A) (A)
                 (A) (A) (A) (A) (A) (A) (A) (A) (A) (A) (A) (A)
                 (A) (A) (A) (A) (A) (A) (A) (A) (A) (A) (A) (A)
                 (A) (A) (A) (A) (A) (A) (A) (A) (A) (A) (A) (A)
                 (A) (A) (A) (A) (A) (A)
 The electronic state is 1-A.
 Alpha  occ. eigenvalues -- -101.70041 -19.23794 -10.37738 -10.35559 -10.32290
 Alpha  occ. eigenvalues --  -10.30712 -10.30537 -10.30298 -10.30148 -10.29897
 Alpha  occ. eigenvalues --  -10.29749 -10.29596 -10.29138 -10.29125 -10.27249
 Alpha  occ. eigenvalues --  -10.27210 -10.27172  -9.58606  -7.33242  -7.32390
 Alpha  occ. eigenvalues --   -7.32365  -1.15009  -1.00467  -0.96562  -0.93613
 Alpha  occ. eigenvalues --   -0.90973  -0.87350  -0.86583  -0.83414  -0.79515
 Alpha  occ. eigenvalues --   -0.78856  -0.74337  -0.72919  -0.71029  -0.67504
 Alpha  occ. eigenvalues --   -0.62486  -0.61462  -0.59790  -0.59002  -0.56861
 Alpha  occ. eigenvalues --   -0.54955  -0.54066  -0.53331  -0.52754  -0.52392
 Alpha  occ. eigenvalues --   -0.51856  -0.51220  -0.50051  -0.49019  -0.48032
 Alpha  occ. eigenvalues --   -0.46818  -0.46662  -0.45576  -0.45088  -0.44758
 Alpha  occ. eigenvalues --   -0.43887  -0.43283  -0.42757  -0.40871  -0.39893
 Alpha  occ. eigenvalues --   -0.37201  -0.34466  -0.34181  -0.32009  -0.30645
 Alpha virt. eigenvalues --   -0.00888   0.02490   0.08150   0.09938   0.10156
 Alpha virt. eigenvalues --    0.10981   0.11852   0.13666   0.14061   0.14566
 Alpha virt. eigenvalues --    0.15861   0.16651   0.17451   0.17751   0.18155
 Alpha virt. eigenvalues --    0.18934   0.19306   0.19527   0.20841   0.21253
 Alpha virt. eigenvalues --    0.22423   0.22641   0.23206   0.23371   0.24256
 Alpha virt. eigenvalues --    0.24333   0.25696   0.26730   0.26883   0.27416
 Alpha virt. eigenvalues --    0.27725   0.28583   0.28982   0.29864   0.30098
 Alpha virt. eigenvalues --    0.30712   0.31048   0.31386   0.32116   0.33046
 Alpha virt. eigenvalues --    0.33386   0.33588   0.33955   0.34565   0.35700
 Alpha virt. eigenvalues --    0.36425   0.36761   0.37441   0.37988   0.38699
 Alpha virt. eigenvalues --    0.39694   0.40146   0.40397   0.41002   0.41340
 Alpha virt. eigenvalues --    0.42539   0.42622   0.43059   0.43511   0.44172
 Alpha virt. eigenvalues --    0.44484   0.45080   0.45529   0.45920   0.46389
 Alpha virt. eigenvalues --    0.46995   0.47914   0.48205   0.48544   0.49150
 Alpha virt. eigenvalues --    0.49608   0.49935   0.50923   0.51199   0.51352
 Alpha virt. eigenvalues --    0.52253   0.52497   0.53659   0.54302   0.54542
 Alpha virt. eigenvalues --    0.54731   0.55318   0.55476   0.55946   0.56442
 Alpha virt. eigenvalues --    0.56491   0.57299   0.57488   0.58174   0.58700
 Alpha virt. eigenvalues --    0.59419   0.60480   0.61062   0.61651   0.62173
 Alpha virt. eigenvalues --    0.62860   0.63312   0.63983   0.65573   0.66537
 Alpha virt. eigenvalues --    0.67272   0.68453   0.68832   0.69712   0.70175
 Alpha virt. eigenvalues --    0.71608   0.72344   0.73380   0.74273   0.74628
 Alpha virt. eigenvalues --    0.75209   0.76083   0.76450   0.77192   0.77612
 Alpha virt. eigenvalues --    0.78370   0.78903   0.79756   0.79855   0.81215
 Alpha virt. eigenvalues --    0.82136   0.82917   0.83962   0.84269   0.84890
 Alpha virt. eigenvalues --    0.85933   0.87031   0.87652   0.88255   0.90189
 Alpha virt. eigenvalues --    0.90524   0.91148   0.91750   0.92870   0.93136
 Alpha virt. eigenvalues --    0.93951   0.95707   0.96220   0.96584   0.97197
 Alpha virt. eigenvalues --    0.99138   1.01239   1.02551   1.03655   1.04161
 Alpha virt. eigenvalues --    1.04990   1.05834   1.06737   1.07593   1.07885
 Alpha virt. eigenvalues --    1.09499   1.10017   1.10506   1.11551   1.12651
 Alpha virt. eigenvalues --    1.14720   1.15175   1.15558   1.16598   1.17322
 Alpha virt. eigenvalues --    1.19356   1.20019   1.21306   1.21816   1.22159
 Alpha virt. eigenvalues --    1.23142   1.25172   1.26314   1.27213   1.28397
 Alpha virt. eigenvalues --    1.29903   1.30418   1.31620   1.32349   1.33460
 Alpha virt. eigenvalues --    1.34394   1.34808   1.35418   1.35873   1.36580
 Alpha virt. eigenvalues --    1.38439   1.38870   1.39611   1.41058   1.42989
 Alpha virt. eigenvalues --    1.43555   1.44177   1.47824   1.48647   1.49110
 Alpha virt. eigenvalues --    1.51342   1.51582   1.52386   1.53222   1.53961
 Alpha virt. eigenvalues --    1.54787   1.56127   1.56583   1.58782   1.59495
 Alpha virt. eigenvalues --    1.59882   1.60903   1.62460   1.62940   1.63433
 Alpha virt. eigenvalues --    1.64053   1.65061   1.65528   1.66126   1.66686
 Alpha virt. eigenvalues --    1.68023   1.68335   1.69427   1.70585   1.70746
 Alpha virt. eigenvalues --    1.71913   1.72478   1.73182   1.74211   1.74502
 Alpha virt. eigenvalues --    1.75554   1.75764   1.77632   1.78069   1.78577
 Alpha virt. eigenvalues --    1.79787   1.80853   1.81572   1.82451   1.84319
 Alpha virt. eigenvalues --    1.85669   1.87481   1.88310   1.89151   1.89608
 Alpha virt. eigenvalues --    1.91092   1.92669   1.92802   1.94309   1.95440
 Alpha virt. eigenvalues --    1.95974   1.97236   1.98302   1.99484   1.99840
 Alpha virt. eigenvalues --    2.01138   2.02795   2.04035   2.04905   2.05657
 Alpha virt. eigenvalues --    2.06355   2.07096   2.08225   2.09822   2.11223
 Alpha virt. eigenvalues --    2.11468   2.12131   2.12230   2.13963   2.15569
 Alpha virt. eigenvalues --    2.16442   2.17656   2.17899   2.20710   2.21003
 Alpha virt. eigenvalues --    2.21927   2.22608   2.23524   2.23953   2.24675
 Alpha virt. eigenvalues --    2.25894   2.26258   2.27838   2.28662   2.29207
 Alpha virt. eigenvalues --    2.29929   2.31511   2.31927   2.32904   2.35213
 Alpha virt. eigenvalues --    2.35635   2.36445   2.39196   2.39540   2.40690
 Alpha virt. eigenvalues --    2.41194   2.41529   2.42849   2.43574   2.44674
 Alpha virt. eigenvalues --    2.45225   2.46952   2.48222   2.49570   2.50749
 Alpha virt. eigenvalues --    2.51748   2.52249   2.53895   2.54336   2.55464
 Alpha virt. eigenvalues --    2.56786   2.57484   2.59344   2.60698   2.62119
 Alpha virt. eigenvalues --    2.62952   2.63959   2.64531   2.65998   2.66824
 Alpha virt. eigenvalues --    2.67088   2.67698   2.68692   2.69449   2.69830
 Alpha virt. eigenvalues --    2.70393   2.71995   2.72722   2.73230   2.74155
 Alpha virt. eigenvalues --    2.75045   2.75692   2.77649   2.78147   2.79836
 Alpha virt. eigenvalues --    2.80268   2.81567   2.82563   2.82974   2.84149
 Alpha virt. eigenvalues --    2.85736   2.86023   2.86636   2.87723   2.89214
 Alpha virt. eigenvalues --    2.89929   2.91195   2.92069   2.92785   2.93503
 Alpha virt. eigenvalues --    2.94459   2.95238   2.96083   2.96943   2.98042
 Alpha virt. eigenvalues --    2.98608   2.99214   2.99525   3.00796   3.02380
 Alpha virt. eigenvalues --    3.02836   3.03188   3.04781   3.05476   3.05673
 Alpha virt. eigenvalues --    3.07208   3.08514   3.08684   3.10288   3.10458
 Alpha virt. eigenvalues --    3.11221   3.11776   3.12334   3.12715   3.14769
 Alpha virt. eigenvalues --    3.16668   3.17338   3.19663   3.20123   3.20482
 Alpha virt. eigenvalues --    3.21248   3.21851   3.22330   3.23816   3.24441
 Alpha virt. eigenvalues --    3.24953   3.25665   3.27277   3.27905   3.28044
 Alpha virt. eigenvalues --    3.28629   3.29794   3.30089   3.31406   3.32596
 Alpha virt. eigenvalues --    3.33313   3.34164   3.34440   3.36097   3.36240
 Alpha virt. eigenvalues --    3.37043   3.38049   3.39064   3.39823   3.41104
 Alpha virt. eigenvalues --    3.41931   3.42226   3.42668   3.43382   3.43507
 Alpha virt. eigenvalues --    3.45012   3.45462   3.45889   3.46550   3.47589
 Alpha virt. eigenvalues --    3.48808   3.49397   3.50171   3.51850   3.52342
 Alpha virt. eigenvalues --    3.53594   3.55638   3.56411   3.57396   3.58410
 Alpha virt. eigenvalues --    3.59344   3.59820   3.60585   3.61784   3.61854
 Alpha virt. eigenvalues --    3.63081   3.64816   3.65456   3.65731   3.67017
 Alpha virt. eigenvalues --    3.67490   3.69494   3.70564   3.71304   3.72122
 Alpha virt. eigenvalues --    3.73279   3.74110   3.75044   3.76091   3.77876
 Alpha virt. eigenvalues --    3.79156   3.81920   3.82592   3.83110   3.84467
 Alpha virt. eigenvalues --    3.86290   3.88318   3.88672   3.91820   3.92706
 Alpha virt. eigenvalues --    3.93846   3.95649   3.97451   3.98211   4.00143
 Alpha virt. eigenvalues --    4.01414   4.02752   4.03966   4.05129   4.06451
 Alpha virt. eigenvalues --    4.08817   4.10288   4.11722   4.12626   4.13984
 Alpha virt. eigenvalues --    4.15056   4.15526   4.16185   4.18118   4.19028
 Alpha virt. eigenvalues --    4.22165   4.24232   4.25175   4.27175   4.28631
 Alpha virt. eigenvalues --    4.29408   4.30897   4.32375   4.33992   4.34328
 Alpha virt. eigenvalues --    4.35261   4.38333   4.39793   4.40900   4.44097
 Alpha virt. eigenvalues --    4.44846   4.45681   4.47298   4.49053   4.49476
 Alpha virt. eigenvalues --    4.52779   4.53505   4.55151   4.57200   4.58215
 Alpha virt. eigenvalues --    4.59845   4.60568   4.64473   4.67027   4.68030
 Alpha virt. eigenvalues --    4.72062   4.74056   4.74460   4.78022   4.79770
 Alpha virt. eigenvalues --    4.81387   4.84700   4.85894   4.87499   4.89908
 Alpha virt. eigenvalues --    4.91152   4.96644   4.99618   5.01507   5.02504
 Alpha virt. eigenvalues --    5.05001   5.08521   5.13465   5.17130   5.21307
 Alpha virt. eigenvalues --    5.23095   5.26109   5.30042   5.33232   5.35198
 Alpha virt. eigenvalues --    5.38123   5.40518   5.44834   5.48300   5.59523
 Alpha virt. eigenvalues --    5.62658   5.70334   5.71482   5.89903   5.94086
 Alpha virt. eigenvalues --    6.23567   6.51067   6.53097   6.74477   6.78914
 Alpha virt. eigenvalues --    6.93207   7.20052   7.22391  10.84009  10.95198
 Alpha virt. eigenvalues --   11.47601  22.19019  22.41492  22.53415  22.59411
 Alpha virt. eigenvalues --   22.64882  22.72731  22.74718  22.82512  22.85131
 Alpha virt. eigenvalues --   22.98475  23.07469  23.11639  23.19809  23.39824
 Alpha virt. eigenvalues --   23.76075  26.04616  44.12349
          Condensed to atoms (all electrons):
               1          2          3          4          5          6
     1  C    4.988267   0.353362   0.060988  -0.127639   0.094040   0.367423
     2  C    0.353362   5.306277   0.332052   0.031084  -0.176507   0.080439
     3  C    0.060988   0.332052   5.395159   0.265195  -0.036747  -0.103604
     4  C   -0.127639   0.031084   0.265195   5.888614   0.151416   0.070802
     5  C    0.094040  -0.176507  -0.036747   0.151416   5.376981   0.329496
     6  C    0.367423   0.080439  -0.103604   0.070802   0.329496   5.013648
     7  H    0.451704  -0.057754   0.013419  -0.003216   0.012447  -0.057823
     8  H   -0.039218   0.451861  -0.068445   0.016389  -0.004420   0.009477
     9  H    0.013409  -0.006091   0.013399  -0.077371   0.464331  -0.055292
    10  H   -0.061673   0.013670  -0.003559   0.014707  -0.063473   0.460044
    11  C   -0.009192   0.029421  -0.024553   0.130604  -0.107284   0.018718
    12  C    0.022993  -0.193869   0.164048   0.020556   0.042416  -0.013636
    13  C    0.002819  -0.020377  -0.122682  -0.093973   0.067410  -0.004515
    14  C   -0.002889   0.038084   0.103584  -0.092225  -0.024845   0.002978
    15  H    0.000014  -0.000130   0.018217  -0.004015   0.000206  -0.000008
    16  O    0.000795  -0.000698   0.000547  -0.184736   0.051713   0.000270
    17  Cl  -0.001079   0.022712  -0.132032   0.013690  -0.000955   0.000608
    18  C    0.000000  -0.000001  -0.000075   0.000471  -0.000029   0.000000
    19  C    0.000004  -0.000080   0.001153  -0.003136   0.000257  -0.000011
    20  H    0.000000  -0.000007  -0.000101  -0.000032   0.000008   0.000000
    21  C    0.000000   0.000000  -0.000002   0.000002   0.000000   0.000000
    22  H    0.000000   0.000000   0.000000   0.000000   0.000000   0.000000
    23  H    0.000000   0.000000   0.000000   0.000000   0.000000   0.000000
    24  H    0.000000   0.000000   0.000000   0.000000   0.000000   0.000000
    25  C    0.000000  -0.000001  -0.000016  -0.000486   0.000031   0.000000
    26  H    0.000000   0.000001  -0.000003   0.000654  -0.000052   0.000000
    27  H    0.000000   0.000000   0.000000   0.000003   0.000000   0.000000
    28  H    0.000000   0.000000   0.000002   0.000003  -0.000001   0.000000
    29  C    0.000014   0.000401  -0.002270   0.000203   0.000259   0.000058
    30  H   -0.000016  -0.000052   0.001864   0.002706  -0.000476   0.000010
    31  H    0.000007  -0.000024  -0.000337   0.003085  -0.000223  -0.000004
    32  H   -0.000023   0.000262   0.004018   0.007350  -0.002064   0.000052
               7          8          9         10         11         12
     1  C    0.451704  -0.039218   0.013409  -0.061673  -0.009192   0.022993
     2  C   -0.057754   0.451861  -0.006091   0.013670   0.029421  -0.193869
     3  C    0.013419  -0.068445   0.013399  -0.003559  -0.024553   0.164048
     4  C   -0.003216   0.016389  -0.077371   0.014707   0.130604   0.020556
     5  C    0.012447  -0.004420   0.464331  -0.063473  -0.107284   0.042416
     6  C   -0.057823   0.009477  -0.055292   0.460044   0.018718  -0.013636
     7  H    0.508180  -0.006022  -0.000052  -0.007062   0.000059  -0.000114
     8  H   -0.006022   0.497127   0.000014  -0.000076   0.001005  -0.023251
     9  H   -0.000052   0.000014   0.489396  -0.006405  -0.016352   0.000870
    10  H   -0.007062  -0.000076  -0.006405   0.508629  -0.000365   0.000046
    11  C    0.000059   0.001005  -0.016352  -0.000365   4.857850  -0.098760
    12  C   -0.000114  -0.023251   0.000870   0.000046  -0.098760   5.318074
    13  C    0.000013  -0.000254   0.004255  -0.000041   0.264642   0.111118
    14  C   -0.000020   0.001017  -0.000852   0.000022   0.050577   0.330420
    15  H    0.000000   0.000007   0.000003   0.000000   0.006303  -0.066475
    16  O    0.000001   0.000006   0.023231  -0.000149   0.688739  -0.003116
    17  Cl  -0.000126   0.020380   0.000002   0.000001  -0.002058   0.335987
    18  C    0.000000   0.000000  -0.000002   0.000000   0.000345  -0.000322
    19  C    0.000000  -0.000001   0.000016   0.000000   0.007221  -0.006123
    20  H    0.000000   0.000000   0.000000   0.000000  -0.000381   0.000956
    21  C    0.000000   0.000000   0.000000   0.000000  -0.000059   0.000033
    22  H    0.000000   0.000000   0.000000   0.000000  -0.000001   0.000000
    23  H    0.000000   0.000000   0.000000   0.000000   0.000007  -0.000004
    24  H    0.000000   0.000000   0.000000   0.000000  -0.000001   0.000000
    25  C    0.000000   0.000000   0.000003   0.000000  -0.002125   0.000278
    26  H    0.000000   0.000000  -0.000007   0.000000   0.000580  -0.000043
    27  H    0.000000   0.000000   0.000000   0.000000   0.000093  -0.000006
    28  H    0.000000   0.000000   0.000000   0.000000  -0.000119   0.000006
    29  C    0.000000   0.000001  -0.000092  -0.000001  -0.000927  -0.002663
    30  H    0.000000  -0.000003  -0.000031   0.000000  -0.000293  -0.003008
    31  H    0.000000  -0.000001  -0.000015   0.000000  -0.003178   0.000762
    32  H    0.000000  -0.000002  -0.000105   0.000000  -0.021194  -0.004997
              13         14         15         16         17         18
     1  C    0.002819  -0.002889   0.000014   0.000795  -0.001079   0.000000
     2  C   -0.020377   0.038084  -0.000130  -0.000698   0.022712  -0.000001
     3  C   -0.122682   0.103584   0.018217   0.000547  -0.132032  -0.000075
     4  C   -0.093973  -0.092225  -0.004015  -0.184736   0.013690   0.000471
     5  C    0.067410  -0.024845   0.000206   0.051713  -0.000955  -0.000029
     6  C   -0.004515   0.002978  -0.000008   0.000270   0.000608   0.000000
     7  H    0.000013  -0.000020   0.000000   0.000001  -0.000126   0.000000
     8  H   -0.000254   0.001017   0.000007   0.000006   0.020380   0.000000
     9  H    0.004255  -0.000852   0.000003   0.023231   0.000002  -0.000002
    10  H   -0.000041   0.000022   0.000000  -0.000149   0.000001   0.000000
    11  C    0.264642   0.050577   0.006303   0.688739  -0.002058   0.000345
    12  C    0.111118   0.330420  -0.066475  -0.003116   0.335987  -0.000322
    13  C    5.232954   0.124339  -0.031490  -0.117558   0.012210   0.007711
    14  C    0.124339   5.402580   0.432003   0.010919  -0.051425  -0.003109
    15  H   -0.031490   0.432003   0.480485  -0.000101  -0.000086   0.000990
    16  O   -0.117558   0.010919  -0.000101   7.890643   0.000006   0.000832
    17  Cl   0.012210  -0.051425  -0.000086   0.000006  16.883383   0.000032
    18  C    0.007711  -0.003109   0.000990   0.000832   0.000032   5.099661
    19  C   -0.020444   0.010100   0.011293  -0.000569  -0.000097   0.649900
    20  H   -0.006526   0.001423  -0.003031  -0.000041   0.000180  -0.047956
    21  C   -0.000197   0.000252  -0.000295  -0.000004  -0.000003   0.296342
    22  H   -0.000046  -0.000017   0.000023   0.000000   0.000000  -0.037207
    23  H   -0.000036   0.000004  -0.000023   0.000000   0.000000  -0.057696
    24  H    0.000245   0.000087  -0.000082   0.000000   0.000000  -0.036633
    25  C   -0.005190   0.000308  -0.000062  -0.002485   0.000001   0.256486
    26  H   -0.007803   0.000597  -0.000045   0.004259   0.000000  -0.045678
    27  H    0.000281  -0.000064   0.000013   0.000028   0.000000  -0.040472
    28  H    0.001389   0.000185  -0.000063   0.000036   0.000000  -0.037374
    29  C    0.213595  -0.007128  -0.008422  -0.008076   0.000185  -0.049072
    30  H   -0.028037   0.000971   0.000996   0.000764  -0.000122   0.003542
    31  H   -0.064465   0.005478  -0.000148   0.006794   0.000006   0.003113
    32  H    0.403788  -0.024045  -0.003330   0.003650  -0.000158   0.002315
              19         20         21         22         23         24
     1  C    0.000004   0.000000   0.000000   0.000000   0.000000   0.000000
     2  C   -0.000080  -0.000007   0.000000   0.000000   0.000000   0.000000
     3  C    0.001153  -0.000101  -0.000002   0.000000   0.000000   0.000000
     4  C   -0.003136  -0.000032   0.000002   0.000000   0.000000   0.000000
     5  C    0.000257   0.000008   0.000000   0.000000   0.000000   0.000000
     6  C   -0.000011   0.000000   0.000000   0.000000   0.000000   0.000000
     7  H    0.000000   0.000000   0.000000   0.000000   0.000000   0.000000
     8  H   -0.000001   0.000000   0.000000   0.000000   0.000000   0.000000
     9  H    0.000016   0.000000   0.000000   0.000000   0.000000   0.000000
    10  H    0.000000   0.000000   0.000000   0.000000   0.000000   0.000000
    11  C    0.007221  -0.000381  -0.000059  -0.000001   0.000007  -0.000001
    12  C   -0.006123   0.000956   0.000033   0.000000  -0.000004   0.000000
    13  C   -0.020444  -0.006526  -0.000197  -0.000046  -0.000036   0.000245
    14  C    0.010100   0.001423   0.000252  -0.000017   0.000004   0.000087
    15  H    0.011293  -0.003031  -0.000295   0.000023  -0.000023  -0.000082
    16  O   -0.000569  -0.000041  -0.000004   0.000000   0.000000   0.000000
    17  Cl  -0.000097   0.000180  -0.000003   0.000000   0.000000   0.000000
    18  C    0.649900  -0.047956   0.296342  -0.037207  -0.057696  -0.036633
    19  C    5.219639   0.413268  -0.058389  -0.001647   0.004502  -0.005325
    20  H    0.413268   0.520643  -0.010932   0.000241   0.002286   0.000359
    21  C   -0.058389  -0.010932   4.916001   0.408476   0.423443   0.412274
    22  H   -0.001647   0.000241   0.408476   0.554463  -0.019653  -0.034445
    23  H    0.004502   0.002286   0.423443  -0.019653   0.536884  -0.021546
    24  H   -0.005325   0.000359   0.412274  -0.034445  -0.021546   0.558661
    25  C   -0.052763   0.005868  -0.041607  -0.002356   0.005864  -0.002343
    26  H   -0.012928  -0.000036   0.004681  -0.000045  -0.000194   0.000047
    27  H    0.005252  -0.000250  -0.003777   0.004139   0.000021  -0.001187
    28  H   -0.003412  -0.000157  -0.000520  -0.000802  -0.000082   0.003550
    29  C    0.201658  -0.015481   0.011555  -0.001216   0.002103  -0.000194
    30  H   -0.030208  -0.003825  -0.000365   0.000048  -0.000080  -0.000014
    31  H   -0.043241   0.002166  -0.000089   0.000091   0.000007  -0.000059
    32  H   -0.010988   0.000644  -0.000085   0.000011  -0.000022   0.000000
              25         26         27         28         29         30
     1  C    0.000000   0.000000   0.000000   0.000000   0.000014  -0.000016
     2  C   -0.000001   0.000001   0.000000   0.000000   0.000401  -0.000052
     3  C   -0.000016  -0.000003   0.000000   0.000002  -0.002270   0.001864
     4  C   -0.000486   0.000654   0.000003   0.000003   0.000203   0.002706
     5  C    0.000031  -0.000052   0.000000  -0.000001   0.000259  -0.000476
     6  C    0.000000   0.000000   0.000000   0.000000   0.000058   0.000010
     7  H    0.000000   0.000000   0.000000   0.000000   0.000000   0.000000
     8  H    0.000000   0.000000   0.000000   0.000000   0.000001  -0.000003
     9  H    0.000003  -0.000007   0.000000   0.000000  -0.000092  -0.000031
    10  H    0.000000   0.000000   0.000000   0.000000  -0.000001   0.000000
    11  C   -0.002125   0.000580   0.000093  -0.000119  -0.000927  -0.000293
    12  C    0.000278  -0.000043  -0.000006   0.000006  -0.002663  -0.003008
    13  C   -0.005190  -0.007803   0.000281   0.001389   0.213595  -0.028037
    14  C    0.000308   0.000597  -0.000064   0.000185  -0.007128   0.000971
    15  H   -0.000062  -0.000045   0.000013  -0.000063  -0.008422   0.000996
    16  O   -0.002485   0.004259   0.000028   0.000036  -0.008076   0.000764
    17  Cl   0.000001   0.000000   0.000000   0.000000   0.000185  -0.000122
    18  C    0.256486  -0.045678  -0.040472  -0.037374  -0.049072   0.003542
    19  C   -0.052763  -0.012928   0.005252  -0.003412   0.201658  -0.030208
    20  H    0.005868  -0.000036  -0.000250  -0.000157  -0.015481  -0.003825
    21  C   -0.041607   0.004681  -0.003777  -0.000520   0.011555  -0.000365
    22  H   -0.002356  -0.000045   0.004139  -0.000802  -0.001216   0.000048
    23  H    0.005864  -0.000194   0.000021  -0.000082   0.002103  -0.000080
    24  H   -0.002343   0.000047  -0.001187   0.003550  -0.000194  -0.000014
    25  C    4.959987   0.425264   0.405261   0.411292   0.012410   0.000808
    26  H    0.425264   0.524205  -0.018460  -0.021614   0.011795   0.000781
    27  H    0.405261  -0.018460   0.545548  -0.028768  -0.003261   0.000064
    28  H    0.411292  -0.021614  -0.028768   0.544471  -0.001880  -0.000083
    29  C    0.012410   0.011795  -0.003261  -0.001880   5.043798   0.395922
    30  H    0.000808   0.000781   0.000064  -0.000083   0.395922   0.531523
    31  H   -0.007099  -0.000713   0.000874  -0.000011   0.455998  -0.012467
    32  H   -0.000469   0.002009   0.000165  -0.000596  -0.032723   0.005004
              31         32
     1  C    0.000007  -0.000023
     2  C   -0.000024   0.000262
     3  C   -0.000337   0.004018
     4  C    0.003085   0.007350
     5  C   -0.000223  -0.002064
     6  C   -0.000004   0.000052
     7  H    0.000000   0.000000
     8  H   -0.000001  -0.000002
     9  H   -0.000015  -0.000105
    10  H    0.000000   0.000000
    11  C   -0.003178  -0.021194
    12  C    0.000762  -0.004997
    13  C   -0.064465   0.403788
    14  C    0.005478  -0.024045
    15  H   -0.000148  -0.003330
    16  O    0.006794   0.003650
    17  Cl   0.000006  -0.000158
    18  C    0.003113   0.002315
    19  C   -0.043241  -0.010988
    20  H    0.002166   0.000644
    21  C   -0.000089  -0.000085
    22  H    0.000091   0.000011
    23  H    0.000007  -0.000022
    24  H   -0.000059   0.000000
    25  C   -0.007099  -0.000469
    26  H   -0.000713   0.002009
    27  H    0.000874   0.000165
    28  H   -0.000011  -0.000596
    29  C    0.455998  -0.032723
    30  H   -0.012467   0.005004
    31  H    0.496037  -0.000512
    32  H   -0.000512   0.541837
 Mulliken charges:
               1
     1  C   -0.114112
     2  C   -0.204034
     3  C    0.120784
     4  C   -0.030705
     5  C   -0.173936
     6  C   -0.119127
     7  H    0.146366
     8  H    0.144411
     9  H    0.153738
    10  H    0.145685
    11  C    0.230679
    12  C    0.067822
    13  C    0.076863
    14  C   -0.309311
    15  H    0.167253
    16  O   -0.365702
    17  Cl  -0.101239
    18  C    0.033885
    19  C   -0.274903
    20  H    0.140714
    21  C   -0.356736
    22  H    0.129943
    23  H    0.124213
    24  H    0.126605
    25  C   -0.366859
    26  H    0.132748
    27  H    0.134501
    28  H    0.134549
    29  C   -0.216547
    30  H    0.134076
    31  H    0.158169
    32  H    0.130206
 Sum of Mulliken charges =   0.00000
 Mulliken charges with hydrogens summed into heavy atoms:
               1
     1  C    0.032254
     2  C   -0.059623
     3  C    0.120784
     4  C   -0.030705
     5  C   -0.020198
     6  C    0.026558
    11  C    0.230679
    12  C    0.067822
    13  C    0.207069
    14  C   -0.142058
    16  O   -0.365702
    17  Cl  -0.101239
    18  C    0.033885
    19  C   -0.134189
    21  C    0.024025
    25  C    0.034940
    29  C    0.075698
 APT charges:
               1
     1  C    0.079543
     2  C   -0.191429
     3  C    0.132432
     4  C   -0.328781
     5  C   -0.029095
     6  C   -0.120483
     7  H    0.051448
     8  H    0.085366
     9  H    0.088658
    10  H    0.052217
    11  C    1.073227
    12  C    0.395616
    13  C   -0.170246
    14  C   -0.137144
    15  H    0.075531
    16  O   -0.859954
    17  Cl  -0.364487
    18  C    0.175698
    19  C   -0.139809
    20  H    0.006145
    21  C    0.031772
    22  H   -0.026506
    23  H   -0.009005
    24  H   -0.023607
    25  C   -0.005100
    26  H    0.005166
    27  H   -0.012648
    28  H   -0.003401
    29  C    0.184131
    30  H   -0.015645
    31  H   -0.020714
    32  H    0.021105
 Sum of APT charges =   0.00000
 APT charges with hydrogens summed into heavy atoms:
               1
     1  C    0.130991
     2  C   -0.106063
     3  C    0.132432
     4  C   -0.328781
     5  C    0.059562
     6  C   -0.068266
    11  C    1.073227
    12  C    0.395616
    13  C   -0.149140
    14  C   -0.061612
    16  O   -0.859954
    17  Cl  -0.364487
    18  C    0.175698
    19  C   -0.133665
    21  C   -0.027346
    25  C   -0.015983
    29  C    0.147772
 Electronic spatial extent (au):  <R**2>=           5501.9419
 Charge=              0.0000 electrons
 Dipole moment (field-independent basis, Debye):
    X=             -0.0514    Y=              0.8953    Z=              0.4926  Tot=              1.0232
 Quadrupole moment (field-independent basis, Debye-Ang):
   XX=            -86.4732   YY=           -115.3953   ZZ=           -109.3383
   XY=             -4.3737   XZ=              4.0817   YZ=             -1.4522
 Traceless Quadrupole moment (field-independent basis, Debye-Ang):
   XX=             17.2624   YY=            -11.6597   ZZ=             -5.6027
   XY=             -4.3737   XZ=              4.0817   YZ=             -1.4522
 Octapole moment (field-independent basis, Debye-Ang**2):
  XXX=             31.0384  YYY=             17.3805  ZZZ=             -6.9420  XYY=              9.0309
  XXY=            -13.5821  XXZ=              2.7606  XZZ=             -8.7676  YZZ=              3.4307
  YYZ=              9.3904  XYZ=             -1.6956
 Hexadecapole moment (field-independent basis, Debye-Ang**3):
 XXXX=          -4925.1604 YYYY=          -1763.3419 ZZZZ=           -273.6267 XXXY=             -7.5585
 XXXZ=             90.1213 YYYX=            -29.8827 YYYZ=            -19.7366 ZZZX=              8.9939
 ZZZY=              6.0285 XXYY=          -1132.1619 XXZZ=          -1005.7788 YYZZ=           -342.5347
 XXYZ=             -2.8987 YYXZ=              2.6838 ZZXY=              6.2695
 N-N= 1.239292180560D+03 E-N=-5.097101593973D+03  KE= 1.112212640475D+03
  Exact polarizability: 309.656  -0.429 226.358  23.322   3.713 135.833
 Approx polarizability: 254.551   7.857 225.040  21.017   4.248 151.412
   1 Symmetry operations used in ECPInt.
 ECPInt:  NShTT=   31125 NPrTT=   96136 LenC2=   27462 LenP2D=   61389.
 LDataN:  DoStor=T MaxTD1= 8 Len=  415
 D2PCM: PCM CHGder 2nd derivatives, FixD1E=F FixD2E=F DoIter=F DoCFld=F I1PDM=0
 Calling FoFJK, ICntrl=    100127 FMM=F ISym2X=0 I1Cent= 0 IOpClX= 0 NMat=1 NMatS=1 NMatT=0.
 Full mass-weighted force constant matrix:
 Low frequencies ---   -0.0033   -0.0023    0.0008    6.6961    8.4872   16.6281
 Low frequencies ---   31.7201   43.7769   72.2344
 Diagonal vibrational polarizability:
       22.1395907      12.5943031      76.9859028
 Harmonic frequencies (cm**-1), IR intensities (KM/Mole), Raman scattering
 activities (A**4/AMU), depolarization ratios for plane and unpolarized
 incident light, reduced masses (AMU), force constants (mDyne/A),
 and normal coordinates:
                      1                      2                      3
                      A                      A                      A
 Frequencies --     26.9432                43.1284                71.5785
 Red. masses --      5.3975                 4.7428                 3.6132
 Frc consts  --      0.0023                 0.0052                 0.0109
 IR Inten    --      1.5331                 0.8171                 0.4113
  Atom  AN      X      Y      Z        X      Y      Z        X      Y      Z
     1   6    -0.06   0.03   0.22    -0.03  -0.08   0.09     0.05   0.02  -0.01
     2   6    -0.06   0.02   0.14     0.02  -0.04   0.06     0.04   0.01  -0.01
     3   6    -0.03   0.00   0.02     0.01   0.01   0.01     0.04   0.00   0.00
     4   6     0.00  -0.01  -0.02    -0.03   0.02  -0.02     0.05   0.00   0.01
     5   6     0.00   0.01   0.06    -0.08  -0.01   0.00     0.05   0.01   0.01
     6   6    -0.03   0.03   0.17    -0.07  -0.07   0.06     0.06   0.02   0.00
     7   1    -0.08   0.05   0.31    -0.02  -0.12   0.13     0.05   0.02  -0.02
     8   1    -0.08   0.02   0.18     0.05  -0.05   0.09     0.04   0.01  -0.01
     9   1     0.02   0.00   0.02    -0.11   0.00  -0.03     0.06   0.01   0.02
    10   1    -0.03   0.04   0.23    -0.10  -0.09   0.08     0.06   0.02   0.00
    11   6     0.03  -0.03  -0.14    -0.04   0.08  -0.08     0.05  -0.01   0.01
    12   6    -0.03  -0.02  -0.06     0.05   0.05  -0.01     0.04   0.00   0.00
    13   6     0.01  -0.05  -0.12    -0.01   0.11  -0.03     0.04  -0.01  -0.08
    14   6    -0.02  -0.04  -0.13     0.04   0.10  -0.03     0.04  -0.01  -0.03
    15   1    -0.02  -0.06  -0.19     0.07   0.12  -0.03     0.05  -0.01  -0.04
    16   8     0.06  -0.02  -0.23    -0.07   0.10  -0.15     0.05  -0.02   0.08
    17  17    -0.05  -0.02  -0.09     0.13   0.03  -0.03     0.03   0.00   0.05
    18   6     0.05   0.04   0.09    -0.04  -0.10   0.04    -0.12   0.00  -0.01
    19   6     0.09  -0.03   0.03    -0.03   0.04  -0.03    -0.03   0.01  -0.17
    20   1     0.16  -0.05   0.06    -0.08   0.09  -0.11     0.06   0.06  -0.27
    21   6     0.09   0.08   0.21    -0.11  -0.19   0.00    -0.07   0.05   0.06
    22   1     0.10   0.09   0.24    -0.06  -0.22   0.06    -0.03   0.11   0.21
    23   1     0.15   0.04   0.25    -0.17  -0.12  -0.09     0.03   0.08  -0.03
    24   1     0.03   0.15   0.25    -0.16  -0.30  -0.02    -0.19  -0.01   0.08
    25   6    -0.04   0.09   0.05     0.03  -0.19   0.16    -0.27  -0.05   0.13
    26   1    -0.07   0.06  -0.02     0.08  -0.14   0.20    -0.28  -0.07   0.06
    27   1    -0.04   0.10   0.07     0.07  -0.21   0.21    -0.23   0.00   0.29
    28   1    -0.09   0.14   0.07     0.00  -0.29   0.14    -0.40  -0.12   0.14
    29   6     0.06  -0.07  -0.07     0.03   0.12   0.00    -0.06  -0.03  -0.17
    30   1     0.12  -0.12  -0.10     0.03   0.20  -0.02    -0.12  -0.11  -0.12
    31   1     0.03  -0.06  -0.10     0.09   0.11   0.05    -0.10  -0.02  -0.25
    32   1    -0.03  -0.06  -0.09    -0.04   0.14  -0.01     0.13   0.00  -0.14
                      4                      5                      6
                      A                      A                      A
 Frequencies --     87.6315               111.3623               115.3276
 Red. masses --      3.2632                 4.8140                 4.3123
 Frc consts  --      0.0148                 0.0352                 0.0338
 IR Inten    --      0.0923                 0.1863                 1.4229
  Atom  AN      X      Y      Z        X      Y      Z        X      Y      Z
     1   6    -0.03   0.01   0.01     0.01   0.02   0.08    -0.03   0.00   0.14
     2   6    -0.04   0.00   0.04    -0.01   0.02   0.17    -0.05   0.00   0.22
     3   6    -0.03  -0.01   0.01     0.01   0.01   0.09    -0.02  -0.01   0.06
     4   6    -0.01  -0.01  -0.04     0.03   0.02  -0.03     0.01  -0.01  -0.09
     5   6     0.01  -0.01  -0.07     0.05   0.01  -0.15     0.04  -0.01  -0.23
     6   6     0.00   0.01  -0.05     0.04   0.02  -0.11     0.03   0.00  -0.15
     7   1    -0.03   0.02   0.04     0.00   0.01   0.15    -0.05   0.01   0.26
     8   1    -0.06   0.01   0.08    -0.03   0.02   0.29    -0.08   0.00   0.40
     9   1     0.02  -0.01  -0.11     0.07   0.01  -0.28     0.07  -0.01  -0.37
    10   1     0.01   0.02  -0.08     0.06   0.01  -0.22     0.05   0.00  -0.26
    11   6    -0.01  -0.03  -0.03     0.01   0.02   0.01     0.00  -0.02   0.02
    12   6    -0.04  -0.02   0.00     0.00   0.01   0.11     0.00  -0.01  -0.01
    13   6    -0.01  -0.04  -0.03    -0.01   0.01   0.15     0.01   0.00  -0.06
    14   6    -0.02  -0.03  -0.08    -0.01   0.02   0.21     0.01  -0.01  -0.12
    15   1    -0.02  -0.04  -0.11    -0.01   0.02   0.22     0.02  -0.02  -0.21
    16   8     0.00  -0.03  -0.03     0.02   0.03  -0.08    -0.04  -0.04   0.23
    17  17    -0.07  -0.01   0.08     0.05   0.00  -0.15     0.00  -0.01  -0.02
    18   6     0.07   0.03   0.01    -0.05  -0.03   0.00     0.01   0.02  -0.01
    19   6     0.07   0.08  -0.02    -0.05  -0.09   0.04     0.01   0.07  -0.03
    20   1     0.12   0.15  -0.16    -0.02  -0.08   0.01    -0.02   0.05   0.00
    21   6     0.12   0.10  -0.19     0.05   0.09  -0.13    -0.07  -0.07   0.10
    22   1     0.07   0.22  -0.16    -0.04   0.20  -0.20     0.00  -0.16   0.15
    23   1     0.14   0.18  -0.34     0.09   0.09  -0.14    -0.10  -0.07   0.11
    24   1     0.19  -0.06  -0.26     0.18   0.09  -0.17    -0.17  -0.06   0.13
    25   6     0.03  -0.09   0.21    -0.13  -0.03   0.04     0.07   0.04  -0.05
    26   1     0.00  -0.12   0.34    -0.18  -0.09   0.07     0.11   0.08  -0.09
    27   1     0.00   0.01   0.27    -0.17   0.05   0.05     0.10  -0.03  -0.07
    28   1     0.06  -0.24   0.17    -0.11  -0.06   0.03     0.05   0.07  -0.04
    29   6     0.05   0.05   0.04    -0.08  -0.12   0.07     0.02   0.09  -0.03
    30   1     0.10   0.13   0.00    -0.14  -0.22   0.13     0.05   0.15  -0.06
    31   1     0.05   0.06   0.14    -0.08  -0.12  -0.07     0.03   0.08   0.05
    32   1    -0.06  -0.08   0.01     0.02   0.09   0.11     0.00  -0.06  -0.05
                      7                      8                      9
                      A                      A                      A
 Frequencies --    177.7081               181.5432               209.9445
 Red. masses --      1.3358                 2.1790                 3.1181
 Frc consts  --      0.0249                 0.0423                 0.0810
 IR Inten    --      0.6143                 1.1585                 5.2626
  Atom  AN      X      Y      Z        X      Y      Z        X      Y      Z
     1   6     0.02   0.01  -0.03    -0.03  -0.01   0.07    -0.02   0.00  -0.12
     2   6     0.00   0.00   0.02     0.00   0.00  -0.04    -0.04   0.01   0.07
     3   6     0.00  -0.01   0.05     0.01   0.02  -0.11    -0.06   0.02   0.16
     4   6     0.00  -0.01   0.05     0.00   0.02  -0.11    -0.06   0.02   0.17
     5   6     0.02   0.00   0.02    -0.03   0.01  -0.04    -0.06   0.01   0.08
     6   6     0.03   0.01  -0.03    -0.05  -0.01   0.07    -0.03   0.00  -0.11
     7   1     0.02   0.01  -0.08    -0.05  -0.02   0.15     0.01  -0.01  -0.28
     8   1    -0.01   0.00   0.02     0.01   0.00  -0.04    -0.03   0.00   0.06
     9   1     0.03  -0.01   0.01    -0.05   0.01  -0.03    -0.08   0.02   0.08
    10   1     0.04   0.01  -0.08    -0.07  -0.01   0.17     0.00  -0.01  -0.27
    11   6     0.01  -0.01   0.01    -0.01   0.02  -0.03    -0.03   0.03   0.03
    12   6     0.00  -0.02   0.03     0.01   0.03  -0.05    -0.03   0.03   0.06
    13   6     0.00  -0.01   0.02     0.00   0.03  -0.02    -0.01   0.03  -0.10
    14   6     0.00  -0.02   0.00    -0.01   0.03   0.02    -0.01   0.03  -0.11
    15   1     0.01  -0.02  -0.03    -0.02   0.04   0.10     0.01   0.02  -0.26
    16   8     0.03   0.00  -0.07    -0.05   0.01   0.12    -0.02   0.02   0.04
    17  17    -0.01  -0.02  -0.01     0.02   0.03   0.02     0.05   0.01  -0.02
    18   6    -0.01   0.03  -0.01     0.02  -0.05   0.02     0.03  -0.06   0.02
    19   6    -0.01   0.04  -0.02     0.02  -0.09   0.03     0.04  -0.08   0.00
    20   1    -0.01   0.05  -0.03     0.03  -0.10   0.04     0.06  -0.08   0.00
    21   6    -0.05  -0.02   0.02     0.08   0.01   0.00     0.09   0.01   0.02
    22   1     0.11   0.07   0.42     0.10   0.14   0.18    -0.03  -0.01  -0.23
    23   1     0.06   0.16  -0.31     0.19   0.09  -0.17     0.07  -0.12   0.23
    24   1    -0.36  -0.33   0.02    -0.03  -0.13  -0.01     0.30   0.22   0.02
    25   6     0.01   0.02  -0.02    -0.02  -0.02  -0.01    -0.01  -0.04   0.00
    26   1    -0.11  -0.11   0.27    -0.21  -0.23   0.32    -0.13  -0.17   0.20
    27   1    -0.19   0.20  -0.26    -0.29   0.23  -0.30    -0.18   0.12  -0.18
    28   1     0.37   0.00  -0.10     0.42  -0.03  -0.10     0.26  -0.04  -0.05
    29   6    -0.01   0.03   0.02     0.02  -0.08  -0.03     0.04  -0.05  -0.08
    30   1    -0.02   0.06   0.02     0.03  -0.14  -0.02     0.08  -0.09  -0.10
    31   1    -0.02   0.03   0.05     0.04  -0.08  -0.11     0.06  -0.05  -0.14
    32   1     0.00  -0.03   0.02     0.00   0.06  -0.03     0.00   0.00  -0.10
                     10                     11                     12
                      A                      A                      A
 Frequencies --    216.3907               226.1707               295.7951
 Red. masses --      1.6271                 3.9556                 2.9897
 Frc consts  --      0.0449                 0.1192                 0.1541
 IR Inten    --      0.5393                 0.9500                 0.6239
  Atom  AN      X      Y      Z        X      Y      Z        X      Y      Z
     1   6     0.01   0.06   0.02    -0.07   0.16  -0.02    -0.02   0.04  -0.01
     2   6    -0.01   0.03  -0.02    -0.12   0.09  -0.03    -0.04   0.01  -0.03
     3   6     0.00  -0.01  -0.04    -0.09  -0.01  -0.02    -0.03  -0.02   0.00
     4   6     0.02  -0.02  -0.03    -0.04  -0.02   0.00    -0.01  -0.03  -0.02
     5   6     0.05   0.01  -0.01     0.02   0.05   0.01     0.01  -0.01   0.00
     6   6     0.04   0.05   0.02     0.00   0.15   0.00     0.00   0.03   0.03
     7   1     0.00   0.08   0.05    -0.08   0.23  -0.03    -0.03   0.06  -0.01
     8   1    -0.04   0.03  -0.02    -0.19   0.10  -0.05    -0.07   0.02  -0.04
     9   1     0.09   0.00  -0.01     0.10   0.03   0.03     0.04  -0.02   0.01
    10   1     0.05   0.07   0.05     0.05   0.19   0.01     0.01   0.05   0.06
    11   6     0.01  -0.02  -0.01    -0.04  -0.03  -0.01    -0.01  -0.02  -0.02
    12   6     0.00  -0.03  -0.04    -0.07  -0.02  -0.02    -0.02  -0.01   0.10
    13   6    -0.01  -0.02   0.01    -0.05  -0.02  -0.01     0.02   0.00  -0.02
    14   6     0.00  -0.02  -0.04    -0.08   0.01  -0.03    -0.02   0.01   0.18
    15   1     0.00  -0.02  -0.02    -0.08   0.00  -0.03    -0.04   0.01   0.27
    16   8     0.02  -0.02  -0.03    -0.05  -0.03   0.00    -0.07  -0.01   0.01
    17  17     0.04  -0.05   0.02     0.19  -0.11   0.04    -0.01  -0.02  -0.03
    18   6    -0.06   0.01   0.04     0.02   0.00  -0.02     0.06   0.09  -0.02
    19   6    -0.05   0.03   0.02     0.00  -0.03   0.03     0.09   0.11  -0.11
    20   1    -0.06   0.03   0.02     0.00  -0.04   0.05     0.20   0.12  -0.15
    21   6    -0.07   0.00  -0.01     0.03   0.01  -0.02    -0.03  -0.03   0.03
    22   1    -0.21  -0.12  -0.39     0.14   0.12   0.30    -0.01  -0.19  -0.09
    23   1    -0.23  -0.15   0.30     0.16   0.15  -0.30    -0.16  -0.09   0.19
    24   1     0.23   0.27  -0.02    -0.20  -0.25  -0.03    -0.01   0.10   0.06
    25   6    -0.02   0.01   0.02     0.01   0.00  -0.02     0.16   0.00   0.09
    26   1    -0.14  -0.12   0.31     0.12   0.12  -0.26     0.17   0.02   0.26
    27   1    -0.23   0.18  -0.24     0.19  -0.15   0.19     0.13   0.02   0.04
    28   1     0.34   0.00  -0.06    -0.30   0.03   0.05     0.29  -0.13   0.04
    29   6    -0.02   0.05   0.03    -0.01  -0.04   0.02    -0.07  -0.08  -0.15
    30   1    -0.02   0.10   0.01     0.02  -0.04   0.01    -0.10  -0.32  -0.08
    31   1    -0.01   0.05   0.09    -0.01  -0.04   0.02    -0.23  -0.03  -0.32
    32   1    -0.02  -0.05   0.02    -0.07  -0.04   0.01     0.10   0.12  -0.11
                     13                     14                     15
                      A                      A                      A
 Frequencies --    320.6797               337.4526               370.2297
 Red. masses --      3.2244                 5.8146                10.2411
 Frc consts  --      0.1954                 0.3901                 0.8271
 IR Inten    --      5.4838                10.1909                 0.1501
  Atom  AN      X      Y      Z        X      Y      Z        X      Y      Z
     1   6     0.00  -0.05   0.00    -0.14  -0.06  -0.01     0.02  -0.05   0.02
     2   6     0.03   0.00   0.02    -0.07   0.00  -0.03     0.14   0.06  -0.02
     3   6     0.01   0.04   0.00    -0.08   0.08  -0.03     0.10   0.10   0.01
     4   6     0.00   0.06   0.00    -0.06   0.09  -0.03     0.03   0.20  -0.02
     5   6    -0.05   0.02   0.00    -0.15   0.02  -0.06    -0.11   0.09  -0.07
     6   6    -0.04  -0.04  -0.02    -0.16  -0.05  -0.02    -0.11  -0.03   0.01
     7   1     0.01  -0.08  -0.01    -0.13  -0.11   0.02     0.05  -0.17   0.06
     8   1     0.08  -0.02   0.03     0.01  -0.02  -0.03     0.24   0.04  -0.04
     9   1    -0.10   0.04   0.00    -0.25   0.06  -0.09    -0.22   0.13  -0.12
    10   1    -0.06  -0.06  -0.03    -0.19  -0.07   0.00    -0.18  -0.09   0.05
    11   6     0.03   0.01  -0.01     0.05  -0.07   0.03     0.04   0.29   0.00
    12   6    -0.01   0.02  -0.03    -0.08   0.08   0.02    -0.06  -0.12   0.04
    13   6    -0.03  -0.03  -0.07     0.01  -0.12   0.09    -0.10   0.10  -0.04
    14   6    -0.01  -0.02  -0.07    -0.06  -0.04   0.07    -0.09   0.02   0.01
    15   1    -0.01  -0.02  -0.10    -0.15  -0.12   0.10     0.02   0.12   0.04
    16   8     0.16  -0.03   0.03     0.32  -0.13   0.00     0.19   0.26   0.08
    17  17     0.03   0.02   0.01     0.09   0.07   0.01    -0.08  -0.35   0.00
    18   6    -0.05   0.07   0.14     0.04   0.02  -0.12     0.00  -0.02  -0.06
    19   6    -0.04  -0.01   0.17     0.04   0.06  -0.15    -0.02   0.00  -0.05
    20   1     0.04  -0.07   0.26     0.03   0.11  -0.24    -0.04   0.01  -0.06
    21   6    -0.13  -0.01  -0.11     0.03   0.00   0.08     0.07   0.05   0.06
    22   1    -0.14   0.01  -0.11     0.07  -0.12   0.04     0.06   0.11   0.11
    23   1    -0.27   0.15  -0.30     0.04  -0.12   0.27     0.22  -0.03   0.12
    24   1    -0.04  -0.28  -0.22    -0.06   0.22   0.17     0.01   0.19   0.12
    25   6     0.09   0.09   0.07    -0.01  -0.04  -0.01     0.06  -0.07  -0.01
    26   1     0.16   0.17   0.03    -0.04  -0.08   0.09     0.11  -0.02   0.07
    27   1     0.15  -0.04   0.04    -0.04   0.04   0.02     0.08  -0.11   0.00
    28   1     0.07   0.12   0.09     0.03  -0.14  -0.04     0.08  -0.16  -0.03
    29   6    -0.08  -0.11  -0.08     0.00   0.02   0.09    -0.03   0.03  -0.03
    30   1    -0.03  -0.35  -0.06    -0.05   0.18   0.09    -0.01   0.08  -0.05
    31   1    -0.16  -0.09  -0.26    -0.02   0.03   0.26     0.02   0.02   0.00
    32   1     0.01  -0.04  -0.10    -0.02  -0.13   0.11    -0.07   0.03  -0.05
                     16                     17                     18
                      A                      A                      A
 Frequencies --    400.8906               416.4182               435.8635
 Red. masses --      2.8003                 3.4256                 2.9949
 Frc consts  --      0.2652                 0.3500                 0.3352
 IR Inten    --      2.1893                 4.6981                 0.8061
  Atom  AN      X      Y      Z        X      Y      Z        X      Y      Z
     1   6     0.02   0.00   0.04     0.02   0.00  -0.02     0.02   0.01  -0.11
     2   6     0.01  -0.01   0.04     0.02  -0.01  -0.12    -0.03   0.01   0.17
     3   6     0.02   0.00  -0.06    -0.02  -0.01   0.14     0.02  -0.01  -0.07
     4   6     0.00  -0.01   0.05     0.00  -0.02  -0.04     0.01   0.00  -0.15
     5   6     0.01   0.00   0.04     0.04   0.00  -0.12    -0.04   0.01   0.17
     6   6     0.04   0.00  -0.06     0.00   0.00   0.14     0.00   0.01  -0.04
     7   1     0.01   0.00   0.09     0.03   0.01  -0.07     0.04   0.01  -0.22
     8   1     0.00  -0.01   0.08     0.04  -0.01  -0.29    -0.10   0.01   0.44
     9   1     0.02   0.00   0.07     0.09  -0.01  -0.27    -0.08   0.00   0.46
    10   1     0.05  -0.01  -0.15    -0.03   0.00   0.31     0.00   0.01  -0.05
    11   6    -0.02  -0.01   0.06    -0.01  -0.05  -0.05     0.01  -0.03  -0.13
    12   6     0.03   0.00  -0.15    -0.03   0.01   0.25     0.02  -0.01   0.01
    13   6    -0.03  -0.01   0.05    -0.02  -0.01  -0.09     0.00   0.01  -0.08
    14   6     0.01  -0.01  -0.06     0.01   0.00  -0.01     0.01   0.01   0.13
    15   1     0.00  -0.01  -0.03     0.03  -0.01  -0.17    -0.01   0.03   0.33
    16   8    -0.02   0.01  -0.04     0.02  -0.06   0.02     0.04  -0.06   0.04
    17  17     0.01   0.04   0.02     0.01   0.03  -0.03    -0.01  -0.02  -0.01
    18   6    -0.09  -0.01  -0.05    -0.11  -0.06   0.06    -0.06  -0.04   0.05
    19   6    -0.11  -0.03  -0.02    -0.10  -0.03   0.02    -0.04  -0.01   0.00
    20   1    -0.10  -0.04  -0.01    -0.14  -0.04   0.04    -0.08  -0.01   0.01
    21   6     0.03   0.14   0.08     0.01   0.11   0.03    -0.01   0.05   0.00
    22   1    -0.01   0.29   0.16    -0.08   0.33   0.08    -0.07   0.17   0.01
    23   1     0.29   0.04   0.12     0.21   0.10  -0.05     0.08   0.06  -0.06
    24   1    -0.04   0.30   0.15     0.06   0.11   0.01     0.05   0.01  -0.02
    25   6     0.15  -0.11   0.01     0.07  -0.06  -0.02     0.01  -0.01  -0.02
    26   1     0.31   0.07   0.17     0.20   0.09   0.01     0.07   0.05  -0.03
    27   1     0.23  -0.28  -0.03     0.13  -0.24  -0.11     0.04  -0.11  -0.08
    28   1     0.22  -0.28  -0.04     0.11  -0.04  -0.03     0.04   0.04  -0.01
    29   6    -0.13  -0.03  -0.01     0.00   0.08  -0.04     0.04   0.08  -0.03
    30   1    -0.19  -0.09   0.05     0.05   0.24  -0.11     0.10   0.25  -0.10
    31   1    -0.12  -0.03  -0.08     0.10   0.05   0.13     0.12   0.06   0.15
    32   1     0.01  -0.05   0.03    -0.01   0.03  -0.10    -0.02   0.13  -0.09
                     19                     20                     21
                      A                      A                      A
 Frequencies --    460.0291               481.3302               500.6638
 Red. masses --      3.7024                 4.4012                 2.5935
 Frc consts  --      0.4616                 0.6008                 0.3830
 IR Inten    --      4.3979                 1.8265                 1.2805
  Atom  AN      X      Y      Z        X      Y      Z        X      Y      Z
     1   6    -0.12  -0.01   0.10     0.04   0.05   0.08     0.00  -0.02  -0.10
     2   6    -0.11  -0.04  -0.08     0.11   0.09  -0.03    -0.03  -0.01   0.06
     3   6    -0.08  -0.06  -0.08     0.11   0.05   0.00    -0.03   0.01   0.03
     4   6     0.01  -0.07   0.16    -0.12   0.08   0.08     0.06   0.00  -0.13
     5   6     0.05  -0.10  -0.01    -0.13   0.12  -0.04     0.02  -0.02   0.00
     6   6     0.04  -0.04  -0.08    -0.12   0.10  -0.07     0.01  -0.03   0.07
     7   1    -0.17   0.07   0.24     0.06  -0.08   0.16     0.01   0.00  -0.20
     8   1    -0.11  -0.04  -0.16     0.10   0.10  -0.10    -0.01  -0.02   0.14
     9   1     0.07  -0.10  -0.11    -0.11   0.12  -0.11    -0.02  -0.01   0.09
    10   1     0.12   0.02  -0.19    -0.18   0.03  -0.16     0.00  -0.02   0.20
    11   6     0.07   0.03   0.09    -0.11  -0.09   0.03     0.04   0.04   0.02
    12   6    -0.03   0.01  -0.07     0.13  -0.03  -0.02    -0.05   0.01   0.00
    13   6     0.07   0.07  -0.04    -0.01  -0.08   0.00     0.02  -0.01   0.13
    14   6    -0.06   0.09   0.10     0.15  -0.13   0.05    -0.04   0.00  -0.09
    15   1    -0.10   0.09   0.32     0.16  -0.11   0.11    -0.04  -0.04  -0.31
    16   8     0.10   0.04  -0.01    -0.08  -0.10  -0.04    -0.02   0.06   0.00
    17  17    -0.02  -0.01   0.00     0.00  -0.02   0.00     0.01   0.00   0.01
    18   6    -0.06  -0.10   0.17    -0.03  -0.11   0.17    -0.04  -0.09   0.14
    19   6     0.01   0.03  -0.03     0.04   0.07  -0.07     0.05   0.08  -0.11
    20   1     0.02   0.07  -0.12     0.11   0.18  -0.28     0.16   0.21  -0.37
    21   6     0.02   0.01  -0.01     0.05  -0.03   0.00     0.03  -0.02   0.01
    22   1    -0.10   0.21  -0.04    -0.06   0.14  -0.04    -0.05   0.11  -0.03
    23   1     0.09   0.07  -0.14     0.10   0.02  -0.10     0.07   0.01  -0.05
[...]
 0.00000926,0.00000186,0.00002109,-0.00000207,-0.00000559,-0.00000097,-
 0.00000032,0.00000185,-0.00000255,0.00000048,0.00000859,-0.00000067,0.
 00000492,-0.00000764,0.00000241,-0.00000058,0.00025722,-0.00014641,0.0
 0002006,-0.00000445,0.00005327,0.00000143,0.00002320,-0.00001710,0.000
 06688,-0.00000738,0.00007729,-0.00005786,0.00000250,0.00000997,-0.0000
 0366,-0.00011541,0.00009231,-0.00004953,-0.00003978,-0.00008449,-0.000
 00023,-0.00700155,-0.00418667,-0.00106902,0.00150209,-0.00121907,0.000
 49446,-0.00013198,-0.00005691,-0.00048660,0.00032376,0.00096323,-0.000
 01466,0.00048642,-0.00020071,0.00016746,0.00012680,0.00009439,-0.00028
 604,0.00003387,0.00003095,0.00001442,-0.22264392,-0.09496615,0.0806887
 3,-0.01792900,-0.01155123,0.00893699,0.24019254,0.00000491,-0.00000964
 ,0.00000183,-0.00002610,0.00001479,0.00000098,0.00003415,-0.00002205,0
 .00000792,-0.00001786,0.00004994,-0.00006611,-0.00001977,-0.00001754,0
 .00000061,-0.00000396,0.00001481,0.00000488,-0.00000355,-0.00000031,-0
 .00000188,0.00000273,-0.00000130,-0.00000110,0.00000448,0.00000173,-0.
 00000288,-0.00000370,0.00000152,-0.00000294,0.00003252,-0.00032829,0.0
 0011468,0.00000672,0.00007237,-0.00001012,-0.00036472,0.00037579,0.000
 03259,0.00006440,0.00006094,0.00004652,0.00003926,0.00004220,-0.000030
 76,0.00003785,0.00019959,0.00005847,-0.00001999,-0.00004525,-0.0000054
 7,-0.02375771,-0.01284868,0.00954944,0.00139709,-0.00312209,-0.0018430
 0,-0.00001015,0.00063575,-0.00195317,-0.00040722,0.00083349,0.00028878
 ,0.00060790,-0.00050976,-0.00045726,0.00011771,0.00049241,-0.00015221,
 -0.00002751,-0.00000938,0.00001378,-0.09580198,-0.10146010,0.04328676,
 0.01657489,0.01073876,-0.00865700,0.10781416,0.10938779,0.00000084,-0.
 00000142,0.00000019,0.00000139,-0.00000184,0.00000215,0.00000236,-0.00
 000462,0.00000088,0.00001844,0.00000926,-0.00002365,-0.00000348,0.0000
 0453,0.00000179,0.00000147,0.00000320,0.00000236,0.00000105,0.00000027
 ,-0.00000017,-0.00000025,0.00000046,-0.00000048,-0.00000180,0.00000080
 ,-0.00000084,0.00000091,-0.00000058,-0.00000037,-0.00005558,-0.0000556
 2,0.00005127,-0.00001744,-0.00000453,-0.00000081,-0.00012541,0.0001002
 4,-0.00008571,0.00003041,0.00000489,0.00000641,0.00001080,-0.00000148,
 -0.00001961,0.00002989,0.00003881,0.00001612,0.00000728,0.00001134,-0.
 00000188,-0.01748408,-0.01061064,0.00616692,0.00048693,-0.00215523,-0.
 00122592,0.00000079,0.00044725,-0.00153872,-0.00039193,0.00061582,0.00
 036463,0.00021839,0.00013759,-0.00002194,-0.00014341,0.00020684,-0.000
 05388,0.00016233,0.00008778,-0.00010441,0.07956659,0.04315902,-0.07767
 392,-0.00201765,-0.00130258,-0.00019644,-0.08616050,-0.04412384,0.0852
 0775,-0.00000288,0.00000577,0.00000059,0.00001168,-0.00000674,0.000008
 70,-0.00001356,0.00001272,-0.00001084,0.00001107,-0.00001283,-0.000037
 60,0.00000858,0.00000459,0.00000408,-0.00000132,-0.00000663,0.00000507
 ,0.00000175,0.00000007,-0.00000160,-0.00000079,0.00000037,-0.00000311,
 0.00000046,-0.00000045,-0.00000550,0.00000169,-0.00000061,-0.00000178,
 -0.00000491,0.00007980,0.00001892,0.00000748,-0.00002039,0.00000594,0.
 00010988,0.00006515,-0.00018455,-0.00002016,-0.00000067,0.00011120,-0.
 00000727,-0.00002050,-0.00003771,-0.00003451,-0.00004188,0.00008441,0.
 00001091,0.00001594,-0.00000625,-0.00373708,-0.00027454,-0.00849788,0.
 00029888,-0.00058058,-0.00027014,-0.00045750,-0.00044424,0.00031600,-0
 .00003723,0.00042825,0.00047991,0.00008543,-0.00000212,0.00013723,-0.0
 0011797,-0.00008049,0.00002551,0.00035220,0.00018748,0.00009693,-0.053
 54590,0.01450062,-0.04690239,-0.00407037,0.00500715,-0.02398919,0.0052
 9915,-0.00624740,0.02608072,0.05553954,0.00000209,-0.00000558,0.000000
 70,-0.00001195,0.00000808,-0.00000363,0.00001476,-0.00001627,0.0000009
 4,0.00000333,0.00000777,-0.00000604,-0.00000585,-0.00000490,-0.0000016
 3,0.00000006,0.00000645,-0.00000054,-0.00000155,0.00000017,0.00000030,
 0.00000097,-0.00000038,-0.00000023,-0.00000005,0.00000045,0.00000227,-
 0.00000135,0.00000055,0.00000018,0.00005100,-0.00011691,0.00004993,-0.
 00000363,0.00004177,0.00000683,-0.00008183,-0.00008348,0.00003741,0.00
 002278,0.00001324,0.00001996,-0.00002362,0.00002781,-0.00004664,0.0000
 2635,0.00007202,-0.00003503,-0.00000894,-0.00002202,0.00000102,-0.0059
 6503,0.00691541,-0.02920121,0.00019932,-0.00333025,-0.00102465,-0.0013
 5431,-0.00112482,0.00154521,-0.00046639,0.00081614,0.00009625,-0.00003
 289,-0.00005355,0.00008675,-0.00020190,0.00019686,0.00032432,0.0002692
 7,-0.00049263,0.00031259,0.01371935,-0.06074900,0.05796526,0.00215945,
 -0.00495215,0.01935200,0.00331563,-0.00396930,0.01374748,-0.01194674,0
 .06599038,0.00000117,-0.00000776,0.00000231,-0.00002354,0.00001296,0.0
 0000039,0.00002506,-0.00001355,0.00000030,-0.00003652,0.00003903,-0.00
 003846,-0.00001614,-0.00002222,-0.00000078,-0.00000532,0.00000984,0.00
 000416,-0.00000354,-0.00000047,-0.00000251,0.00000165,-0.00000177,-0.0
 0000311,0.00000661,0.00000054,-0.00000408,-0.00000413,0.00000154,-0.00
 000330,0.00004666,-0.00017357,0.00003539,0.00001803,0.00006782,0.00000
 763,-0.00020998,0.00010426,-0.00012879,-0.00001165,0.00004731,0.000082
 06,0.00000532,0.00003063,-0.00005431,-0.00003796,0.00008155,0.00005590
 ,-0.00002435,-0.00005623,-0.00000463,-0.00535033,0.00231603,-0.0162001
 5,0.00153658,-0.00208913,-0.00032361,-0.00075950,-0.00063818,0.0006235
 4,-0.00032191,0.00049977,0.00050375,-0.00004641,0.00008862,-0.00000438
 ,-0.00008136,-0.00010879,0.00044929,0.00050604,-0.00045168,0.00025955,
 -0.04658655,0.05965900,-0.28448514,0.00019700,-0.00008333,0.00092937,-
 0.00216166,0.00301430,-0.01139995,0.05290917,-0.06252114,0.30992370,-0
 .00010289,0.00032376,-0.00003343,0.00050768,-0.00017169,0.00027322,-0.
 00099929,0.00094687,-0.00000669,-0.00107689,0.00160082,-0.00261395,-0.
 00006711,-0.00032183,-0.00004620,-0.00020896,-0.00013493,0.00015596,0.
 00002558,-0.00000026,-0.00002091,-0.00000470,0.00000205,0.00003000,0.0
 0004017,-0.00000496,-0.00006206,-0.00001875,-0.00002295,-0.00004439,-0
 .02306394,0.00831837,0.02144017,0.00301648,-0.00055558,0.00105247,-0.0
 8058990,-0.00149058,0.03526016,-0.01298137,-0.01279156,0.00939483,0.00
 041118,0.00080979,-0.00040588,-0.00119524,-0.00603089,-0.00048275,0.00
 001164,0.00020278,-0.00046585,-0.02669708,0.01661718,-0.00426875,-0.16
 520087,0.06559136,-0.00668222,0.00335220,-0.00194610,-0.00294007,0.001
 16397,-0.00043142,-0.00417086,0.00020843,-0.00004989,0.00003180,0.0002
 1812,0.00000917,0.00016870,-0.00108310,0.00040964,0.00008140,0.0002463
 7,-0.00020402,0.00315997,-0.00126674,-0.00010051,-0.00055925,-0.000127
 05,0.00004243,-0.00018118,0.00010666,0.00077157,0.00049450,0.48099506,
 0.00040051,-0.00060362,0.00005930,-0.00073295,0.00029401,-0.00040933,0
 .00156059,-0.00141357,0.00110330,0.00251224,-0.00156735,0.00269958,-0.
 00053435,0.00087983,-0.00002620,0.00056633,0.00066069,-0.00010228,-0.0
 0002344,0.00001173,0.00003804,0.00011135,0.00001393,0.00002319,-0.0002
 0233,0.00004154,0.00001316,0.00009432,0.00002682,0.00003164,0.00678119
 ,0.00686636,-0.01868585,0.00042239,-0.00165120,0.00057594,-0.00599623,
 -0.07328583,0.01201688,-0.02373627,-0.00600554,0.02507575,0.00082437,0
 .00038236,-0.00083267,0.00139813,-0.00415675,0.00148774,-0.00075840,-0
 .00197987,-0.00204650,-0.00012326,0.00888952,0.00398014,0.06580389,-0.
 14037081,-0.00880752,0.02283511,-0.01251073,0.00134287,-0.00028269,0.0
 0208683,-0.00544537,0.00059536,-0.00001194,0.00042753,-0.00022339,0.00
 032012,0.00018508,-0.00113246,0.00076460,-0.00011476,-0.00164332,-0.00
 087559,0.00146462,-0.00119241,-0.00004248,-0.00083699,0.00036963,-0.00
 091192,-0.00031142,-0.00032417,0.00029540,0.00005845,0.02030906,0.5809
 6519,0.00017025,-0.00079174,0.00002236,-0.00130173,0.00025288,-0.00020
 397,0.00181518,-0.00110019,0.00059425,-0.00039903,0.00109216,-0.001998
 60,-0.00096018,-0.00023159,-0.00003169,0.00024603,0.00057631,0.0001768
 6,-0.00004175,-0.00001805,-0.00000464,-0.00002725,-0.00003461,0.000007
 40,0.00011777,0.00002718,0.00001622,-0.00008067,0.00001823,-0.00004615
 ,0.00751908,-0.01255967,-0.00156277,-0.00374090,-0.00028062,-0.0009204
 3,0.02721418,0.00825603,-0.11350788,0.00498204,0.00889154,-0.00109157,
 -0.00007871,-0.00034860,0.00051740,0.00135608,0.00591297,0.00106515,-0
 .00033688,-0.00101439,-0.00033780,-0.01112042,0.00925320,0.00360321,-0
 .01258669,-0.00371257,-0.07802488,0.01001739,-0.00720942,0.00248822,-0
 .00529720,-0.00549698,0.00814180,-0.00193549,0.00140806,-0.00038619,0.
 00015489,0.00019549,-0.00000704,0.00168350,-0.00084934,0.00008663,0.00
 096993,0.00219165,-0.00560144,-0.00089806,0.00049774,0.00022073,0.0000
 3700,0.00078453,0.00052049,-0.00077674,-0.00054867,-0.00019384,0.08512
 342,0.03174720,0.48931120,0.00000849,0.00002309,0.00000287,0.00004684,
 -0.00002448,0.00000300,-0.00013941,0.00000567,-0.00005775,-0.00014383,
 -0.00000200,0.00016370,-0.00003329,0.00005041,-0.00006971,0.00000278,0
 .00000820,-0.00000434,0.00000411,0.00000069,0.00000185,0.00000407,0.00
 000395,0.00000044,0.00000079,-0.00000401,0.00000091,0.00000670,-0.0000
 0242,0.00000716,0.00159086,-0.00051067,0.00067791,-0.00000748,-0.00000
 038,-0.00035718,0.00839724,0.00310686,0.01862311,0.00149323,0.00096736
 ,0.00000513,-0.00005730,-0.00004095,-0.00000044,0.00001745,0.00025199,
 -0.00034868,-0.00000027,0.00009236,0.00006851,-0.00190040,0.00397420,0
 .00031997,-0.01651417,-0.00567652,-0.02286758,0.00104207,-0.00013527,0
 .00075563,-0.00110654,-0.00095711,0.00051393,-0.00042277,0.00032316,-0
 .00003120,0.00004840,0.00007726,0.00002955,-0.00000679,0.00004360,-0.0
 0004389,0.00019915,0.00051253,-0.00030076,0.00006705,0.00016730,0.0002
 1683,-0.00005068,-0.00007935,-0.00000553,-0.00022103,-0.00001473,-0.00
 009022,-0.11968682,-0.02384480,-0.11684600,0.13407953,-0.00002739,0.00
 003283,-0.00000549,0.00006724,-0.00004356,0.00000272,-0.00020658,0.000
 16870,-0.00001991,0.00006870,0.00000039,0.00015324,0.00006338,-0.00001
 677,0.00003852,0.00000353,-0.00006883,0.00000499,0.00000553,-0.0000019
 7,0.00000023,-0.00001626,-0.00000045,0.00000069,0.00000517,-0.00001654
 ,-0.00001872,0.00000437,-0.00000343,-0.00000833,-0.00006219,0.00004169
 ,-0.00065570,-0.00009865,0.00005238,-0.00025603,0.00170763,0.00005234,
 0.00535606,0.00109565,0.00030894,0.00100649,0.00001384,-0.00000098,0.0
 0005139,0.00046210,-0.00020147,0.00002254,0.00008561,0.00013092,-0.000
 00833,0.00193280,-0.00262749,-0.00045375,0.01284592,0.00293836,0.01830
 254,-0.00043984,0.00089933,0.00031210,0.00077882,0.00083608,-0.0005495
 6,0.00036824,-0.00025416,-0.00002855,-0.00001829,-0.00003187,-0.000013
 36,-0.00005001,-0.00001399,0.00003231,-0.00007013,-0.00054456,-0.00043
 539,-0.00010707,0.00044486,0.00032079,-0.00003261,0.00015655,0.0000081
 3,-0.00026485,0.00022508,0.00004735,-0.02508494,-0.05927432,-0.0404295
 2,0.02315627,0.05949948,-0.00001064,0.00006895,-0.00000809,0.00010999,
 0.00000502,0.00004757,-0.00002686,0.00008719,0.00002030,0.00024089,-0.
 00023716,-0.00035966,0.00016998,0.00000905,0.00009257,-0.00002336,-0.0
 0007623,0.00002135,0.00000068,0.00000205,-0.00000498,0.00000689,0.0000
 0358,-0.00001266,-0.00002437,-0.00000287,-0.00002838,0.00001078,0.0000
 0202,-0.00001029,-0.00170462,0.00160464,-0.00093671,0.00050293,0.00030
 021,0.00038866,-0.00858676,-0.00427147,-0.02368102,-0.00144517,-0.0014
 9426,0.00070879,0.00002029,0.00007400,-0.00010029,0.00042445,-0.001176
 74,0.00023028,0.00010581,0.00009754,-0.00013803,0.00027946,0.00061437,
 0.00040559,0.00125471,-0.00136970,0.00148753,0.00000676,0.00029510,0.0
 0085996,0.00000038,-0.00006733,-0.00011127,-0.00002258,0.00000873,-0.0
 0001224,-0.00001180,0.00000217,-0.00000122,-0.00004681,0.00003506,-0.0
 0000949,0.00023712,0.00002321,0.00008611,0.00001088,0.00008483,-0.0000
 3229,-0.00005446,0.00003951,0.00001179,0.00003505,-0.00002941,-0.00000
 205,-0.11784959,-0.03761313,-0.22902155,0.12247226,0.04226659,0.252174
 49,0.00017446,-0.00028092,0.00002941,-0.00038574,0.00015707,-0.0000962
 4,0.00087355,-0.00063950,0.00034438,0.00076711,0.00015967,0.00020595,-
 0.00036285,0.00016244,-0.00002487,0.00018055,0.00034785,0.00002046,-0.
 00001446,0.00000397,0.00000223,0.00003658,0.00000348,0.00000695,-0.000
 06198,0.00003865,-0.00000325,0.00000738,0.00000767,-0.00000407,-0.0020
 4487,-0.00423049,-0.00015661,-0.00018844,-0.00000817,0.00012322,-0.008
 35528,-0.01768191,0.00254390,-0.00224501,0.00090118,0.00332125,0.00005
 598,-0.00005469,-0.00010595,0.00087297,0.00178803,-0.00054257,-0.00026
 354,-0.00064255,-0.00039611,0.00094299,0.00039285,0.00052093,0.0071057
 0,0.02693229,0.00109200,-0.00325951,0.00271026,-0.00041043,-0.00041760
 ,-0.00058195,0.00068700,-0.00031291,0.00002284,-0.00002647,0.00008971,
 -0.00008338,-0.00004541,0.00010820,0.00005618,0.00003341,-0.00141063,0
 .00027922,-0.00060820,-0.00124037,-0.00036912,-0.00164290,-0.00021177,
 0.00006792,-0.00002814,0.00049367,-0.00039452,0.00003421,-0.06342386,-
 0.06670757,-0.00455640,-0.00461350,-0.01556991,0.00044993,0.07622651,0
 .00000406,0.00009580,-0.00000442,0.00007016,0.00000771,0.00002657,-0.0
 0004273,0.00000048,-0.00005873,-0.00025975,-0.00003120,-0.00008458,0.0
 0008019,-0.00004764,-0.00000005,-0.00009372,-0.00000786,-0.00000051,-0
 .00000632,0.00000379,-0.00000582,0.00001405,-0.00000333,-0.00001052,-0
 .00000318,0.00001600,-0.00000145,-0.00000704,0.00000056,0.00000996,0.0
 0077614,-0.00120842,-0.00033225,0.00047615,-0.00009448,0.00030167,-0.0
 0302199,-0.00528044,0.00033281,-0.00072165,0.00060593,0.00105934,0.000
 06725,0.00000289,-0.00016419,0.00151101,0.00069018,-0.00081940,-0.0000
 7825,-0.00015056,-0.00007536,-0.00138402,0.00022492,-0.00173123,-0.002
 07238,-0.01723887,-0.00213867,0.00210247,-0.00103536,0.00117973,0.0003
 0314,0.00021880,-0.00021645,0.00013552,-0.00005785,0.00003351,-0.00002
 574,0.00011319,0.00008359,-0.00002151,-0.00001085,0.00007704,-0.000363
 69,-0.00016867,0.00019852,-0.00052923,0.00095727,0.00016282,-0.0003983
 9,0.00027758,-0.00002875,-0.00006870,0.00027392,0.00008539,-0.06853610
 ,-0.29936635,-0.00141701,-0.00081254,-0.00326223,-0.00010692,0.0727746
 1,0.32415601,-0.00012934,0.00021585,-0.00002028,0.00032291,-0.00011419
 ,0.00006624,-0.00061622,0.00046637,-0.00031580,-0.00067975,-0.00012595
 ,-0.00010107,0.00025515,-0.00014461,0.00000838,-0.00013432,-0.00025378
 ,-0.00002632,0.00001132,-0.00000215,-0.00000263,-0.00002573,0.00000056
 ,-0.00000992,0.00004569,-0.00002240,0.00002238,-0.00001191,-0.00000602
 ,0.00000956,0.00113800,0.00243009,0.00099835,0.00045574,0.00055501,0.0
 0031451,0.01091117,0.02561249,-0.00383457,0.00335178,-0.00136496,-0.00
 362048,-0.00018661,-0.00008239,0.00006068,-0.00142669,-0.00099314,-0.0
 0047593,0.00032726,0.00068139,0.00041778,-0.00052891,0.00008075,-0.000
 00655,0.00244769,-0.00098269,-0.00065025,0.00040029,-0.00042740,0.0007
 0194,-0.00004310,-0.00020519,0.00005414,-0.00004564,0.00000294,0.00001
 578,0.00001410,-0.00001726,0.00000076,0.00001953,0.00003543,0.00002431
 ,-0.00125473,0.00062484,-0.00015576,-0.00112646,-0.00029508,-0.0007468
 6,0.00004650,0.00000814,-0.00000609,0.00036457,-0.00018253,0.00002757,
 -0.00615201,-0.00322907,-0.04589751,-0.00657046,-0.02607980,0.00102671
 ,-0.00014892,0.00356013,0.05081894,-0.00006461,0.00011134,0.00000074,0
 .00018995,-0.00007943,-0.00016335,-0.00009967,0.00059715,-0.00030590,-
 0.00223882,0.00284967,0.00219640,-0.00057279,-0.00054239,-0.00024440,-
 0.00017130,0.00013173,-0.00025374,-0.00001129,-0.00000369,0.00002114,-
 0.00000719,-0.00001797,-0.00003692,-0.00000149,0.00002969,0.00006383,-
 0.00010995,-0.00001778,0.00005882,-0.01753560,-0.00254608,-0.02061748,
 0.00218191,-0.00099439,0.00042012,-0.12055272,-0.02009516,-0.12725943,
 -0.00898781,-0.00571783,-0.00796059,0.00043559,-0.00000912,0.00048648,
 0.00229783,-0.00222434,0.00234177,-0.00049220,-0.00044631,0.00031559,-
 0.00013690,-0.00017981,0.00006909,0.00174038,0.00057601,0.00064431,0.0
 0006757,-0.00011234,-0.00003103,-0.00001148,0.00002105,0.00002877,0.00
 003693,-0.00002401,-0.00000275,0.00001001,-0.00003349,-0.00001314,0.00
 003331,-0.00002719,0.00001533,-0.00035382,0.00011489,-0.00020615,-0.00
 003333,-0.00030009,0.00020976,0.00007442,-0.00005815,-0.00000419,-0.00
 006656,-0.00004065,-0.00001094,0.00749101,0.00287358,0.01957735,-0.002
 10446,-0.00061608,0.00346778,0.00087697,0.00013219,-0.00103091,0.13811
 612,0.00022536,-0.00025912,0.00005422,-0.00042519,0.00020375,0.0001095
 2,0.00103524,-0.00082598,-0.00040028,0.00215650,-0.00182357,-0.0015069
 2,0.00009624,0.00053351,-0.00007489,0.00023135,0.00031730,0.00024943,-
 0.00001366,0.00001226,-0.00004110,0.00008409,0.00000290,0.00001774,-0.
 00005609,0.00004463,-0.00008889,0.00007525,0.00002048,-0.00000004,0.01
 124726,0.00354535,0.01925870,0.00057304,-0.00257324,0.00025268,-0.0224
 3294,-0.05558010,-0.03720914,-0.02071434,-0.00731494,-0.02537604,0.000
 51626,0.00087931,0.00068454,0.00021839,-0.00004352,-0.00188821,-0.0013
 5385,-0.00171412,0.00142612,0.00011170,0.00027084,0.00010381,-0.000031
 14,-0.00041739,-0.00080249,0.00003331,0.00003113,-0.00005559,-0.000043
 19,-0.00010834,-0.00000502,-0.00003884,0.00000915,0.00001463,0.0000139
 8,-0.00001366,-0.00000565,0.00003393,0.00000418,-0.00000691,-0.0001285
 8,0.00022834,-0.00004893,0.00014088,-0.00009112,0.00016002,0.00005728,
 -0.00010043,0.00001886,0.00003663,0.00002975,0.00000345,0.00192335,0.0
 0152893,0.00493779,-0.00065968,0.00057467,0.00082143,0.00043850,0.0003
 1906,0.00025459,0.02664899,0.06230998,-0.00000747,0.00001677,-0.000000
 42,0.00002751,0.00000328,-0.00000440,-0.00001011,0.00013875,0.00011271
 ,0.00045479,0.00027253,-0.00051251,0.00005119,-0.00010232,0.00011466,-
 0.00001303,-0.00000091,0.00004527,-0.00000138,0.00000039,-0.00000212,0
 .00000106,-0.00000058,-0.00002069,-0.00000130,0.00001950,-0.00001853,-
 0.00000342,-0.00000391,-0.00001831,0.00024622,-0.00222506,-0.00079730,
 0.00079174,0.00001095,-0.00019768,-0.12403089,-0.03597485,-0.21223688,
 0.00121491,0.00022836,0.00276167,-0.00028537,-0.00040261,0.00043446,0.
 00110823,0.00065440,0.00136112,0.00008118,0.00013469,-0.00031801,0.000
 47237,-0.00013544,0.00043494,-0.00205758,0.00035159,0.00115463,-0.0001
 3170,0.00006208,0.00012803,0.00010100,0.00008939,-0.00013803,0.0000001
 4,0.00000643,0.00001046,-0.00001924,0.00003941,0.00001301,-0.00003740,
 0.00004913,-0.00002526,0.00021931,-0.00009088,0.00026667,0.00027216,0.
 00035867,-0.00010323,-0.00013958,0.00005401,0.00000204,0.00004128,0.00
 005194,-0.00005584,-0.00968055,-0.00386932,-0.02793399,0.00373099,0.00
 103575,-0.00309146,-0.00061869,0.00008526,0.00130200,0.12822364,0.0391
 4257,0.23733299\\-0.00000669,0.00001381,0.00000500,0.00000082,0.000014
 22,-0.00000252,0.00000637,0.00000023,0.00000212,0.00002327,0.00001202,
 0.00001500,0.00000502,0.00000755,0.00000640,0.00000311,0.00002359,0.00
 000874,-0.00000363,0.00001730,0.00000114,-0.00000866,0.00000795,-0.000
 00224,0.00000466,0.00001404,0.00001158,0.00000592,0.00002158,0.0000136
 2,-0.00001191,-0.00001612,0.00000085,-0.00000387,0.00002476,-0.0000084
 5,0.00001309,0.00000494,-0.00001402,-0.00001494,-0.00002045,-0.0000044
 5,-0.00000040,0.00000230,-0.00000802,0.00000891,0.00001312,0.00001103,
 -0.00001467,-0.00000261,-0.00000675,-0.00001234,-0.00000411,-0.0000149
 7,0.00001670,-0.00000671,0.00000036,-0.00000650,-0.00000341,-0.0000098
 8,-0.00000221,-0.00001135,0.00001033,-0.00000512,-0.00001478,-0.000014
 65,-0.00000833,-0.00001712,-0.00001315,-0.00000071,-0.00001919,-0.0000
 1289,-0.00000671,-0.00002519,0.00000696,0.00000503,-0.00000843,0.00000
 314,0.00001096,-0.00001205,-0.00000412,0.00000635,-0.00001670,0.000003
 61,-0.00000994,0.00000212,0.00000973,-0.00000113,0.00000376,-0.0000010
 1,0.00000573,0.00000245,0.00000042,0.00000184,-0.00000751,0.00000707\\
 \@


 IF AT FIRST YOU DON'T SUCCEED, TRY, TRY AGAIN.
 THEN GIVE UP;
 THERE'S NO USE BEING A DAMN FOOL ABOUT IT.

                                 -- W. C. FIELDS
 Job cpu time:       0 days 16 hours 13 minutes 30.7 seconds.
 File lengths (MBytes):  RWF=   1190 Int=      0 D2E=      0 Chk=     31 Scr=      1
 Normal termination of Gaussian 09 at Fri Feb  4 15:59:28 2022.
