 Entering Gaussian System, Link 0=g09
 Input=prod_claisen.com
 Output=prod_claisen.log
 Initial command:
 /apps/applications/gaussian/G09.D01/2/default/g09/l1.exe "/nobackup/pmmass/Temp/Gau-234687.inp" -scrdir="/nobackup/pmmass/Temp/"
 Entering Link 1 = /apps/applications/gaussian/G09.D01/2/default/g09/l1.exe PID=    234688.
  
 Copyright (c) 1988,1990,1992,1993,1995,1998,2003,2009,2013,
            Gaussian, Inc.  All Rights Reserved.
  
 This is part of the Gaussian(R) 09 program.  It is based on
 the Gaussian(R) 03 system (copyright 2003, Gaussian, Inc.),
 the Gaussian(R) 98 system (copyright 1998, Gaussian, Inc.),
 the Gaussian(R) 94 system (copyright 1995, Gaussian, Inc.),
 the Gaussian 92(TM) system (copyright 1992, Gaussian, Inc.),
 the Gaussian 90(TM) system (copyright 1990, Gaussian, Inc.),
 the Gaussian 88(TM) system (copyright 1988, Gaussian, Inc.),
 the Gaussian 86(TM) system (copyright 1986, Carnegie Mellon
 University), and the Gaussian 82(TM) system (copyright 1983,
 Carnegie Mellon University). Gaussian is a federally registered
 trademark of Gaussian, Inc.
  
 This software contains proprietary and confidential information,
 including trade secrets, belonging to Gaussian, Inc.
  
 This software is provided under written license and may be
 used, copied, transmitted, or stored only in accord with that
 written license.
  
 The following legend is applicable only to US Government
 contracts under FAR:
  
                    RESTRICTED RIGHTS LEGEND
  
 Use, reproduction and disclosure by the US Government is
 subject to restrictions as set forth in subparagraphs (a)
 and (c) of the Commercial Computer Software - Restricted
 Rights clause in FAR 52.227-19.
  
 Gaussian, Inc.
 340 Quinnipiac St., Bldg. 40, Wallingford CT 06492
  
  
 ---------------------------------------------------------------
 Warning -- This program may not be used in any manner that
 competes with the business of Gaussian, Inc. or will provide
 assistance to any competitor of Gaussian, Inc.  The licensee
 of this program is prohibited from giving any competitor of
 Gaussian, Inc. access to this program.  By using this program,
 the user acknowledges that Gaussian, Inc. is engaged in the
 business of creating and licensing software in the field of
 computational chemistry and represents and warrants to the
 licensee that it is not a competitor of Gaussian, Inc. and that
 it will not use this program in any manner prohibited above.
 ---------------------------------------------------------------
  

 Cite this work as:
 Gaussian 09, Revision D.01,
 M. J. Frisch, G. W. Trucks, H. B. Schlegel, G. E. Scuseria, 
 M. A. Robb, J. R. Cheeseman, G. Scalmani, V. Barone, B. Mennucci, 
 G. A. Petersson, H. Nakatsuji, M. Caricato, X. Li, H. P. Hratchian, 
 A. F. Izmaylov, J. Bloino, G. Zheng, J. L. Sonnenberg, M. Hada, 
 M. Ehara, K. Toyota, R. Fukuda, J. Hasegawa, M. Ishida, T. Nakajima, 
 Y. Honda, O. Kitao, H. Nakai, T. Vreven, J. A. Montgomery, Jr., 
 J. E. Peralta, F. Ogliaro, M. Bearpark, J. J. Heyd, E. Brothers, 
 K. N. Kudin, V. N. Staroverov, T. Keith, R. Kobayashi, J. Normand, 
 K. Raghavachari, A. Rendell, J. C. Burant, S. S. Iyengar, J. Tomasi, 
 M. Cossi, N. Rega, J. M. Millam, M. Klene, J. E. Knox, J. B. Cross, 
 V. Bakken, C. Adamo, J. Jaramillo, R. Gomperts, R. E. Stratmann, 
 O. Yazyev, A. J. Austin, R. Cammi, C. Pomelli, J. W. Ochterski, 
 R. L. Martin, K. Morokuma, V. G. Zakrzewski, G. A. Voth, 
 P. Salvador, J. J. Dannenberg, S. Dapprich, A. D. Daniels, 
 O. Farkas, J. B. Foresman, J. V. Ortiz, J. Cioslowski, 
 and D. J. Fox, Gaussian, Inc., Wallingford CT, 2013.
 
 ******************************************
 Gaussian 09:  ES64L-G09RevD.01 24-Apr-2013
                 2-Feb-2022 
 ******************************************
 %nprocshared=8
 Will use up to    8 processors via shared memory.
 %mem=4GB
 %NoSave
 %chk="prod_claisen.chk"
 ------------------------------------------------
 #n wB97XD/Def2TZVP scrf(smd,solvent=toluene) opt
 ------------------------------------------------
 1/14=-1,18=20,19=15,26=3,38=1/1,3;
 2/9=110,12=2,17=6,18=5,40=1/2;
 3/5=44,7=101,11=2,16=1,25=1,30=1,70=32201,71=1,72=13,74=-58/1,2,3;
 4//1;
 5/5=2,38=5,53=13/2;
 6/7=2,8=2,9=2,10=2,28=1/1;
 7//1,2,3,16;
 1/14=-1,18=20,19=15,26=3/3(2);
 2/9=110/2;
 99//99;
 2/9=110/2;
 3/5=44,7=101,11=2,16=1,25=1,30=1,70=32205,71=1,72=13,74=-58/1,2,3;
 4/5=5,16=3,69=1/1;
 5/5=2,38=5,53=13/2;
 7//1,2,3,16;
 1/14=-1,18=20,19=15,26=3/3(-5);
 2/9=110/2;
 6/7=2,8=2,9=2,10=2,19=2,28=1/1;
 99/9=1/99;
 ---------------------------------
 clasisen product in toluene - opt
 ---------------------------------
 Symbolic Z-matrix:
 Charge =  0 Multiplicity = 1
 C                     4.36984  -0.34326   0.06239 
 C                     3.40296   0.65682  -0.00373 
 C                     2.04396   0.32646  -0.05933 
 C                     1.6759   -1.03585  -0.04963 
 C                     2.65493  -2.03026   0.01872 
 C                     4.0019   -1.6903    0.0756 
 H                     5.42423  -0.06587   0.10465 
 H                     3.70013   1.70477  -0.01366 
 H                     2.32616  -3.07044   0.02527 
 H                     4.76412  -2.46831   0.1303 
 C                     0.2458   -1.45065  -0.10937 
 C                     0.97893   1.34296  -0.12817 
 C                    -0.82536  -0.3731   -0.15864 
 C                    -0.32131   1.03492  -0.18187 
 H                    -1.06391   1.834    -0.23607 
 O                    -0.07563  -2.61908  -0.10846 
 Cl                    1.46441   3.01907  -0.14056 
 C                    -4.12017  -0.019     0.06165 
 C                    -3.07598   0.25272   0.85891 
 H                    -3.10591   1.17718   1.44483 
 C                    -5.30427   0.90481  -0.02301 
 H                    -6.2294    0.37548   0.25588 
 H                    -5.18873   1.77597   0.63491 
 H                    -5.44409   1.26226  -1.05576 
 C                    -4.2054   -1.24399  -0.80913 
 H                    -3.3373   -1.90851  -0.71487 
 H                    -5.11019  -1.82295  -0.56443 
 H                    -4.29841  -0.95046  -1.86725 
 C                    -1.84238  -0.59949   0.99191 
 H                    -1.33589  -0.38708   1.94535 
 H                    -2.09185  -1.66959   0.99121 
 H                    -1.37498  -0.55496  -1.10091 
 

 GradGradGradGradGradGradGradGradGradGradGradGradGradGradGradGradGradGrad
 Berny optimization.
 Initialization pass.
                           ----------------------------
                           !    Initial Parameters    !
                           ! (Angstroms and Degrees)  !
 --------------------------                            --------------------------
 ! Name  Definition              Value          Derivative Info.                !
 --------------------------------------------------------------------------------
 ! R1    R(1,2)                  1.3926         estimate D2E/DX2                !
 ! R2    R(1,6)                  1.3964         estimate D2E/DX2                !
 ! R3    R(1,7)                  1.0911         estimate D2E/DX2                !
 ! R4    R(2,3)                  1.3997         estimate D2E/DX2                !
 ! R5    R(2,8)                  1.0893         estimate D2E/DX2                !
 ! R6    R(3,4)                  1.4112         estimate D2E/DX2                !
 ! R7    R(3,12)                 1.4739         estimate D2E/DX2                !
 ! R8    R(4,5)                  1.3971         estimate D2E/DX2                !
 ! R9    R(4,11)                 1.4902         estimate D2E/DX2                !
 ! R10   R(5,6)                  1.3904         estimate D2E/DX2                !
 ! R11   R(5,9)                  1.0909         estimate D2E/DX2                !
 ! R12   R(6,10)                 1.0905         estimate D2E/DX2                !
 ! R13   R(11,13)                1.5202         estimate D2E/DX2                !
 ! R14   R(11,16)                1.2118         estimate D2E/DX2                !
 ! R15   R(12,14)                1.3373         estimate D2E/DX2                !
 ! R16   R(12,17)                1.745          estimate D2E/DX2                !
 ! R17   R(13,14)                1.4957         estimate D2E/DX2                !
 ! R18   R(13,29)                1.5522         estimate D2E/DX2                !
 ! R19   R(13,32)                1.1059         estimate D2E/DX2                !
 ! R20   R(14,15)                1.0922         estimate D2E/DX2                !
 ! R21   R(18,19)                1.3416         estimate D2E/DX2                !
 ! R22   R(18,21)                1.5042         estimate D2E/DX2                !
 ! R23   R(18,25)                1.5054         estimate D2E/DX2                !
 ! R24   R(19,20)                1.0949         estimate D2E/DX2                !
 ! R25   R(19,29)                1.5052         estimate D2E/DX2                !
 ! R26   R(21,22)                1.1017         estimate D2E/DX2                !
 ! R27   R(21,23)                1.0978         estimate D2E/DX2                !
 ! R28   R(21,24)                1.1018         estimate D2E/DX2                !
 ! R29   R(25,26)                1.0973         estimate D2E/DX2                !
 ! R30   R(25,27)                1.1017         estimate D2E/DX2                !
 ! R31   R(25,28)                1.102          estimate D2E/DX2                !
 ! R32   R(29,30)                1.1003         estimate D2E/DX2                !
 ! R33   R(29,31)                1.0988         estimate D2E/DX2                !
 ! A1    A(2,1,6)              120.6795         estimate D2E/DX2                !
 ! A2    A(2,1,7)              119.354          estimate D2E/DX2                !
 ! A3    A(6,1,7)              119.9664         estimate D2E/DX2                !
 ! A4    A(1,2,3)              120.4309         estimate D2E/DX2                !
 ! A5    A(1,2,8)              120.1249         estimate D2E/DX2                !
 ! A6    A(3,2,8)              119.4442         estimate D2E/DX2                !
 ! A7    A(2,3,4)              118.7385         estimate D2E/DX2                !
 ! A8    A(2,3,12)             122.7298         estimate D2E/DX2                !
 ! A9    A(4,3,12)             118.5318         estimate D2E/DX2                !
 ! A10   A(3,4,5)              120.3091         estimate D2E/DX2                !
 ! A11   A(3,4,11)             121.2463         estimate D2E/DX2                !
 ! A12   A(5,4,11)             118.4445         estimate D2E/DX2                !
 ! A13   A(4,5,6)              120.4531         estimate D2E/DX2                !
 ! A14   A(4,5,9)              117.8885         estimate D2E/DX2                !
 ! A15   A(6,5,9)              121.6584         estimate D2E/DX2                !
 ! A16   A(1,6,5)              119.3885         estimate D2E/DX2                !
 ! A17   A(1,6,10)             120.2977         estimate D2E/DX2                !
 ! A18   A(5,6,10)             120.3138         estimate D2E/DX2                !
 ! A19   A(4,11,13)            118.6981         estimate D2E/DX2                !
 ! A20   A(4,11,16)            121.5258         estimate D2E/DX2                !
 ! A21   A(13,11,16)           119.7734         estimate D2E/DX2                !
 ! A22   A(3,12,14)            123.0649         estimate D2E/DX2                !
 ! A23   A(3,12,17)            117.499          estimate D2E/DX2                !
 ! A24   A(14,12,17)           119.436          estimate D2E/DX2                !
 ! A25   A(11,13,14)           115.4881         estimate D2E/DX2                !
 ! A26   A(11,13,29)           109.5283         estimate D2E/DX2                !
 ! A27   A(11,13,32)           105.1438         estimate D2E/DX2                !
 ! A28   A(14,13,29)           111.692          estimate D2E/DX2                !
 ! A29   A(14,13,32)           108.0023         estimate D2E/DX2                !
 ! A30   A(29,13,32)           106.3762         estimate D2E/DX2                !
 ! A31   A(12,14,13)           122.9477         estimate D2E/DX2                !
 ! A32   A(12,14,15)           119.6387         estimate D2E/DX2                !
 ! A33   A(13,14,15)           117.4111         estimate D2E/DX2                !
 ! A34   A(19,18,21)           121.45           estimate D2E/DX2                !
 ! A35   A(19,18,25)           123.5487         estimate D2E/DX2                !
 ! A36   A(21,18,25)           115.0011         estimate D2E/DX2                !
 ! A37   A(18,19,20)           117.8884         estimate D2E/DX2                !
 ! A38   A(18,19,29)           125.1501         estimate D2E/DX2                !
 ! A39   A(20,19,29)           116.9458         estimate D2E/DX2                !
 ! A40   A(18,21,22)           110.5904         estimate D2E/DX2                !
 ! A41   A(18,21,23)           111.7638         estimate D2E/DX2                !
 ! A42   A(18,21,24)           110.6037         estimate D2E/DX2                !
 ! A43   A(22,21,23)           108.5381         estimate D2E/DX2                !
 ! A44   A(22,21,24)           106.6539         estimate D2E/DX2                !
 ! A45   A(23,21,24)           108.5222         estimate D2E/DX2                !
 ! A46   A(18,25,26)           113.4733         estimate D2E/DX2                !
 ! A47   A(18,25,27)           110.222          estimate D2E/DX2                !
 ! A48   A(18,25,28)           110.0867         estimate D2E/DX2                !
 ! A49   A(26,25,27)           108.2038         estimate D2E/DX2                !
 ! A50   A(26,25,28)           108.0928         estimate D2E/DX2                !
 ! A51   A(27,25,28)           106.4948         estimate D2E/DX2                !
 ! A52   A(13,29,19)           112.8862         estimate D2E/DX2                !
 ! A53   A(13,29,30)           108.212          estimate D2E/DX2                !
 ! A54   A(13,29,31)           106.8776         estimate D2E/DX2                !
 ! A55   A(19,29,30)           110.1522         estimate D2E/DX2                !
 ! A56   A(19,29,31)           111.4233         estimate D2E/DX2                !
 ! A57   A(30,29,31)           107.0415         estimate D2E/DX2                !
 ! D1    D(6,1,2,3)             -0.058          estimate D2E/DX2                !
 ! D2    D(6,1,2,8)           -179.9909         estimate D2E/DX2                !
 ! D3    D(7,1,2,3)            179.9745         estimate D2E/DX2                !
 ! D4    D(7,1,2,8)              0.0415         estimate D2E/DX2                !
 ! D5    D(2,1,6,5)              0.1541         estimate D2E/DX2                !
 ! D6    D(2,1,6,10)          -179.8295         estimate D2E/DX2                !
 ! D7    D(7,1,6,5)           -179.8785         estimate D2E/DX2                !
 ! D8    D(7,1,6,10)             0.1379         estimate D2E/DX2                !
 ! D9    D(1,2,3,4)             -0.121          estimate D2E/DX2                !
 ! D10   D(1,2,3,12)           179.9002         estimate D2E/DX2                !
 ! D11   D(8,2,3,4)            179.8124         estimate D2E/DX2                !
 ! D12   D(8,2,3,12)            -0.1664         estimate D2E/DX2                !
 ! D13   D(2,3,4,5)              0.2051         estimate D2E/DX2                !
 ! D14   D(2,3,4,11)          -179.886          estimate D2E/DX2                !
 ! D15   D(12,3,4,5)          -179.8151         estimate D2E/DX2                !
 ! D16   D(12,3,4,11)            0.0937         estimate D2E/DX2                !
 ! D17   D(2,3,12,14)          179.9824         estimate D2E/DX2                !
 ! D18   D(2,3,12,17)            0.0512         estimate D2E/DX2                !
 ! D19   D(4,3,12,14)            0.0035         estimate D2E/DX2                !
 ! D20   D(4,3,12,17)         -179.9277         estimate D2E/DX2                !
 ! D21   D(3,4,5,6)             -0.1114         estimate D2E/DX2                !
 ! D22   D(3,4,5,9)            179.9117         estimate D2E/DX2                !
 ! D23   D(11,4,5,6)           179.9772         estimate D2E/DX2                !
 ! D24   D(11,4,5,9)             0.0003         estimate D2E/DX2                !
 ! D25   D(3,4,11,13)           -0.9956         estimate D2E/DX2                !
 ! D26   D(3,4,11,16)          179.6047         estimate D2E/DX2                !
 ! D27   D(5,4,11,13)          178.9149         estimate D2E/DX2                !
 ! D28   D(5,4,11,16)           -0.4848         estimate D2E/DX2                !
 ! D29   D(4,5,6,1)             -0.0689         estimate D2E/DX2                !
 ! D30   D(4,5,6,10)           179.9147         estimate D2E/DX2                !
 ! D31   D(9,5,6,1)            179.9071         estimate D2E/DX2                !
 ! D32   D(9,5,6,10)            -0.1093         estimate D2E/DX2                !
 ! D33   D(4,11,13,14)           1.7035         estimate D2E/DX2                !
 ! D34   D(4,11,13,29)        -125.4204         estimate D2E/DX2                !
 ! D35   D(4,11,13,32)         120.6318         estimate D2E/DX2                !
 ! D36   D(16,11,13,14)       -178.886          estimate D2E/DX2                !
 ! D37   D(16,11,13,29)         53.9901         estimate D2E/DX2                !
 ! D38   D(16,11,13,32)        -59.9577         estimate D2E/DX2                !
 ! D39   D(3,12,14,13)           0.8574         estimate D2E/DX2                !
 ! D40   D(3,12,14,15)        -179.7329         estimate D2E/DX2                !
 ! D41   D(17,12,14,13)       -179.2127         estimate D2E/DX2                !
 ! D42   D(17,12,14,15)          0.1971         estimate D2E/DX2                !
 ! D43   D(11,13,14,12)         -1.6873         estimate D2E/DX2                !
 ! D44   D(11,13,14,15)        178.8907         estimate D2E/DX2                !
 ! D45   D(29,13,14,12)        124.3399         estimate D2E/DX2                !
 ! D46   D(29,13,14,15)        -55.0821         estimate D2E/DX2                !
 ! D47   D(32,13,14,12)       -119.0243         estimate D2E/DX2                !
 ! D48   D(32,13,14,15)         61.5536         estimate D2E/DX2                !
 ! D49   D(11,13,29,19)       -168.769          estimate D2E/DX2                !
 ! D50   D(11,13,29,30)         69.0524         estimate D2E/DX2                !
 ! D51   D(11,13,29,31)        -45.9229         estimate D2E/DX2                !
 ! D52   D(14,13,29,19)         61.9983         estimate D2E/DX2                !
 ! D53   D(14,13,29,30)        -60.1803         estimate D2E/DX2                !
 ! D54   D(14,13,29,31)       -175.1556         estimate D2E/DX2                !
 ! D55   D(32,13,29,19)        -55.6193         estimate D2E/DX2                !
 ! D56   D(32,13,29,30)       -177.7979         estimate D2E/DX2                !
 ! D57   D(32,13,29,31)         67.2268         estimate D2E/DX2                !
 ! D58   D(21,18,19,20)         -0.5005         estimate D2E/DX2                !
 ! D59   D(21,18,19,29)       -179.0082         estimate D2E/DX2                !
 ! D60   D(25,18,19,20)        179.3065         estimate D2E/DX2                !
 ! D61   D(25,18,19,29)          0.7989         estimate D2E/DX2                !
 ! D62   D(19,18,21,22)       -121.4737         estimate D2E/DX2                !
 ! D63   D(19,18,21,23)         -0.4304         estimate D2E/DX2                !
 ! D64   D(19,18,21,24)        120.602          estimate D2E/DX2                !
 ! D65   D(25,18,21,22)         58.7038         estimate D2E/DX2                !
 ! D66   D(25,18,21,23)        179.7471         estimate D2E/DX2                !
 ! D67   D(25,18,21,24)        -59.2206         estimate D2E/DX2                !
 ! D68   D(19,18,25,26)          1.1851         estimate D2E/DX2                !
 ! D69   D(19,18,25,27)        122.7134         estimate D2E/DX2                !
 ! D70   D(19,18,25,28)       -120.1006         estimate D2E/DX2                !
 ! D71   D(21,18,25,26)       -178.9965         estimate D2E/DX2                !
 ! D72   D(21,18,25,27)        -57.4682         estimate D2E/DX2                !
 ! D73   D(21,18,25,28)         59.7178         estimate D2E/DX2                !
 ! D74   D(18,19,29,13)         80.4572         estimate D2E/DX2                !
 ! D75   D(18,19,29,30)       -158.4601         estimate D2E/DX2                !
 ! D76   D(18,19,29,31)        -39.8181         estimate D2E/DX2                !
 ! D77   D(20,19,29,13)        -98.0631         estimate D2E/DX2                !
 ! D78   D(20,19,29,30)         23.0196         estimate D2E/DX2                !
 ! D79   D(20,19,29,31)        141.6616         estimate D2E/DX2                !
 --------------------------------------------------------------------------------
 Trust Radius=3.00D-01 FncErr=1.00D-07 GrdErr=1.00D-06
 Number of steps in this run=    179 maximum allowed number of steps=    192.
 GradGradGradGradGradGradGradGradGradGradGradGradGradGradGradGradGradGrad

                          Input orientation:                          
 ---------------------------------------------------------------------
 Center     Atomic      Atomic             Coordinates (Angstroms)
 Number     Number       Type             X           Y           Z
 ---------------------------------------------------------------------
      1          6           0        4.369840   -0.343260    0.062390
      2          6           0        3.402960    0.656820   -0.003730
      3          6           0        2.043960    0.326460   -0.059330
      4          6           0        1.675900   -1.035850   -0.049630
      5          6           0        2.654930   -2.030260    0.018720
      6          6           0        4.001900   -1.690300    0.075600
      7          1           0        5.424230   -0.065870    0.104650
      8          1           0        3.700130    1.704770   -0.013660
      9          1           0        2.326160   -3.070440    0.025270
     10          1           0        4.764120   -2.468310    0.130300
     11          6           0        0.245800   -1.450650   -0.109370
     12          6           0        0.978930    1.342960   -0.128170
     13          6           0       -0.825360   -0.373100   -0.158640
     14          6           0       -0.321310    1.034920   -0.181870
     15          1           0       -1.063910    1.834000   -0.236070
     16          8           0       -0.075630   -2.619080   -0.108460
     17         17           0        1.464410    3.019070   -0.140560
     18          6           0       -4.120170   -0.019000    0.061650
     19          6           0       -3.075980    0.252720    0.858910
     20          1           0       -3.105910    1.177180    1.444830
     21          6           0       -5.304270    0.904810   -0.023010
     22          1           0       -6.229400    0.375480    0.255880
     23          1           0       -5.188730    1.775970    0.634910
     24          1           0       -5.444090    1.262260   -1.055760
     25          6           0       -4.205400   -1.243990   -0.809130
     26          1           0       -3.337300   -1.908510   -0.714870
     27          1           0       -5.110190   -1.822950   -0.564430
     28          1           0       -4.298410   -0.950460   -1.867250
     29          6           0       -1.842380   -0.599490    0.991910
     30          1           0       -1.335890   -0.387080    1.945350
     31          1           0       -2.091850   -1.669590    0.991210
     32          1           0       -1.374980   -0.554960   -1.100910
 ---------------------------------------------------------------------
                    Distance matrix (angstroms):
                    1          2          3          4          5
     1  C    0.000000
     2  C    1.392619   0.000000
     3  C    2.423439   1.399682   0.000000
     4  C    2.783800   2.418672   1.411188   0.000000
     5  C    2.405991   2.789346   2.435879   1.397148   0.000000
     6  C    1.396449   2.423633   2.814082   2.419559   1.390373
     7  H    1.091086   2.149316   3.406910   3.874873   3.396356
     8  H    2.156090   1.089315   2.155162   3.407316   3.878652
     9  H    3.408154   3.879795   3.409652   2.137289   1.090920
    10  H    2.162384   3.411328   3.904609   3.409020   2.157086
    11  C    4.273584   3.797400   2.528637   1.490240   2.481182
    12  C    3.791823   2.522339   1.473872   2.480055   3.769505
    13  C    5.199985   4.354701   2.955037   2.589869   3.858763
    14  C    4.895501   3.747650   2.472131   2.880004   4.277098
    15  H    5.861329   4.625220   3.458724   3.972072   5.369096
    16  O    4.997074   4.779443   3.629226   2.361765   2.796219
    17  Cl   4.448368   3.058909   2.755472   4.061450   5.190226
    18  C    8.496200   7.553707   6.174988   5.885643   7.067460
    19  C    7.511982   6.548596   5.202152   5.006618   6.225853
    20  H    7.753046   6.688385   5.432070   5.476917   6.746016
    21  C    9.754659   8.710782   7.371044   7.244974   8.483233
    22  H   10.625343   9.639964   8.279508   8.036103   9.207342
    23  H    9.807404   8.687778   7.409106   7.449703   8.740142
    24  H   10.007056   8.929928   7.611799   7.549031   8.808480
    25  C    8.666349   7.883457   6.487142   5.933789   6.954688
    26  H    7.902794   7.246913   5.863683   5.131886   6.038195
    27  H    9.615267   8.884670   7.487119   6.850953   7.789745
    28  H    8.901166   8.084996   6.717496   6.245271   7.285039
    29  C    6.286600   5.484816   4.131117   3.695066   4.818713
    30  H    6.008562   5.229277   3.993904   3.670385   4.726372
    31  H    6.661478   6.049382   4.710921   3.959913   4.858780
    32  H    5.865240   5.049844   3.681160   3.262562   4.435116
                    6          7          8          9         10
     6  C    0.000000
     7  H    2.159315   0.000000
     8  H    3.409624   2.474204   0.000000
     9  H    2.171503   4.316455   4.969098   0.000000
    10  H    1.090537   2.491610   4.308990   2.513412   0.000000
    11  C    3.768280   5.364658   4.679555   2.640028   4.637703
    12  C    4.287253   4.669015   2.747535   4.616998   5.377755
    13  C    5.009224   6.262674   4.981829   4.152294   5.976260
    14  C    5.116958   5.857052   4.080315   4.889375   6.183176
    15  H    6.179018   6.769162   4.770979   5.967781   7.253277
    16  O    4.186020   6.067352   5.741170   2.447489   4.847981
    17  Cl   5.353853   5.025650   2.596523   6.152418   6.408806
    18  C    8.292253   9.544612   8.008380   7.132165   9.215988
    19  C    7.381415   8.539554   6.984661   6.396989   8.330789
    20  H    7.785769   8.723792   6.980525   7.040228   8.772398
    21  C    9.661735  10.773079   9.039870   8.603976  10.619507
    22  H   10.439322  11.662965  10.021738   9.226329  11.356073
    23  H    9.838472  10.784640   8.912774   8.962864  10.831794
    24  H    9.961140  11.010489   9.214041   8.962014  10.933044
    25  C    8.266905   9.744369   8.474985   6.833258   9.101306
    26  H    7.384871   8.990625   7.941845   5.828608   8.164600
    27  H    9.135503  10.700888   9.506308   7.563285   9.919735
    28  H    8.556704   9.959951   8.629176   7.208389   9.403378
    29  C    6.015405   7.340000   6.086066   4.941327   6.919588
    30  H    5.803994   7.013599   5.794399   4.929274   6.695972
    31  H    6.162188   7.736237   6.778134   4.734367   6.955821
    32  H    5.619965   6.922560   5.660851   4.614581   6.547162
                   11         12         13         14         15
    11  C    0.000000
    12  C    2.888268   0.000000
    13  C    1.520173   2.490231   0.000000
    14  C    2.550476   1.337309   1.495703   0.000000
    15  H    3.538406   2.103796   2.221304   1.092209   0.000000
    16  O    1.211836   4.100030   2.368341   3.662986   4.563212
    17  Cl   4.632967   1.745047   4.092700   2.669710   2.793907
    18  C    4.597887   5.281268   3.321097   3.949859   3.586498
    19  C    3.856586   4.313380   2.548009   3.046845   2.783497
    20  H    4.533761   4.380380   3.189889   3.228063   2.725179
    21  C    6.029836   6.299336   4.659623   4.987189   4.346199
    22  H    6.737683   7.283099   5.471366   5.960874   5.389952
    23  H    6.363894   6.229753   4.928207   4.990798   4.216173
    24  H    6.374197   6.490156   4.981154   5.201754   4.492745
    25  C    4.510605   5.833806   3.550529   4.546762   4.435243
    26  H    3.662632   5.435634   2.996117   4.247831   4.404990
    27  H    5.388164   6.876823   4.541641   5.589915   5.463834
    28  H    4.897977   6.011197   3.913409   4.753900   4.569021
    29  C    2.509539   3.603815   1.552207   2.522441   2.834753
    30  H    2.802641   3.556813   2.165089   2.752548   3.125022
    31  H    2.593033   4.445015   2.146401   3.438794   3.852015
    32  H    2.100557   3.176353   1.105906   2.117209   2.559657
                   16         17         18         19         20
    16  O    0.000000
    17  Cl   5.844783   0.000000
    18  C    4.811201   6.360683   0.000000
    19  C    4.264404   5.409877   1.341562   0.000000
    20  H    5.099696   5.176277   2.091114   1.094908   0.000000
    21  C    6.305853   7.092175   1.504222   2.483602   2.657353
    22  H    6.853395   8.144964   2.154574   3.212907   3.436934
    23  H    6.783278   6.812556   2.166187   2.614226   2.313581
    24  H    6.691976   7.186887   2.154761   3.208283   3.424511
    25  C    4.408720   7.125125   1.505365   2.509599   3.485868
    26  H    3.392806   6.904151   2.187720   2.686259   3.773503
    27  H    5.117473   8.176196   2.150895   3.236095   4.129775
    28  H    4.869241   7.207546   2.149428   3.220858   4.113245
    29  C    2.900166   5.031036   2.527979   1.505231   2.226702
    30  H    3.284542   4.877967   3.381719   2.148862   2.414622
    31  H    2.485146   5.992614   2.775358   2.163629   3.055845
    32  H    2.633222   4.664558   3.029004   2.717838   3.532311
                   21         22         23         24         25
    21  C    0.000000
    22  H    1.101742   0.000000
    23  H    1.097783   1.785506   0.000000
    24  H    1.101768   1.767340   1.785349   0.000000
    25  C    2.538275   2.802411   3.488889   2.806505   0.000000
    26  H    3.501773   3.810933   4.338789   3.822114   1.097301
    27  H    2.787737   2.599737   3.794313   3.141881   1.101689
    28  H    2.802678   3.161411   3.806165   2.620540   1.102011
    29  C    3.908665   4.553927   4.119262   4.542178   3.040228
    30  H    4.614267   5.232805   4.608732   5.348298   4.068850
    31  H    4.239790   4.673579   4.646450   4.901361   2.808817
    32  H    4.328062   5.125621   4.794893   4.456678   2.927657
                   26         27         28         29         30
    26  H    0.000000
    27  H    1.781317   0.000000
    28  H    1.780329   1.765663   0.000000
    29  C    2.619431   3.820685   3.785506   0.000000
    30  H    3.660213   4.754583   4.861053   1.100317   0.000000
    31  H    2.125779   3.399105   3.681963   1.098795   1.768245
    32  H    2.414917   3.980880   3.047973   2.144841   3.051133
                   31         32
    31  H    0.000000
    32  H    2.476544   0.000000
 Stoichiometry    C15H15ClO
 Framework group  C1[X(C15H15ClO)]
 Deg. of freedom    90
 Full point group                 C1      NOp   1
 Largest Abelian subgroup         C1      NOp   1
 Largest concise Abelian subgroup C1      NOp   1
                         Standard orientation:                         
 ---------------------------------------------------------------------
 Center     Atomic      Atomic             Coordinates (Angstroms)
 Number     Number       Type             X           Y           Z
 ---------------------------------------------------------------------
      1          6           0        4.369840   -0.343259    0.062390
      2          6           0        3.402960    0.656821   -0.003730
      3          6           0        2.043960    0.326461   -0.059330
      4          6           0        1.675900   -1.035848   -0.049630
      5          6           0        2.654930   -2.030259    0.018720
      6          6           0        4.001900   -1.690299    0.075600
      7          1           0        5.424230   -0.065869    0.104650
      8          1           0        3.700130    1.704771   -0.013660
      9          1           0        2.326160   -3.070439    0.025270
     10          1           0        4.764120   -2.468309    0.130300
     11          6           0        0.245800   -1.450648   -0.109370
     12          6           0        0.978930    1.342962   -0.128170
     13          6           0       -0.825360   -0.373098   -0.158640
     14          6           0       -0.321310    1.034922   -0.181870
     15          1           0       -1.063910    1.834002   -0.236070
     16          8           0       -0.075630   -2.619078   -0.108460
     17         17           0        1.464410    3.019072   -0.140560
     18          6           0       -4.120170   -0.018998    0.061650
     19          6           0       -3.075980    0.252722    0.858910
     20          1           0       -3.105910    1.177182    1.444830
     21          6           0       -5.304270    0.904812   -0.023010
     22          1           0       -6.229400    0.375482    0.255880
     23          1           0       -5.188730    1.775972    0.634910
     24          1           0       -5.444090    1.262262   -1.055760
     25          6           0       -4.205400   -1.243988   -0.809130
     26          1           0       -3.337300   -1.908508   -0.714870
     27          1           0       -5.110190   -1.822948   -0.564430
     28          1           0       -4.298410   -0.950458   -1.867250
     29          6           0       -1.842380   -0.599488    0.991910
     30          1           0       -1.335890   -0.387078    1.945350
     31          1           0       -2.091850   -1.669588    0.991210
     32          1           0       -1.374980   -0.554958   -1.100910
 ---------------------------------------------------------------------
 Rotational constants (GHZ):      0.7100980      0.2503065      0.1913464
 Standard basis: def2TZVP (5D, 7F)
 There are   708 symmetry adapted cartesian basis functions of A   symmetry.
 There are   623 symmetry adapted basis functions of A   symmetry.
   623 basis functions,  1005 primitive gaussians,   708 cartesian basis functions
    65 alpha electrons       65 beta electrons
       nuclear repulsion energy      1235.5459904255 Hartrees.
 NAtoms=   32 NActive=   32 NUniq=   32 SFac= 1.00D+00 NAtFMM=   60 NAOKFM=F Big=F
 Integral buffers will be    131072 words long.
 Raffenetti 2 integral format.
 Two-electron integral symmetry is turned on.
 Nuclear repulsion after empirical dispersion term =     1235.5231331762 Hartrees.
 ------------------------------------------------------------------------------
 Polarizable Continuum Model (PCM)
 =================================
 Model                : PCM (using non-symmetric T matrix).
 Atomic radii         : SMD-Coulomb.
 Polarization charges : Total charges.
 Charge compensation  : None.
 Solution method      : On-the-fly selection.
 Cavity type          : VdW (van der Waals Surface) (Alpha=1.000).
 Cavity algorithm     : GePol (No added spheres)
                        Default sphere list used, NSphG=   32.
                        Lebedev-Laikov grids with approx.  5.0 points / Ang**2.
                        Smoothing algorithm: Karplus/York (Gamma=1.0000).
                        Polarization charges: spherical gaussians, with
                                              point-specific exponents (IZeta= 3).
                        Self-potential: point-specific (ISelfS= 7).
                        Self-field    : sphere-specific E.n sum rule (ISelfD= 2).
 1st derivatives      : Analytical E(r).r(x)/FMM algorithm (CHGder, D1EAlg=3).
                        Cavity 1st derivative terms included.
 Solvent              : Toluene, Eps=   2.374100 Eps(inf)=   2.238315
 ------------------------------------------------------------------------------
 ------------------------------------------------------------------------------
 Atomic radii for non-electrostatic terms: SMD-CDS.
 ------------------------------------------------------------------------------
 Nuclear repulsion after PCM non-electrostatic terms =     1235.5108133269 Hartrees.
 One-electron integrals computed using PRISM.
   1 Symmetry operations used in ECPInt.
 ECPInt:  NShTT=   31125 NPrTT=   96136 LenC2=   27454 LenP2D=   61326.
 LDataN:  DoStor=T MaxTD1= 6 Len=  172
 NBasis=   623 RedAO= T EigKep=  6.81D-06  NBF=   623
 NBsUse=   623 1.00D-06 EigRej= -1.00D+00 NBFU=   623
 ExpMin= 9.52D-02 ExpMax= 6.95D+04 ExpMxC= 2.37D+03 IAcc=2 IRadAn=         4 AccDes= 0.00D+00
 Harris functional with IExCor= 4639 and IRadAn=       4 diagonalized for initial guess.
 HarFok:  IExCor= 4639 AccDes= 0.00D+00 IRadAn=         4 IDoV= 1 UseB2=F ITyADJ=14
 ICtDFT=  3500011 ScaDFX=  1.000000  1.000000  1.000000  1.000000
 FoFCou: FMM=F IPFlag=           0 FMFlag=      100000 FMFlg1=           0
         NFxFlg=           0 DoJE=T BraDBF=F KetDBF=T FulRan=T
         wScrn=  0.000000 ICntrl=     500 IOpCl=  0 I1Cent=   200000004 NGrid=           0
         NMat0=    1 NMatS0=      1 NMatT0=    0 NMatD0=    1 NMtDS0=    0 NMtDT0=    0
 Petite list used in FoFCou.
 Requested convergence on RMS density matrix=1.00D-08 within 128 cycles.
 Requested convergence on MAX density matrix=1.00D-06.
 Requested convergence on             energy=1.00D-06.
 No special actions if energy rises.
 Inv3:  Mode=1 IEnd=    20046675.
 Iteration    1 A*A^-1 deviation from unit magnitude is 5.00D-15 for   2579.
 Iteration    1 A*A^-1 deviation from orthogonality  is 1.88D-15 for   1971   1848.
 Iteration    1 A^-1*A deviation from unit magnitude is 5.66D-15 for   2579.
 Iteration    1 A^-1*A deviation from orthogonality  is 2.28D-13 for   1317   1275.
 Error on total polarization charges =  0.02721
 SCF Done:  E(RwB97XD) =  -1116.08538630     A.U. after   15 cycles
            NFock= 15  Conv=0.41D-08     -V/T= 2.0038
 SMD-CDS (non-electrostatic) energy       (kcal/mol) =      -7.73
 (included in total energy above)

 **********************************************************************

            Population analysis using the SCF density.

 **********************************************************************

 Orbital symmetries:
       Occupied  (A) (A) (A) (A) (A) (A) (A) (A) (A) (A) (A) (A)
                 (A) (A) (A) (A) (A) (A) (A) (A) (A) (A) (A) (A)
                 (A) (A) (A) (A) (A) (A) (A) (A) (A) (A) (A) (A)
                 (A) (A) (A) (A) (A) (A) (A) (A) (A) (A) (A) (A)
                 (A) (A) (A) (A) (A) (A) (A) (A) (A) (A) (A) (A)
                 (A) (A) (A) (A) (A)
       Virtual   (A) (A) (A) (A) (A) (A) (A) (A) (A) (A) (A) (A)
                 (A) (A) (A) (A) (A) (A) (A) (A) (A) (A) (A) (A)
                 (A) (A) (A) (A) (A) (A) (A) (A) (A) (A) (A) (A)
                 (A) (A) (A) (A) (A) (A) (A) (A) (A) (A) (A) (A)
                 (A) (A) (A) (A) (A) (A) (A) (A) (A) (A) (A) (A)
                 (A) (A) (A) (A) (A) (A) (A) (A) (A) (A) (A) (A)
                 (A) (A) (A) (A) (A) (A) (A) (A) (A) (A) (A) (A)
                 (A) (A) (A) (A) (A) (A) (A) (A) (A) (A) (A) (A)
                 (A) (A) (A) (A) (A) (A) (A) (A) (A) (A) (A) (A)
                 (A) (A) (A) (A) (A) (A) (A) (A) (A) (A) (A) (A)
                 (A) (A) (A) (A) (A) (A) (A) (A) (A) (A) (A) (A)
                 (A) (A) (A) (A) (A) (A) (A) (A) (A) (A) (A) (A)
                 (A) (A) (A) (A) (A) (A) (A) (A) (A) (A) (A) (A)
                 (A) (A) (A) (A) (A) (A) (A) (A) (A) (A) (A) (A)
                 (A) (A) (A) (A) (A) (A) (A) (A) (A) (A) (A) (A)
                 (A) (A) (A) (A) (A) (A) (A) (A) (A) (A) (A) (A)
                 (A) (A) (A) (A) (A) (A) (A) (A) (A) (A) (A) (A)
                 (A) (A) (A) (A) (A) (A) (A) (A) (A) (A) (A) (A)
                 (A) (A) (A) (A) (A) (A) (A) (A) (A) (A) (A) (A)
                 (A) (A) (A) (A) (A) (A) (A) (A) (A) (A) (A) (A)
                 (A) (A) (A) (A) (A) (A) (A) (A) (A) (A) (A) (A)
                 (A) (A) (A) (A) (A) (A) (A) (A) (A) (A) (A) (A)
                 (A) (A) (A) (A) (A) (A) (A) (A) (A) (A) (A) (A)
                 (A) (A) (A) (A) (A) (A) (A) (A) (A) (A) (A) (A)
                 (A) (A) (A) (A) (A) (A) (A) (A) (A) (A) (A) (A)
                 (A) (A) (A) (A) (A) (A) (A) (A) (A) (A) (A) (A)
                 (A) (A) (A) (A) (A) (A) (A) (A) (A) (A) (A) (A)
                 (A) (A) (A) (A) (A) (A) (A) (A) (A) (A) (A) (A)
                 (A) (A) (A) (A) (A) (A) (A) (A) (A) (A) (A) (A)
                 (A) (A) (A) (A) (A) (A) (A) (A) (A) (A) (A) (A)
                 (A) (A) (A) (A) (A) (A) (A) (A) (A) (A) (A) (A)
                 (A) (A) (A) (A) (A) (A) (A) (A) (A) (A) (A) (A)
                 (A) (A) (A) (A) (A) (A) (A) (A) (A) (A) (A) (A)
                 (A) (A) (A) (A) (A) (A) (A) (A) (A) (A) (A) (A)
                 (A) (A) (A) (A) (A) (A) (A) (A) (A) (A) (A) (A)
                 (A) (A) (A) (A) (A) (A) (A) (A) (A) (A) (A) (A)
                 (A) (A) (A) (A) (A) (A) (A) (A) (A) (A) (A) (A)
                 (A) (A) (A) (A) (A) (A) (A) (A) (A) (A) (A) (A)
                 (A) (A) (A) (A) (A) (A) (A) (A) (A) (A) (A) (A)
                 (A) (A) (A) (A) (A) (A) (A) (A) (A) (A) (A) (A)
                 (A) (A) (A) (A) (A) (A) (A) (A) (A) (A) (A) (A)
                 (A) (A) (A) (A) (A) (A) (A) (A) (A) (A) (A) (A)
                 (A) (A) (A) (A) (A) (A) (A) (A) (A) (A) (A) (A)
                 (A) (A) (A) (A) (A) (A) (A) (A) (A) (A) (A) (A)
                 (A) (A) (A) (A) (A) (A) (A) (A) (A) (A) (A) (A)
                 (A) (A) (A) (A) (A) (A) (A) (A) (A) (A) (A) (A)
                 (A) (A) (A) (A) (A) (A)
 The electronic state is 1-A.
 Alpha  occ. eigenvalues -- -101.70121 -19.23850 -10.37919 -10.35777 -10.32530
 Alpha  occ. eigenvalues --  -10.30971 -10.30764 -10.30630 -10.30503 -10.30208
 Alpha  occ. eigenvalues --  -10.30076 -10.29957 -10.29278 -10.29106 -10.27514
 Alpha  occ. eigenvalues --  -10.27462 -10.27460  -9.58683  -7.33321  -7.32467
 Alpha  occ. eigenvalues --   -7.32442  -1.15081  -1.00242  -0.96311  -0.93418
 Alpha  occ. eigenvalues --   -0.90706  -0.87135  -0.86374  -0.83162  -0.79323
 Alpha  occ. eigenvalues --   -0.78650  -0.74182  -0.72713  -0.70666  -0.67252
 Alpha  occ. eigenvalues --   -0.62312  -0.61344  -0.59653  -0.58786  -0.56771
 Alpha  occ. eigenvalues --   -0.54801  -0.53780  -0.53289  -0.52745  -0.52359
 Alpha  occ. eigenvalues --   -0.51697  -0.50916  -0.49855  -0.48780  -0.47875
 Alpha  occ. eigenvalues --   -0.46831  -0.46553  -0.45505  -0.45065  -0.44652
 Alpha  occ. eigenvalues --   -0.43876  -0.43279  -0.42489  -0.40798  -0.39929
 Alpha  occ. eigenvalues --   -0.37100  -0.34380  -0.34279  -0.31727  -0.30619
 Alpha virt. eigenvalues --   -0.00976   0.02284   0.07959   0.09658   0.10130
 Alpha virt. eigenvalues --    0.10739   0.11885   0.13594   0.14008   0.14749
 Alpha virt. eigenvalues --    0.15807   0.16583   0.17367   0.17701   0.18161
 Alpha virt. eigenvalues --    0.18881   0.19203   0.19474   0.20851   0.21138
 Alpha virt. eigenvalues --    0.22474   0.22584   0.22797   0.23263   0.24083
 Alpha virt. eigenvalues --    0.24545   0.25605   0.26707   0.26837   0.27262
 Alpha virt. eigenvalues --    0.27961   0.28362   0.28690   0.29693   0.30021
 Alpha virt. eigenvalues --    0.30608   0.31048   0.31416   0.31671   0.32804
 Alpha virt. eigenvalues --    0.33131   0.33662   0.34016   0.34735   0.35400
 Alpha virt. eigenvalues --    0.36064   0.36587   0.37067   0.37903   0.38589
 Alpha virt. eigenvalues --    0.39490   0.39897   0.40176   0.41049   0.41092
 Alpha virt. eigenvalues --    0.42146   0.42734   0.43050   0.43360   0.43997
 Alpha virt. eigenvalues --    0.44091   0.45014   0.45261   0.45340   0.45990
 Alpha virt. eigenvalues --    0.46922   0.47480   0.48043   0.48626   0.49088
 Alpha virt. eigenvalues --    0.49465   0.49633   0.50933   0.51222   0.51685
 Alpha virt. eigenvalues --    0.52004   0.52275   0.53599   0.53778   0.54408
 Alpha virt. eigenvalues --    0.54585   0.54897   0.55279   0.55740   0.56045
 Alpha virt. eigenvalues --    0.56444   0.56880   0.57519   0.58085   0.58794
 Alpha virt. eigenvalues --    0.59076   0.60392   0.60700   0.61693   0.61899
 Alpha virt. eigenvalues --    0.63616   0.63976   0.64133   0.64888   0.66193
 Alpha virt. eigenvalues --    0.66971   0.67691   0.68193   0.69685   0.70850
 Alpha virt. eigenvalues --    0.71718   0.72014   0.72989   0.73460   0.74624
 Alpha virt. eigenvalues --    0.75787   0.75835   0.76348   0.77108   0.77436
 Alpha virt. eigenvalues --    0.78029   0.78258   0.78759   0.79628   0.80349
 Alpha virt. eigenvalues --    0.82035   0.83234   0.83795   0.83955   0.84922
 Alpha virt. eigenvalues --    0.86044   0.86623   0.87886   0.88647   0.89366
 Alpha virt. eigenvalues --    0.90907   0.91434   0.91770   0.92462   0.93160
 Alpha virt. eigenvalues --    0.93540   0.95842   0.96469   0.96821   0.97999
 Alpha virt. eigenvalues --    0.98629   1.01090   1.01971   1.03918   1.04155
 Alpha virt. eigenvalues --    1.05097   1.05884   1.06593   1.07072   1.07803
 Alpha virt. eigenvalues --    1.09445   1.09986   1.10918   1.11875   1.12715
 Alpha virt. eigenvalues --    1.13892   1.15023   1.15904   1.16770   1.17208
 Alpha virt. eigenvalues --    1.18747   1.19823   1.21001   1.21905   1.22182
 Alpha virt. eigenvalues --    1.23037   1.24393   1.25368   1.26213   1.27138
 Alpha virt. eigenvalues --    1.29386   1.29682   1.31060   1.32484   1.33050
 Alpha virt. eigenvalues --    1.34130   1.34425   1.35035   1.35945   1.36955
 Alpha virt. eigenvalues --    1.37842   1.39248   1.39578   1.41195   1.42526
 Alpha virt. eigenvalues --    1.43367   1.44023   1.47423   1.48142   1.49232
 Alpha virt. eigenvalues --    1.51103   1.51658   1.51885   1.53493   1.54058
 Alpha virt. eigenvalues --    1.54294   1.55123   1.56333   1.57653   1.58980
 Alpha virt. eigenvalues --    1.59953   1.61239   1.62168   1.62893   1.63142
 Alpha virt. eigenvalues --    1.64115   1.64595   1.65190   1.66084   1.66546
 Alpha virt. eigenvalues --    1.68230   1.68668   1.69675   1.70275   1.71170
 Alpha virt. eigenvalues --    1.71792   1.72271   1.73211   1.73428   1.74537
 Alpha virt. eigenvalues --    1.75004   1.75974   1.76731   1.78077   1.78774
 Alpha virt. eigenvalues --    1.79595   1.80268   1.81257   1.82333   1.84507
 Alpha virt. eigenvalues --    1.85480   1.86726   1.88090   1.88511   1.89311
 Alpha virt. eigenvalues --    1.90984   1.91855   1.93030   1.93727   1.94098
 Alpha virt. eigenvalues --    1.95461   1.97327   1.98469   1.99355   1.99849
 Alpha virt. eigenvalues --    2.00491   2.01545   2.03551   2.04208   2.04977
 Alpha virt. eigenvalues --    2.05846   2.06917   2.07682   2.09084   2.10529
 Alpha virt. eigenvalues --    2.11131   2.11801   2.12525   2.14358   2.15399
 Alpha virt. eigenvalues --    2.16165   2.17393   2.18248   2.19810   2.20567
 Alpha virt. eigenvalues --    2.20826   2.22156   2.22621   2.23335   2.24769
 Alpha virt. eigenvalues --    2.25446   2.25897   2.26904   2.28048   2.29044
 Alpha virt. eigenvalues --    2.29821   2.30679   2.31490   2.32380   2.34772
 Alpha virt. eigenvalues --    2.35111   2.35473   2.38804   2.39485   2.40382
 Alpha virt. eigenvalues --    2.40783   2.41866   2.42174   2.43542   2.44335
 Alpha virt. eigenvalues --    2.45321   2.45983   2.47802   2.48428   2.50297
 Alpha virt. eigenvalues --    2.51687   2.52378   2.52909   2.54033   2.54801
 Alpha virt. eigenvalues --    2.56181   2.57071   2.58609   2.60425   2.61816
 Alpha virt. eigenvalues --    2.62741   2.63734   2.64150   2.65725   2.65817
 Alpha virt. eigenvalues --    2.66693   2.67081   2.68120   2.68455   2.69648
 Alpha virt. eigenvalues --    2.70253   2.71322   2.71957   2.73367   2.73885
 Alpha virt. eigenvalues --    2.74471   2.75656   2.77461   2.78047   2.78657
 Alpha virt. eigenvalues --    2.79588   2.80395   2.82168   2.82407   2.83412
 Alpha virt. eigenvalues --    2.84487   2.85534   2.86718   2.87375   2.88497
 Alpha virt. eigenvalues --    2.89296   2.91217   2.91578   2.92089   2.92639
 Alpha virt. eigenvalues --    2.93221   2.93701   2.95320   2.96182   2.96501
 Alpha virt. eigenvalues --    2.97885   2.98591   2.99422   2.99772   3.01537
 Alpha virt. eigenvalues --    3.02163   3.03225   3.03909   3.04701   3.05300
 Alpha virt. eigenvalues --    3.06989   3.07743   3.08369   3.08954   3.10401
 Alpha virt. eigenvalues --    3.10731   3.11352   3.12413   3.13036   3.14637
 Alpha virt. eigenvalues --    3.15608   3.16585   3.19126   3.19274   3.19848
 Alpha virt. eigenvalues --    3.21082   3.21235   3.21746   3.23243   3.24213
 Alpha virt. eigenvalues --    3.24486   3.25063   3.26599   3.27237   3.27490
 Alpha virt. eigenvalues --    3.28898   3.29238   3.29924   3.30964   3.32043
 Alpha virt. eigenvalues --    3.32839   3.33638   3.33751   3.34947   3.35908
 Alpha virt. eigenvalues --    3.36668   3.37103   3.38418   3.39158   3.40916
 Alpha virt. eigenvalues --    3.41625   3.41665   3.42678   3.42973   3.43532
 Alpha virt. eigenvalues --    3.44194   3.44329   3.45480   3.45900   3.46917
 Alpha virt. eigenvalues --    3.49013   3.49779   3.50718   3.51324   3.52609
 Alpha virt. eigenvalues --    3.52960   3.55175   3.56221   3.57198   3.57454
 Alpha virt. eigenvalues --    3.58094   3.59154   3.60241   3.60445   3.61868
 Alpha virt. eigenvalues --    3.63453   3.63997   3.64968   3.65698   3.65781
 Alpha virt. eigenvalues --    3.66799   3.68352   3.69589   3.70123   3.71452
 Alpha virt. eigenvalues --    3.72235   3.73395   3.73793   3.75659   3.76775
 Alpha virt. eigenvalues --    3.79201   3.80788   3.81918   3.82186   3.83818
 Alpha virt. eigenvalues --    3.84633   3.87115   3.88369   3.91360   3.91904
 Alpha virt. eigenvalues --    3.92656   3.95216   3.96320   3.97368   3.98953
 Alpha virt. eigenvalues --    4.00679   4.01280   4.03398   4.04195   4.06618
 Alpha virt. eigenvalues --    4.07981   4.08703   4.10883   4.11424   4.13623
 Alpha virt. eigenvalues --    4.13758   4.15068   4.15431   4.16135   4.17980
 Alpha virt. eigenvalues --    4.20632   4.23672   4.25141   4.26484   4.27198
 Alpha virt. eigenvalues --    4.28926   4.29841   4.31701   4.32547   4.33495
 Alpha virt. eigenvalues --    4.34038   4.36432   4.36578   4.38952   4.41806
 Alpha virt. eigenvalues --    4.42680   4.43857   4.45536   4.47374   4.47698
 Alpha virt. eigenvalues --    4.51327   4.51926   4.53577   4.56090   4.56375
 Alpha virt. eigenvalues --    4.57732   4.58507   4.63024   4.65057   4.65832
 Alpha virt. eigenvalues --    4.70442   4.71409   4.74919   4.76413   4.77481
 Alpha virt. eigenvalues --    4.79469   4.82532   4.83930   4.86967   4.88479
 Alpha virt. eigenvalues --    4.89867   4.96057   4.97733   4.99845   5.02215
 Alpha virt. eigenvalues --    5.04910   5.07302   5.12101   5.17572   5.22267
 Alpha virt. eigenvalues --    5.22493   5.25315   5.29520   5.31168   5.34595
 Alpha virt. eigenvalues --    5.36286   5.38646   5.41766   5.46137   5.58481
 Alpha virt. eigenvalues --    5.64196   5.69526   5.70750   5.88630   5.94164
 Alpha virt. eigenvalues --    6.22740   6.50817   6.53312   6.74621   6.78019
 Alpha virt. eigenvalues --    6.92701   7.20277   7.23039  10.83840  10.95148
 Alpha virt. eigenvalues --   11.47469  22.17579  22.38896  22.49392  22.56234
 Alpha virt. eigenvalues --   22.62603  22.69531  22.71274  22.78419  22.82462
 Alpha virt. eigenvalues --   22.95516  23.02156  23.06271  23.15410  23.36708
 Alpha virt. eigenvalues --   23.73108  26.04834  44.13347
          Condensed to atoms (all electrons):
               1          2          3          4          5          6
     1  C    4.979795   0.364660   0.054313  -0.118332   0.082391   0.378166
     2  C    0.364660   5.280889   0.342256   0.024852  -0.165978   0.071532
     3  C    0.054313   0.342256   5.411025   0.234789  -0.033598  -0.095537
     4  C   -0.118332   0.024852   0.234789   5.835670   0.191341   0.059109
     5  C    0.082391  -0.165978  -0.033598   0.191341   5.339799   0.340049
     6  C    0.378166   0.071532  -0.095537   0.059109   0.340049   5.010459
     7  H    0.447940  -0.055751   0.012339  -0.002701   0.011710  -0.056368
     8  H   -0.037386   0.446798  -0.065062   0.015210  -0.003863   0.008549
     9  H    0.012270  -0.005607   0.012854  -0.072058   0.458004  -0.053072
    10  H   -0.059372   0.012662  -0.003055   0.013206  -0.060817   0.455681
    11  C   -0.009492   0.029637   0.007005   0.114683  -0.120020   0.019382
    12  C    0.022074  -0.187284   0.147910   0.040848   0.039359  -0.012767
    13  C    0.002614  -0.018521  -0.139359  -0.035762   0.064084  -0.004396
    14  C   -0.002845   0.036762   0.123216  -0.132578  -0.023182   0.002973
    15  H    0.000015  -0.000177   0.018570  -0.004308   0.000215  -0.000007
    16  O    0.000750  -0.000679   0.003588  -0.173741   0.047097   0.000636
    17  Cl  -0.000799   0.020656  -0.128929   0.013390  -0.000844   0.000531
    18  C    0.000000  -0.000001  -0.000137   0.000582  -0.000028   0.000000
    19  C    0.000002  -0.000048   0.000602  -0.002072   0.000173  -0.000007
    20  H    0.000000  -0.000002  -0.000009  -0.000075   0.000004   0.000000
    21  C    0.000000   0.000000  -0.000003   0.000001   0.000000   0.000000
    22  H    0.000000   0.000000   0.000000   0.000000   0.000000   0.000000
    23  H    0.000000   0.000000  -0.000001   0.000000   0.000000   0.000000
    24  H    0.000000   0.000000   0.000000   0.000000   0.000000   0.000000
    25  C    0.000000  -0.000001   0.000078  -0.001025   0.000043   0.000000
    26  H    0.000000   0.000002   0.000001   0.000681  -0.000083   0.000000
    27  H    0.000000   0.000000  -0.000001   0.000011   0.000000   0.000000
    28  H    0.000000   0.000000   0.000001   0.000010  -0.000001   0.000000
    29  C   -0.000007   0.000341   0.001085  -0.003260  -0.000414   0.000081
    30  H   -0.000010  -0.000015   0.001706   0.000477  -0.000315   0.000008
    31  H    0.000002  -0.000008  -0.000454   0.004349  -0.000307  -0.000001
    32  H   -0.000027   0.000322   0.004617   0.001015  -0.001853   0.000063
               7          8          9         10         11         12
     1  C    0.447940  -0.037386   0.012270  -0.059372  -0.009492   0.022074
     2  C   -0.055751   0.446798  -0.005607   0.012662   0.029637  -0.187284
     3  C    0.012339  -0.065062   0.012854  -0.003055   0.007005   0.147910
     4  C   -0.002701   0.015210  -0.072058   0.013206   0.114683   0.040848
     5  C    0.011710  -0.003863   0.458004  -0.060817  -0.120020   0.039359
     6  C   -0.056368   0.008549  -0.053072   0.455681   0.019382  -0.012767
     7  H    0.506973  -0.005569  -0.000055  -0.006761   0.000074  -0.000168
     8  H   -0.005569   0.495455   0.000016  -0.000079   0.000920  -0.023295
     9  H   -0.000055   0.000016   0.486322  -0.005785  -0.018138   0.000817
    10  H   -0.006761  -0.000079  -0.005785   0.507298  -0.000361   0.000067
    11  C    0.000074   0.000920  -0.018138  -0.000361   4.921061  -0.118281
    12  C   -0.000168  -0.023295   0.000817   0.000067  -0.118281   5.305349
    13  C    0.000012  -0.000258   0.004075  -0.000032   0.232893   0.107886
    14  C   -0.000020   0.001269  -0.000790   0.000015   0.087549   0.336212
    15  H    0.000000   0.000008   0.000003   0.000000   0.006600  -0.062126
    16  O    0.000001   0.000006   0.023545  -0.000132   0.661162  -0.003815
    17  Cl  -0.000113   0.019822   0.000002   0.000001  -0.001885   0.335968
    18  C    0.000000   0.000000  -0.000002   0.000000   0.000012  -0.000370
    19  C    0.000000   0.000000   0.000011   0.000000   0.005975  -0.004770
    20  H    0.000000   0.000000   0.000000   0.000000  -0.000177   0.000695
    21  C    0.000000   0.000000   0.000000   0.000000  -0.000073   0.000049
    22  H    0.000000   0.000000   0.000000   0.000000   0.000001  -0.000001
    23  H    0.000000   0.000000   0.000000   0.000000   0.000010  -0.000004
    24  H    0.000000   0.000000   0.000000   0.000000  -0.000009   0.000008
    25  C    0.000000   0.000000   0.000004   0.000000  -0.001960   0.000039
    26  H    0.000000   0.000000  -0.000012   0.000000  -0.000501  -0.000110
    27  H    0.000000   0.000000   0.000000   0.000000   0.000154  -0.000004
    28  H    0.000000   0.000000   0.000000   0.000000  -0.000336   0.000031
    29  C    0.000000  -0.000004  -0.000077   0.000000   0.000121  -0.007579
    30  H    0.000000  -0.000001  -0.000023   0.000000   0.003952  -0.004074
    31  H    0.000000   0.000000  -0.000035   0.000000  -0.004862   0.000829
    32  H    0.000000   0.000000  -0.000103   0.000000  -0.010966  -0.009876
              13         14         15         16         17         18
     1  C    0.002614  -0.002845   0.000015   0.000750  -0.000799   0.000000
     2  C   -0.018521   0.036762  -0.000177  -0.000679   0.020656  -0.000001
     3  C   -0.139359   0.123216   0.018570   0.003588  -0.128929  -0.000137
     4  C   -0.035762  -0.132578  -0.004308  -0.173741   0.013390   0.000582
     5  C    0.064084  -0.023182   0.000215   0.047097  -0.000844  -0.000028
     6  C   -0.004396   0.002973  -0.000007   0.000636   0.000531   0.000000
     7  H    0.000012  -0.000020   0.000000   0.000001  -0.000113   0.000000
     8  H   -0.000258   0.001269   0.000008   0.000006   0.019822   0.000000
     9  H    0.004075  -0.000790   0.000003   0.023545   0.000002  -0.000002
    10  H   -0.000032   0.000015   0.000000  -0.000132   0.000001   0.000000
    11  C    0.232893   0.087549   0.006600   0.661162  -0.001885   0.000012
    12  C    0.107886   0.336212  -0.062126  -0.003815   0.335968  -0.000370
    13  C    5.188584   0.134192  -0.034779  -0.105099   0.011798   0.009519
    14  C    0.134192   5.405594   0.428129   0.009647  -0.051715  -0.003142
    15  H   -0.034779   0.428129   0.480820  -0.000125   0.000953   0.000447
    16  O   -0.105099   0.009647  -0.000125   7.905787   0.000006   0.001310
    17  Cl   0.011798  -0.051715   0.000953   0.000006  16.879769   0.000022
    18  C    0.009519  -0.003142   0.000447   0.001310   0.000022   5.115275
    19  C   -0.017323   0.005070   0.011285  -0.000169  -0.000154   0.644019
    20  H   -0.005609   0.001257  -0.001860  -0.000050   0.000054  -0.045668
    21  C   -0.000087   0.000256  -0.000347  -0.000001  -0.000002   0.295325
    22  H   -0.000046  -0.000018   0.000021   0.000000   0.000000  -0.038480
    23  H   -0.000007  -0.000036  -0.000031   0.000000   0.000000  -0.057043
    24  H    0.000248   0.000110  -0.000072   0.000000   0.000000  -0.036476
    25  C   -0.005128   0.002618   0.000200  -0.003835   0.000001   0.250625
    26  H   -0.005522   0.001368  -0.000051   0.006618   0.000000  -0.045469
    27  H    0.000210  -0.000131   0.000009   0.000041   0.000000  -0.037979
    28  H    0.001322   0.000227  -0.000091   0.000060   0.000000  -0.039627
    29  C    0.210417   0.001933  -0.006137  -0.011791   0.000264  -0.048959
    30  H   -0.032349   0.003983   0.001022   0.000839  -0.000105   0.003823
    31  H   -0.063809   0.003988  -0.000152   0.010024   0.000005   0.002224
    32  H    0.397832  -0.013754  -0.002311  -0.000189  -0.000069   0.000628
              19         20         21         22         23         24
     1  C    0.000002   0.000000   0.000000   0.000000   0.000000   0.000000
     2  C   -0.000048  -0.000002   0.000000   0.000000   0.000000   0.000000
     3  C    0.000602  -0.000009  -0.000003   0.000000  -0.000001   0.000000
     4  C   -0.002072  -0.000075   0.000001   0.000000   0.000000   0.000000
     5  C    0.000173   0.000004   0.000000   0.000000   0.000000   0.000000
     6  C   -0.000007   0.000000   0.000000   0.000000   0.000000   0.000000
     7  H    0.000000   0.000000   0.000000   0.000000   0.000000   0.000000
     8  H    0.000000   0.000000   0.000000   0.000000   0.000000   0.000000
     9  H    0.000011   0.000000   0.000000   0.000000   0.000000   0.000000
    10  H    0.000000   0.000000   0.000000   0.000000   0.000000   0.000000
    11  C    0.005975  -0.000177  -0.000073   0.000001   0.000010  -0.000009
    12  C   -0.004770   0.000695   0.000049  -0.000001  -0.000004   0.000008
    13  C   -0.017323  -0.005609  -0.000087  -0.000046  -0.000007   0.000248
    14  C    0.005070   0.001257   0.000256  -0.000018  -0.000036   0.000110
    15  H    0.011285  -0.001860  -0.000347   0.000021  -0.000031  -0.000072
    16  O   -0.000169  -0.000050  -0.000001   0.000000   0.000000   0.000000
    17  Cl  -0.000154   0.000054  -0.000002   0.000000   0.000000   0.000000
    18  C    0.644019  -0.045668   0.295325  -0.038480  -0.057043  -0.036476
    19  C    5.219779   0.411690  -0.056559  -0.000441   0.003811  -0.005874
    20  H    0.411690   0.519340  -0.010362   0.000238   0.002356   0.000309
    21  C   -0.056559  -0.010362   4.921245   0.406113   0.422096   0.412208
    22  H   -0.000441   0.000238   0.406113   0.556322  -0.019494  -0.034241
    23  H    0.003811   0.002356   0.422096  -0.019494   0.536992  -0.021281
    24  H   -0.005874   0.000309   0.412208  -0.034241  -0.021281   0.558340
    25  C   -0.052538   0.005925  -0.041802  -0.001479   0.005849  -0.003141
    26  H   -0.012479  -0.000084   0.004621  -0.000068  -0.000186   0.000067
    27  H    0.005036  -0.000233  -0.004359   0.004023  -0.000014  -0.000910
    28  H   -0.002003  -0.000167   0.000647  -0.000947  -0.000080   0.003562
    29  C    0.201536  -0.016878   0.010594  -0.001145   0.002036  -0.000206
    30  H   -0.029177  -0.004014  -0.000325   0.000036  -0.000068  -0.000010
    31  H   -0.042263   0.001954  -0.000158   0.000100   0.000005  -0.000053
    32  H   -0.007861   0.000575  -0.000087   0.000011  -0.000017   0.000000
              25         26         27         28         29         30
     1  C    0.000000   0.000000   0.000000   0.000000  -0.000007  -0.000010
     2  C   -0.000001   0.000002   0.000000   0.000000   0.000341  -0.000015
     3  C    0.000078   0.000001  -0.000001   0.000001   0.001085   0.001706
     4  C   -0.001025   0.000681   0.000011   0.000010  -0.003260   0.000477
     5  C    0.000043  -0.000083   0.000000  -0.000001  -0.000414  -0.000315
     6  C    0.000000   0.000000   0.000000   0.000000   0.000081   0.000008
     7  H    0.000000   0.000000   0.000000   0.000000   0.000000   0.000000
     8  H    0.000000   0.000000   0.000000   0.000000  -0.000004  -0.000001
     9  H    0.000004  -0.000012   0.000000   0.000000  -0.000077  -0.000023
    10  H    0.000000   0.000000   0.000000   0.000000   0.000000   0.000000
    11  C   -0.001960  -0.000501   0.000154  -0.000336   0.000121   0.003952
    12  C    0.000039  -0.000110  -0.000004   0.000031  -0.007579  -0.004074
    13  C   -0.005128  -0.005522   0.000210   0.001322   0.210417  -0.032349
    14  C    0.002618   0.001368  -0.000131   0.000227   0.001933   0.003983
    15  H    0.000200  -0.000051   0.000009  -0.000091  -0.006137   0.001022
    16  O   -0.003835   0.006618   0.000041   0.000060  -0.011791   0.000839
    17  Cl   0.000001   0.000000   0.000000   0.000000   0.000264  -0.000105
    18  C    0.250625  -0.045469  -0.037979  -0.039627  -0.048959   0.003823
    19  C   -0.052538  -0.012479   0.005036  -0.002003   0.201536  -0.029177
    20  H    0.005925  -0.000084  -0.000233  -0.000167  -0.016878  -0.004014
    21  C   -0.041802   0.004621  -0.004359   0.000647   0.010594  -0.000325
    22  H   -0.001479  -0.000068   0.004023  -0.000947  -0.001145   0.000036
    23  H    0.005849  -0.000186  -0.000014  -0.000080   0.002036  -0.000068
    24  H   -0.003141   0.000067  -0.000910   0.003562  -0.000206  -0.000010
    25  C    4.984210   0.424568   0.401937   0.409262   0.010549   0.000709
    26  H    0.424568   0.520559  -0.017749  -0.021697   0.008141   0.000662
    27  H    0.401937  -0.017749   0.541332  -0.027045  -0.002782   0.000052
    28  H    0.409262  -0.021697  -0.027045   0.544741  -0.002201  -0.000072
    29  C    0.010549   0.008141  -0.002782  -0.002201   5.047543   0.394364
    30  H    0.000709   0.000662   0.000052  -0.000072   0.394364   0.532660
    31  H   -0.007175  -0.001088   0.000948   0.000020   0.453494  -0.010906
    32  H   -0.000066   0.000375   0.000275  -0.000685  -0.042217   0.004891
              31         32
     1  C    0.000002  -0.000027
     2  C   -0.000008   0.000322
     3  C   -0.000454   0.004617
     4  C    0.004349   0.001015
     5  C   -0.000307  -0.001853
     6  C   -0.000001   0.000063
     7  H    0.000000   0.000000
     8  H    0.000000   0.000000
     9  H   -0.000035  -0.000103
    10  H    0.000000   0.000000
    11  C   -0.004862  -0.010966
    12  C    0.000829  -0.009876
    13  C   -0.063809   0.397832
    14  C    0.003988  -0.013754
    15  H   -0.000152  -0.002311
    16  O    0.010024  -0.000189
    17  Cl   0.000005  -0.000069
    18  C    0.002224   0.000628
    19  C   -0.042263  -0.007861
    20  H    0.001954   0.000575
    21  C   -0.000158  -0.000087
    22  H    0.000100   0.000011
    23  H    0.000005  -0.000017
    24  H   -0.000053   0.000000
    25  C   -0.007175  -0.000066
    26  H   -0.001088   0.000375
    27  H    0.000948   0.000275
    28  H    0.000020  -0.000685
    29  C    0.453494  -0.042217
    30  H   -0.010906   0.004891
    31  H    0.491691   0.000233
    32  H    0.000233   0.539135
 Mulliken charges:
               1
     1  C   -0.116725
     2  C   -0.197299
     3  C    0.090188
     4  C   -0.004313
     5  C   -0.162965
     6  C   -0.125064
     7  H    0.148458
     8  H    0.147465
     9  H    0.157834
    10  H    0.147461
    11  C    0.195871
    12  C    0.096385
    13  C    0.102400
    14  C   -0.358159
    15  H    0.164276
    16  O   -0.371491
    17  Cl  -0.098630
    18  C    0.029569
    19  C   -0.275252
    20  H    0.140792
    21  C   -0.358991
    22  H    0.129494
    23  H    0.125106
    24  H    0.127420
    25  C   -0.378465
    26  H    0.137433
    27  H    0.137178
    28  H    0.135071
    29  C   -0.198845
    30  H    0.132279
    31  H    0.161407
    32  H    0.140111
 Sum of Mulliken charges =   0.00000
 Mulliken charges with hydrogens summed into heavy atoms:
               1
     1  C    0.031733
     2  C   -0.049834
     3  C    0.090188
     4  C   -0.004313
     5  C   -0.005131
     6  C    0.022397
    11  C    0.195871
    12  C    0.096385
    13  C    0.242511
    14  C   -0.193882
    16  O   -0.371491
    17  Cl  -0.098630
    18  C    0.029569
    19  C   -0.134460
    21  C    0.023028
    25  C    0.031216
    29  C    0.094841
 Electronic spatial extent (au):  <R**2>=           5534.0467
 Charge=              0.0000 electrons
 Dipole moment (field-independent basis, Debye):
    X=              0.1033    Y=              0.8669    Z=             -0.2103  Tot=              0.8981
 Quadrupole moment (field-independent basis, Debye-Ang):
   XX=            -87.1196   YY=           -115.2831   ZZ=           -109.1746
   XY=             -4.8239   XZ=              2.8854   YZ=              0.3825
 Traceless Quadrupole moment (field-independent basis, Debye-Ang):
   XX=             16.7395   YY=            -11.4240   ZZ=             -5.3155
   XY=             -4.8239   XZ=              2.8854   YZ=              0.3825
 Octapole moment (field-independent basis, Debye-Ang**2):
  XXX=             39.8992  YYY=             16.8003  ZZZ=             -3.0065  XYY=             10.4086
  XXY=            -13.2625  XXZ=             -7.9972  XZZ=            -11.0432  YZZ=              2.6819
  YYZ=              3.2841  XYZ=             -2.9092
 Hexadecapole moment (field-independent basis, Debye-Ang**3):
 XXXX=          -4987.3898 YYYY=          -1765.8230 ZZZZ=           -259.2169 XXXY=            -10.0216
 XXXZ=             59.4841 YYYX=            -31.6947 YYYZ=             -4.9375 ZZZX=             12.8693
 ZZZY=              2.1301 XXYY=          -1138.9967 XXZZ=          -1025.6882 YYZZ=           -339.2047
 XXYZ=              4.0375 YYXZ=             -2.4333 ZZXY=              6.7269
 N-N= 1.235510813327D+03 E-N=-5.089232133951D+03  KE= 1.111813140532D+03
   1 Symmetry operations used in ECPInt.
 ECPInt:  NShTT=   31125 NPrTT=   96136 LenC2=   27454 LenP2D=   61326.
 LDataN:  DoStor=T MaxTD1= 7 Len=  274
 D1PCM: PCM CHGder 1st derivatives, ID1Alg=3 FixD1E=F DoIter=F DoCFld=F I1PDM=0.
 Calling FoFJK, ICntrl=      2127 FMM=F ISym2X=0 I1Cent= 0 IOpClX= 0 NMat=1 NMatS=1 NMatT=0.
 ***** Axes restored to original set *****
 -------------------------------------------------------------------
 Center     Atomic                   Forces (Hartrees/Bohr)
 Number     Number              X              Y              Z
 -------------------------------------------------------------------
      1        6          -0.002303494    0.000117203    0.000135833
      2        6          -0.000306546   -0.002749623   -0.000173943
      3        6           0.001720038   -0.001429107    0.000492488
      4        6           0.002118669   -0.000277604   -0.000417276
      5        6           0.001692474    0.002580861    0.000385905
      6        6          -0.002161906    0.001046090   -0.000031292
      7        1          -0.005410311   -0.001530660   -0.000155450
      8        1          -0.000791150   -0.006017759    0.000195587
      9        1           0.002750592    0.005488877   -0.000008968
     10        1          -0.003960843    0.004114975   -0.000405999
     11        6           0.002165685    0.002362677    0.001603356
     12        6          -0.007320307   -0.006616897   -0.000646293
     13        6          -0.000953023    0.000098358   -0.004610789
     14        6           0.007270887    0.005339703    0.000192181
     15        1           0.003657868   -0.005166145    0.000260824
     16        8           0.000728986    0.000621867   -0.000944543
     17       17          -0.001184081   -0.000194038   -0.000186297
     18        6           0.005695058    0.001068468    0.005051087
     19        6          -0.006921762    0.000907165   -0.003204347
     20        1           0.000478575   -0.005052929   -0.003143851
     21        6          -0.001284795    0.000512169   -0.000254396
     22        1           0.003911642    0.002681803   -0.001086523
     23        1          -0.000886953   -0.003779630   -0.003051246
     24        1           0.000414555   -0.001185170    0.004614546
     25        6          -0.000471793   -0.000981858   -0.001499382
     26        1          -0.005079373    0.003074513   -0.000627128
     27        1           0.004104495    0.002291941   -0.001231603
     28        1           0.000535669   -0.001637739    0.004601940
     29        6           0.000473786   -0.001937995    0.003281270
     30        1          -0.002904828   -0.000912021   -0.004161128
     31        1           0.001096193    0.005862719    0.000460373
     32        1           0.003125995    0.001299786    0.004565062
 -------------------------------------------------------------------
 Cartesian Forces:  Max     0.007320307 RMS     0.002989553

 GradGradGradGradGradGradGradGradGradGradGradGradGradGradGradGradGradGrad
 Berny optimization.
 FormGI is forming the generalized inverse of G from B-inverse, IUseBI=4.
 GSVD:  received Info=                   1 from GESDD.
 Internal  Forces:  Max     0.011991689 RMS     0.002669970
 Search for a local minimum.
 Step number   1 out of a maximum of  179
 All quantities printed in internal units (Hartrees-Bohrs-Radians)
 Mixed Optimization -- RFO/linear search
 Second derivative matrix not updated -- first step.
 ITU=  0
     Eigenvalues ---    0.00230   0.00645   0.00695   0.00697   0.00710
     Eigenvalues ---    0.00721   0.01303   0.01397   0.01486   0.01573
     Eigenvalues ---    0.01687   0.01787   0.01876   0.02132   0.02141
     Eigenvalues ---    0.02158   0.02168   0.02171   0.02186   0.02201
     Eigenvalues ---    0.02862   0.04058   0.04082   0.05423   0.05478
     Eigenvalues ---    0.06431   0.06884   0.07082   0.07326   0.07382
     Eigenvalues ---    0.09281   0.12842   0.15997   0.15999   0.16000
     Eigenvalues ---    0.16000   0.16000   0.16000   0.16000   0.16000
     Eigenvalues ---    0.16000   0.16000   0.16000   0.16000   0.17178
     Eigenvalues ---    0.19672   0.21965   0.22000   0.22001   0.22582
     Eigenvalues ---    0.24225   0.24499   0.24998   0.25000   0.25000
     Eigenvalues ---    0.25000   0.25000   0.27464   0.29797   0.30972
     Eigenvalues ---    0.31821   0.31835   0.31871   0.31938   0.32978
     Eigenvalues ---    0.33037   0.33461   0.33487   0.33490   0.33496
     Eigenvalues ---    0.33647   0.33816   0.33928   0.33982   0.34252
     Eigenvalues ---    0.34559   0.34661   0.34687   0.34707   0.34751
     Eigenvalues ---    0.34892   0.39773   0.42130   0.44668   0.45992
     Eigenvalues ---    0.46525   0.46924   0.56050   0.56856   0.99094
 RFO step:  Lambda=-3.37627011D-03 EMin= 2.30000000D-03
 Linear search not attempted -- first point.
 Iteration  1 RMS(Cart)=  0.07545497 RMS(Int)=  0.00091476
 Iteration  2 RMS(Cart)=  0.00230725 RMS(Int)=  0.00002702
 Iteration  3 RMS(Cart)=  0.00000108 RMS(Int)=  0.00002702
 Iteration  4 RMS(Cart)=  0.00000000 RMS(Int)=  0.00002702
 Variable       Old X    -DE/DX   Delta X   Delta X   Delta X     New X
                                 (Linear)    (Quad)   (Total)
    R1        2.63167  -0.00858   0.00000  -0.01837  -0.01837   2.61330
    R2        2.63891  -0.00839   0.00000  -0.01833  -0.01832   2.62058
    R3        2.06185  -0.00562   0.00000  -0.01606  -0.01606   2.04580
    R4        2.64502  -0.00685   0.00000  -0.01481  -0.01481   2.63021
    R5        2.05851  -0.00601   0.00000  -0.01705  -0.01705   2.04146
    R6        2.66676  -0.00655   0.00000  -0.01473  -0.01474   2.65202
    R7        2.78522  -0.00391   0.00000  -0.01218  -0.01220   2.77302
    R8        2.64023  -0.00644   0.00000  -0.01366  -0.01366   2.62657
    R9        2.81614  -0.00406   0.00000  -0.01107  -0.01106   2.80508
   R10        2.62742  -0.00886   0.00000  -0.01870  -0.01870   2.60872
   R11        2.06154  -0.00606   0.00000  -0.01730  -0.01730   2.04424
   R12        2.06082  -0.00573   0.00000  -0.01632  -0.01632   2.04450
   R13        2.87271  -0.00179   0.00000  -0.00445  -0.00444   2.86827
   R14        2.29004  -0.00080   0.00000  -0.00080  -0.00080   2.28924
   R15        2.52715  -0.01199   0.00000  -0.02120  -0.02121   2.50594
   R16        3.29766  -0.00051   0.00000  -0.00164  -0.00164   3.29602
   R17        2.82647  -0.00382   0.00000  -0.01133  -0.01133   2.81514
   R18        2.93325   0.00034   0.00000   0.00122   0.00122   2.93447
   R19        2.08986  -0.00566   0.00000  -0.01695  -0.01695   2.07291
   R20        2.06398  -0.00628   0.00000  -0.01799  -0.01799   2.04599
   R21        2.53518  -0.00976   0.00000  -0.01706  -0.01706   2.51812
   R22        2.84257  -0.00280   0.00000  -0.00868  -0.00868   2.83388
   R23        2.84473  -0.00293   0.00000  -0.00911  -0.00911   2.83562
   R24        2.06908  -0.00596   0.00000  -0.01724  -0.01724   2.05183
   R25        2.84447  -0.00161   0.00000  -0.00501  -0.00501   2.83946
   R26        2.08199  -0.00484   0.00000  -0.01431  -0.01431   2.06768
   R27        2.07451  -0.00491   0.00000  -0.01432  -0.01432   2.06019
   R28        2.08204  -0.00479   0.00000  -0.01416  -0.01416   2.06788
   R29        2.07360  -0.00594   0.00000  -0.01731  -0.01731   2.05629
   R30        2.08189  -0.00485   0.00000  -0.01434  -0.01434   2.06755
   R31        2.08250  -0.00490   0.00000  -0.01449  -0.01449   2.06801
   R32        2.07930  -0.00512   0.00000  -0.01507  -0.01507   2.06423
   R33        2.07642  -0.00595   0.00000  -0.01741  -0.01741   2.05901
    A1        2.10626   0.00012   0.00000  -0.00063  -0.00063   2.10562
    A2        2.08312   0.00005   0.00000   0.00098   0.00098   2.08410
    A3        2.09381  -0.00017   0.00000  -0.00035  -0.00035   2.09346
    A4        2.10192   0.00070   0.00000   0.00282   0.00282   2.10474
    A5        2.09657  -0.00126   0.00000  -0.00699  -0.00699   2.08958
    A6        2.08469   0.00056   0.00000   0.00417   0.00417   2.08887
    A7        2.07238  -0.00077   0.00000  -0.00168  -0.00167   2.07070
    A8        2.14204   0.00040   0.00000   0.00196   0.00197   2.14401
    A9        2.06877   0.00037   0.00000  -0.00028  -0.00030   2.06847
   A10        2.09979  -0.00081   0.00000  -0.00316  -0.00317   2.09662
   A11        2.11615  -0.00044   0.00000  -0.00053  -0.00053   2.11562
   A12        2.06725   0.00125   0.00000   0.00369   0.00368   2.07093
   A13        2.10230   0.00071   0.00000   0.00333   0.00333   2.10564
   A14        2.05754   0.00064   0.00000   0.00443   0.00443   2.06198
   A15        2.12334  -0.00135   0.00000  -0.00777  -0.00777   2.11557
   A16        2.08372   0.00005   0.00000  -0.00068  -0.00068   2.08305
   A17        2.09959  -0.00008   0.00000   0.00004   0.00004   2.09963
   A18        2.09987   0.00002   0.00000   0.00064   0.00064   2.10051
   A19        2.07167  -0.00106   0.00000  -0.00017  -0.00026   2.07141
   A20        2.12103  -0.00004   0.00000  -0.00203  -0.00216   2.11886
   A21        2.09044   0.00110   0.00000   0.00246   0.00232   2.09276
   A22        2.14789   0.00120   0.00000   0.00247   0.00244   2.15032
   A23        2.05074   0.00120   0.00000   0.00587   0.00588   2.05663
   A24        2.08455  -0.00240   0.00000  -0.00833  -0.00832   2.07623
   A25        2.01565  -0.00076   0.00000  -0.00444  -0.00444   2.01121
   A26        1.91163   0.00062   0.00000   0.00177   0.00173   1.91336
   A27        1.83511   0.00024   0.00000   0.00450   0.00447   1.83957
   A28        1.94939  -0.00026   0.00000  -0.00481  -0.00481   1.94458
   A29        1.88500  -0.00017   0.00000  -0.00435  -0.00434   1.88066
   A30        1.85662   0.00044   0.00000   0.00901   0.00900   1.86561
   A31        2.14584   0.00068   0.00000   0.00265   0.00264   2.14848
   A32        2.08809   0.00052   0.00000   0.00394   0.00395   2.09204
   A33        2.04921  -0.00120   0.00000  -0.00661  -0.00660   2.04261
   A34        2.11970  -0.00162   0.00000  -0.00640  -0.00640   2.11330
   A35        2.15633   0.00277   0.00000   0.01092   0.01092   2.16725
   A36        2.00715  -0.00114   0.00000  -0.00451  -0.00451   2.00264
   A37        2.05754  -0.00179   0.00000  -0.00731  -0.00735   2.05019
   A38        2.18428   0.00426   0.00000   0.01913   0.01909   2.20337
   A39        2.04109  -0.00246   0.00000  -0.01148  -0.01151   2.02958
   A40        1.93017   0.00035   0.00000   0.00227   0.00227   1.93243
   A41        1.95065   0.00030   0.00000   0.00128   0.00127   1.95192
   A42        1.93040   0.00048   0.00000   0.00331   0.00330   1.93370
   A43        1.89435  -0.00048   0.00000  -0.00370  -0.00370   1.89065
   A44        1.86146  -0.00023   0.00000  -0.00033  -0.00034   1.86113
   A45        1.89407  -0.00047   0.00000  -0.00311  -0.00311   1.89096
   A46        1.98048   0.00063   0.00000   0.00383   0.00383   1.98431
   A47        1.92374   0.00019   0.00000   0.00072   0.00072   1.92445
   A48        1.92138   0.00033   0.00000   0.00251   0.00250   1.92388
   A49        1.88851  -0.00060   0.00000  -0.00450  -0.00450   1.88401
   A50        1.88657  -0.00039   0.00000  -0.00164  -0.00165   1.88493
   A51        1.85868  -0.00024   0.00000  -0.00138  -0.00138   1.85730
   A52        1.97024   0.00292   0.00000   0.01465   0.01459   1.98483
   A53        1.88866  -0.00070   0.00000  -0.00536  -0.00529   1.88336
[...]
 Alpha virt. eigenvalues --    4.35261   4.38333   4.39793   4.40900   4.44097
 Alpha virt. eigenvalues --    4.44846   4.45681   4.47298   4.49052   4.49476
 Alpha virt. eigenvalues --    4.52779   4.53505   4.55151   4.57200   4.58215
 Alpha virt. eigenvalues --    4.59845   4.60568   4.64473   4.67027   4.68030
 Alpha virt. eigenvalues --    4.72062   4.74057   4.74460   4.78022   4.79770
 Alpha virt. eigenvalues --    4.81387   4.84700   4.85894   4.87499   4.89908
 Alpha virt. eigenvalues --    4.91152   4.96644   4.99618   5.01507   5.02504
 Alpha virt. eigenvalues --    5.05001   5.08521   5.13464   5.17130   5.21307
 Alpha virt. eigenvalues --    5.23095   5.26109   5.30042   5.33232   5.35198
 Alpha virt. eigenvalues --    5.38123   5.40517   5.44834   5.48300   5.59523
 Alpha virt. eigenvalues --    5.62658   5.70334   5.71481   5.89903   5.94086
 Alpha virt. eigenvalues --    6.23568   6.51067   6.53097   6.74477   6.78914
 Alpha virt. eigenvalues --    6.93207   7.20052   7.22391  10.84009  10.95198
 Alpha virt. eigenvalues --   11.47601  22.19020  22.41492  22.53414  22.59411
 Alpha virt. eigenvalues --   22.64882  22.72731  22.74717  22.82512  22.85131
 Alpha virt. eigenvalues --   22.98475  23.07468  23.11638  23.19810  23.39824
 Alpha virt. eigenvalues --   23.76075  26.04616  44.12349
          Condensed to atoms (all electrons):
               1          2          3          4          5          6
     1  C    4.988267   0.353362   0.060985  -0.127639   0.094041   0.367425
     2  C    0.353362   5.306270   0.332064   0.031082  -0.176506   0.080437
     3  C    0.060985   0.332064   5.395153   0.265199  -0.036750  -0.103600
     4  C   -0.127639   0.031082   0.265199   5.888609   0.151412   0.070804
     5  C    0.094041  -0.176506  -0.036750   0.151412   5.376987   0.329491
     6  C    0.367425   0.080437  -0.103600   0.070804   0.329491   5.013650
     7  H    0.451703  -0.057754   0.013418  -0.003216   0.012447  -0.057823
     8  H   -0.039217   0.451860  -0.068444   0.016388  -0.004420   0.009477
     9  H    0.013409  -0.006090   0.013398  -0.077371   0.464331  -0.055292
    10  H   -0.061674   0.013670  -0.003559   0.014707  -0.063473   0.460043
    11  C   -0.009191   0.029419  -0.024551   0.130614  -0.107283   0.018717
    12  C    0.022993  -0.193870   0.164043   0.020553   0.042418  -0.013637
    13  C    0.002819  -0.020376  -0.122682  -0.093977   0.067411  -0.004516
    14  C   -0.002889   0.038084   0.103584  -0.092221  -0.024845   0.002978
    15  H    0.000014  -0.000130   0.018218  -0.004015   0.000206  -0.000008
    16  O    0.000796  -0.000698   0.000546  -0.184736   0.051714   0.000270
    17  Cl  -0.001079   0.022711  -0.132032   0.013690  -0.000955   0.000608
    18  C    0.000000  -0.000001  -0.000075   0.000471  -0.000029   0.000000
    19  C    0.000004  -0.000080   0.001153  -0.003136   0.000257  -0.000011
    20  H    0.000000  -0.000007  -0.000101  -0.000032   0.000008   0.000000
    21  C    0.000000   0.000000  -0.000002   0.000002   0.000000   0.000000
    22  H    0.000000   0.000000   0.000000   0.000000   0.000000   0.000000
    23  H    0.000000   0.000000   0.000000   0.000000   0.000000   0.000000
    24  H    0.000000   0.000000   0.000000   0.000000   0.000000   0.000000
    25  C    0.000000  -0.000001  -0.000016  -0.000486   0.000031   0.000000
    26  H    0.000000   0.000001  -0.000003   0.000654  -0.000052   0.000000
    27  H    0.000000   0.000000   0.000000   0.000003   0.000000   0.000000
    28  H    0.000000   0.000000   0.000002   0.000003  -0.000001   0.000000
    29  C    0.000014   0.000401  -0.002271   0.000204   0.000259   0.000058
    30  H   -0.000016  -0.000052   0.001864   0.002706  -0.000476   0.000010
    31  H    0.000007  -0.000024  -0.000337   0.003085  -0.000223  -0.000004
    32  H   -0.000023   0.000262   0.004019   0.007350  -0.002064   0.000052
               7          8          9         10         11         12
     1  C    0.451703  -0.039217   0.013409  -0.061674  -0.009191   0.022993
     2  C   -0.057754   0.451860  -0.006090   0.013670   0.029419  -0.193870
     3  C    0.013418  -0.068444   0.013398  -0.003559  -0.024551   0.164043
     4  C   -0.003216   0.016388  -0.077371   0.014707   0.130614   0.020553
     5  C    0.012447  -0.004420   0.464331  -0.063473  -0.107283   0.042418
     6  C   -0.057823   0.009477  -0.055292   0.460043   0.018717  -0.013637
     7  H    0.508180  -0.006022  -0.000052  -0.007062   0.000059  -0.000114
     8  H   -0.006022   0.497126   0.000014  -0.000076   0.001005  -0.023250
     9  H   -0.000052   0.000014   0.489395  -0.006405  -0.016351   0.000870
    10  H   -0.007062  -0.000076  -0.006405   0.508629  -0.000365   0.000046
    11  C    0.000059   0.001005  -0.016351  -0.000365   4.857840  -0.098759
    12  C   -0.000114  -0.023250   0.000870   0.000046  -0.098759   5.318077
    13  C    0.000013  -0.000254   0.004255  -0.000041   0.264645   0.111118
    14  C   -0.000020   0.001017  -0.000852   0.000022   0.050575   0.330421
    15  H    0.000000   0.000007   0.000003   0.000000   0.006303  -0.066475
    16  O    0.000001   0.000006   0.023232  -0.000149   0.688738  -0.003116
    17  Cl  -0.000126   0.020379   0.000002   0.000001  -0.002058   0.335988
    18  C    0.000000   0.000000  -0.000002   0.000000   0.000345  -0.000322
    19  C    0.000000  -0.000001   0.000016   0.000000   0.007220  -0.006123
    20  H    0.000000   0.000000   0.000000   0.000000  -0.000381   0.000955
    21  C    0.000000   0.000000   0.000000   0.000000  -0.000059   0.000033
    22  H    0.000000   0.000000   0.000000   0.000000  -0.000001   0.000000
    23  H    0.000000   0.000000   0.000000   0.000000   0.000007  -0.000004
    24  H    0.000000   0.000000   0.000000   0.000000  -0.000001   0.000000
    25  C    0.000000   0.000000   0.000003   0.000000  -0.002125   0.000278
    26  H    0.000000   0.000000  -0.000007   0.000000   0.000580  -0.000043
    27  H    0.000000   0.000000   0.000000   0.000000   0.000093  -0.000006
    28  H    0.000000   0.000000   0.000000   0.000000  -0.000119   0.000006
    29  C    0.000000   0.000001  -0.000092  -0.000001  -0.000929  -0.002661
    30  H    0.000000  -0.000003  -0.000031   0.000000  -0.000294  -0.003008
    31  H    0.000000  -0.000001  -0.000015   0.000000  -0.003178   0.000762
    32  H    0.000000  -0.000002  -0.000105   0.000000  -0.021194  -0.004997
              13         14         15         16         17         18
     1  C    0.002819  -0.002889   0.000014   0.000796  -0.001079   0.000000
     2  C   -0.020376   0.038084  -0.000130  -0.000698   0.022711  -0.000001
     3  C   -0.122682   0.103584   0.018218   0.000546  -0.132032  -0.000075
     4  C   -0.093977  -0.092221  -0.004015  -0.184736   0.013690   0.000471
     5  C    0.067411  -0.024845   0.000206   0.051714  -0.000955  -0.000029
     6  C   -0.004516   0.002978  -0.000008   0.000270   0.000608   0.000000
     7  H    0.000013  -0.000020   0.000000   0.000001  -0.000126   0.000000
     8  H   -0.000254   0.001017   0.000007   0.000006   0.020379   0.000000
     9  H    0.004255  -0.000852   0.000003   0.023232   0.000002  -0.000002
    10  H   -0.000041   0.000022   0.000000  -0.000149   0.000001   0.000000
    11  C    0.264645   0.050575   0.006303   0.688738  -0.002058   0.000345
    12  C    0.111118   0.330421  -0.066475  -0.003116   0.335988  -0.000322
    13  C    5.232949   0.124342  -0.031490  -0.117556   0.012210   0.007710
    14  C    0.124342   5.402576   0.432004   0.010918  -0.051425  -0.003108
    15  H   -0.031490   0.432004   0.480485  -0.000101  -0.000086   0.000990
    16  O   -0.117556   0.010918  -0.000101   7.890639   0.000006   0.000832
    17  Cl   0.012210  -0.051425  -0.000086   0.000006  16.883382   0.000032
    18  C    0.007710  -0.003108   0.000990   0.000832   0.000032   5.099657
    19  C   -0.020443   0.010099   0.011293  -0.000569  -0.000097   0.649903
    20  H   -0.006526   0.001424  -0.003031  -0.000041   0.000180  -0.047955
    21  C   -0.000197   0.000252  -0.000295  -0.000004  -0.000003   0.296341
    22  H   -0.000046  -0.000017   0.000023   0.000000   0.000000  -0.037207
    23  H   -0.000036   0.000004  -0.000023   0.000000   0.000000  -0.057695
    24  H    0.000245   0.000087  -0.000082   0.000000   0.000000  -0.036632
    25  C   -0.005190   0.000308  -0.000062  -0.002485   0.000001   0.256486
    26  H   -0.007803   0.000597  -0.000045   0.004259   0.000000  -0.045678
    27  H    0.000281  -0.000064   0.000013   0.000028   0.000000  -0.040472
    28  H    0.001389   0.000185  -0.000063   0.000036   0.000000  -0.037374
    29  C    0.213595  -0.007131  -0.008422  -0.008076   0.000185  -0.049070
    30  H   -0.028036   0.000971   0.000996   0.000764  -0.000122   0.003542
    31  H   -0.064465   0.005478  -0.000148   0.006794   0.000006   0.003113
    32  H    0.403787  -0.024044  -0.003330   0.003650  -0.000158   0.002315
              19         20         21         22         23         24
     1  C    0.000004   0.000000   0.000000   0.000000   0.000000   0.000000
     2  C   -0.000080  -0.000007   0.000000   0.000000   0.000000   0.000000
     3  C    0.001153  -0.000101  -0.000002   0.000000   0.000000   0.000000
     4  C   -0.003136  -0.000032   0.000002   0.000000   0.000000   0.000000
     5  C    0.000257   0.000008   0.000000   0.000000   0.000000   0.000000
     6  C   -0.000011   0.000000   0.000000   0.000000   0.000000   0.000000
     7  H    0.000000   0.000000   0.000000   0.000000   0.000000   0.000000
     8  H   -0.000001   0.000000   0.000000   0.000000   0.000000   0.000000
     9  H    0.000016   0.000000   0.000000   0.000000   0.000000   0.000000
    10  H    0.000000   0.000000   0.000000   0.000000   0.000000   0.000000
    11  C    0.007220  -0.000381  -0.000059  -0.000001   0.000007  -0.000001
    12  C   -0.006123   0.000955   0.000033   0.000000  -0.000004   0.000000
    13  C   -0.020443  -0.006526  -0.000197  -0.000046  -0.000036   0.000245
    14  C    0.010099   0.001424   0.000252  -0.000017   0.000004   0.000087
    15  H    0.011293  -0.003031  -0.000295   0.000023  -0.000023  -0.000082
    16  O   -0.000569  -0.000041  -0.000004   0.000000   0.000000   0.000000
    17  Cl  -0.000097   0.000180  -0.000003   0.000000   0.000000   0.000000
    18  C    0.649903  -0.047955   0.296341  -0.037207  -0.057695  -0.036632
    19  C    5.219635   0.413269  -0.058388  -0.001646   0.004502  -0.005326
    20  H    0.413269   0.520641  -0.010932   0.000241   0.002286   0.000359
    21  C   -0.058388  -0.010932   4.916000   0.408478   0.423443   0.412274
    22  H   -0.001646   0.000241   0.408478   0.554463  -0.019653  -0.034445
    23  H    0.004502   0.002286   0.423443  -0.019653   0.536884  -0.021545
    24  H   -0.005326   0.000359   0.412274  -0.034445  -0.021545   0.558660
    25  C   -0.052762   0.005868  -0.041607  -0.002356   0.005864  -0.002343
    26  H   -0.012927  -0.000036   0.004681  -0.000045  -0.000194   0.000047
    27  H    0.005252  -0.000250  -0.003777   0.004139   0.000021  -0.001187
    28  H   -0.003413  -0.000157  -0.000520  -0.000802  -0.000082   0.003550
    29  C    0.201658  -0.015481   0.011555  -0.001216   0.002103  -0.000194
    30  H   -0.030209  -0.003825  -0.000365   0.000048  -0.000080  -0.000014
    31  H   -0.043240   0.002166  -0.000089   0.000091   0.000007  -0.000059
    32  H   -0.010988   0.000644  -0.000085   0.000011  -0.000022   0.000000
              25         26         27         28         29         30
     1  C    0.000000   0.000000   0.000000   0.000000   0.000014  -0.000016
     2  C   -0.000001   0.000001   0.000000   0.000000   0.000401  -0.000052
     3  C   -0.000016  -0.000003   0.000000   0.000002  -0.002271   0.001864
     4  C   -0.000486   0.000654   0.000003   0.000003   0.000204   0.002706
     5  C    0.000031  -0.000052   0.000000  -0.000001   0.000259  -0.000476
     6  C    0.000000   0.000000   0.000000   0.000000   0.000058   0.000010
     7  H    0.000000   0.000000   0.000000   0.000000   0.000000   0.000000
     8  H    0.000000   0.000000   0.000000   0.000000   0.000001  -0.000003
     9  H    0.000003  -0.000007   0.000000   0.000000  -0.000092  -0.000031
    10  H    0.000000   0.000000   0.000000   0.000000  -0.000001   0.000000
    11  C   -0.002125   0.000580   0.000093  -0.000119  -0.000929  -0.000294
    12  C    0.000278  -0.000043  -0.000006   0.000006  -0.002661  -0.003008
    13  C   -0.005190  -0.007803   0.000281   0.001389   0.213595  -0.028036
    14  C    0.000308   0.000597  -0.000064   0.000185  -0.007131   0.000971
    15  H   -0.000062  -0.000045   0.000013  -0.000063  -0.008422   0.000996
    16  O   -0.002485   0.004259   0.000028   0.000036  -0.008076   0.000764
    17  Cl   0.000001   0.000000   0.000000   0.000000   0.000185  -0.000122
    18  C    0.256486  -0.045678  -0.040472  -0.037374  -0.049070   0.003542
    19  C   -0.052762  -0.012927   0.005252  -0.003413   0.201658  -0.030209
    20  H    0.005868  -0.000036  -0.000250  -0.000157  -0.015481  -0.003825
    21  C   -0.041607   0.004681  -0.003777  -0.000520   0.011555  -0.000365
    22  H   -0.002356  -0.000045   0.004139  -0.000802  -0.001216   0.000048
    23  H    0.005864  -0.000194   0.000021  -0.000082   0.002103  -0.000080
    24  H   -0.002343   0.000047  -0.001187   0.003550  -0.000194  -0.000014
    25  C    4.959987   0.425264   0.405261   0.411292   0.012410   0.000808
    26  H    0.425264   0.524204  -0.018459  -0.021615   0.011795   0.000781
    27  H    0.405261  -0.018459   0.545548  -0.028768  -0.003261   0.000064
    28  H    0.411292  -0.021615  -0.028768   0.544472  -0.001880  -0.000083
    29  C    0.012410   0.011795  -0.003261  -0.001880   5.043796   0.395922
    30  H    0.000808   0.000781   0.000064  -0.000083   0.395922   0.531523
    31  H   -0.007099  -0.000713   0.000874  -0.000011   0.455998  -0.012467
    32  H   -0.000469   0.002009   0.000165  -0.000596  -0.032723   0.005004
              31         32
     1  C    0.000007  -0.000023
     2  C   -0.000024   0.000262
     3  C   -0.000337   0.004019
     4  C    0.003085   0.007350
     5  C   -0.000223  -0.002064
     6  C   -0.000004   0.000052
     7  H    0.000000   0.000000
     8  H   -0.000001  -0.000002
     9  H   -0.000015  -0.000105
    10  H    0.000000   0.000000
    11  C   -0.003178  -0.021194
    12  C    0.000762  -0.004997
    13  C   -0.064465   0.403787
    14  C    0.005478  -0.024044
    15  H   -0.000148  -0.003330
    16  O    0.006794   0.003650
    17  Cl   0.000006  -0.000158
    18  C    0.003113   0.002315
    19  C   -0.043240  -0.010988
    20  H    0.002166   0.000644
    21  C   -0.000089  -0.000085
    22  H    0.000091   0.000011
    23  H    0.000007  -0.000022
    24  H   -0.000059   0.000000
    25  C   -0.007099  -0.000469
    26  H   -0.000713   0.002009
    27  H    0.000874   0.000165
    28  H   -0.000011  -0.000596
    29  C    0.455998  -0.032723
    30  H   -0.012467   0.005004
    31  H    0.496035  -0.000512
    32  H   -0.000512   0.541839
 Mulliken charges:
               1
     1  C   -0.114113
     2  C   -0.204033
     3  C    0.120778
     4  C   -0.030706
     5  C   -0.173935
     6  C   -0.119127
     7  H    0.146367
     8  H    0.144412
     9  H    0.153739
    10  H    0.145685
    11  C    0.230678
    12  C    0.067823
    13  C    0.076864
    14  C   -0.309311
    15  H    0.167253
    16  O   -0.365699
    17  Cl  -0.101239
    18  C    0.033885
    19  C   -0.274904
    20  H    0.140715
    21  C   -0.356735
    22  H    0.129943
    23  H    0.124213
    24  H    0.126605
    25  C   -0.366859
    26  H    0.132748
    27  H    0.134501
    28  H    0.134549
    29  C   -0.216545
    30  H    0.134075
    31  H    0.158169
    32  H    0.130205
 Sum of Mulliken charges =   0.00000
 Mulliken charges with hydrogens summed into heavy atoms:
               1
     1  C    0.032254
     2  C   -0.059621
     3  C    0.120778
     4  C   -0.030706
     5  C   -0.020196
     6  C    0.026557
    11  C    0.230678
    12  C    0.067823
    13  C    0.207068
    14  C   -0.142058
    16  O   -0.365699
    17  Cl  -0.101239
    18  C    0.033885
    19  C   -0.134189
    21  C    0.024025
    25  C    0.034940
    29  C    0.075700
 Electronic spatial extent (au):  <R**2>=           5501.9402
 Charge=              0.0000 electrons
 Dipole moment (field-independent basis, Debye):
    X=             -0.0514    Y=              0.8953    Z=              0.4926  Tot=              1.0232
 Quadrupole moment (field-independent basis, Debye-Ang):
   XX=            -86.4734   YY=           -115.3952   ZZ=           -109.3383
   XY=             -4.3737   XZ=              4.0817   YZ=             -1.4522
 Traceless Quadrupole moment (field-independent basis, Debye-Ang):
   XX=             17.2622   YY=            -11.6596   ZZ=             -5.6026
   XY=             -4.3737   XZ=              4.0817   YZ=             -1.4522
 Octapole moment (field-independent basis, Debye-Ang**2):
  XXX=             31.0387  YYY=             17.3802  ZZZ=             -6.9420  XYY=              9.0310
  XXY=            -13.5821  XXZ=              2.7608  XZZ=             -8.7678  YZZ=              3.4308
  YYZ=              9.3904  XYZ=             -1.6956
 Hexadecapole moment (field-independent basis, Debye-Ang**3):
 XXXX=          -4925.1645 YYYY=          -1763.3413 ZZZZ=           -273.6264 XXXY=             -7.5567
 XXXZ=             90.1222 YYYX=            -29.8827 YYYZ=            -19.7363 ZZZX=              8.9934
 ZZZY=              6.0287 XXYY=          -1132.1621 XXZZ=          -1005.7785 YYZZ=           -342.5347
 XXYZ=             -2.8985 YYXZ=              2.6836 ZZXY=              6.2692
 N-N= 1.239292235669D+03 E-N=-5.097101698878D+03  KE= 1.112212635068D+03
 1\1\GINC-D10S8B2\FOpt\RwB97XD\def2TZVP\C15H15Cl1O1\PMMASS\02-Feb-2022\
 0\\#n wB97XD/Def2TZVP scrf(smd,solvent=toluene) opt\\clasisen product 
 in toluene - opt\\0,1\C,4.3142871857,-0.3011913654,0.3630132233\C,3.35
 23215356,0.676525973,0.1793904545\C,2.0269174739,0.3295785127,-0.06864
 25021\C,1.6878300868,-1.0322272958,-0.133593348\C,2.6659442548,-2.0038
 934486,0.0470380098\C,3.9762503706,-1.6458841043,0.2987385152\H,5.3389
 4693,-0.0091842242,0.5565813208\H,3.6342022901,1.7186518563,0.22847216
 36\H,2.3742744421,-3.0441985538,-0.0154354355\H,4.7322504152,-2.407093
 1263,0.441585862\C,0.2938409326,-1.4607818333,-0.4087044513\C,0.967801
 7143,1.3248927696,-0.2752342355\C,-0.7932827555,-0.4067123545,-0.43033
 08412\C,-0.3066521784,1.0025912613,-0.4553008589\H,-1.049156552,1.7769
 910635,-0.6002799094\O,0.0102851506,-2.6250757169,-0.5896740874\Cl,1.4
 236549613,3.0108745867,-0.2836519279\C,-4.1057465514,-0.0237455634,0.1
 265139016\C,-2.9581501724,0.2336002331,0.7528573609\H,-2.8708496046,1.
 1789679866,1.2808015581\C,-5.2484117073,0.9487556488,0.1636055508\H,-6
 .1338470041,0.4881609345,0.6119857848\H,-5.0045358554,1.8461223618,0.7
 331092912\H,-5.5321925301,1.2509595394,-0.8491396109\C,-4.3737025607,-
 1.2705908863,-0.6642126353\H,-3.5518362425,-1.9845455842,-0.6460443326
 \H,-5.2688761933,-1.7740133842,-0.2877103227\H,-4.5751510302,-1.019314
 6383,-1.7099751792\C,-1.743562296,-0.6476399618,0.7783515768\H,-1.1815
 418342,-0.4703164692,1.6986363222\H,-2.0149551874,-1.7031068961,0.7665
 393787\H,-1.3842474884,-0.5928873206,-1.3325605967\\Version=ES64L-G09R
 evD.01\State=1-A\HF=-1116.0874357\RMSD=7.859e-09\RMSF=1.075e-05\Dipole
 =-0.0228414,0.3513218,0.1951808\Quadrupole=12.7897844,-8.6730524,-4.11
 6732,-3.2076487,3.1823598,-1.1235967\PG=C01 [X(C15H15Cl1O1)]\\@


 MEN HAVE BECOME THE TOOLS OF THEIR TOOLS... THOREAU   
 Job cpu time:       0 days 17 hours 25 minutes 16.1 seconds.
 File lengths (MBytes):  RWF=    342 Int=      0 D2E=      0 Chk=     28 Scr=      1
 Normal termination of Gaussian 09 at Wed Feb  2 16:48:01 2022.
