 Entering Gaussian System, Link 0=g09
 Input=sm_claisen.com
 Output=sm_claisen.log
 Initial command:
 /apps/applications/gaussian/G09.D01/2/default/g09/l1.exe "/nobackup/pmmass/Temp/Gau-171741.inp" -scrdir="/nobackup/pmmass/Temp/"
 Entering Link 1 = /apps/applications/gaussian/G09.D01/2/default/g09/l1.exe PID=    171742.
  
 Copyright (c) 1988,1990,1992,1993,1995,1998,2003,2009,2013,
            Gaussian, Inc.  All Rights Reserved.
  
 This is part of the Gaussian(R) 09 program.  It is based on
 the Gaussian(R) 03 system (copyright 2003, Gaussian, Inc.),
 the Gaussian(R) 98 system (copyright 1998, Gaussian, Inc.),
 the Gaussian(R) 94 system (copyright 1995, Gaussian, Inc.),
 the Gaussian 92(TM) system (copyright 1992, Gaussian, Inc.),
 the Gaussian 90(TM) system (copyright 1990, Gaussian, Inc.),
 the Gaussian 88(TM) system (copyright 1988, Gaussian, Inc.),
 the Gaussian 86(TM) system (copyright 1986, Carnegie Mellon
 University), and the Gaussian 82(TM) system (copyright 1983,
 Carnegie Mellon University). Gaussian is a federally registered
 trademark of Gaussian, Inc.
  
 This software contains proprietary and confidential information,
 including trade secrets, belonging to Gaussian, Inc.
  
 This software is provided under written license and may be
 used, copied, transmitted, or stored only in accord with that
 written license.
  
 The following legend is applicable only to US Government
 contracts under FAR:
  
                    RESTRICTED RIGHTS LEGEND
  
 Use, reproduction and disclosure by the US Government is
 subject to restrictions as set forth in subparagraphs (a)
 and (c) of the Commercial Computer Software - Restricted
 Rights clause in FAR 52.227-19.
  
 Gaussian, Inc.
 340 Quinnipiac St., Bldg. 40, Wallingford CT 06492
  
  
 ---------------------------------------------------------------
 Warning -- This program may not be used in any manner that
 competes with the business of Gaussian, Inc. or will provide
 assistance to any competitor of Gaussian, Inc.  The licensee
 of this program is prohibited from giving any competitor of
 Gaussian, Inc. access to this program.  By using this program,
 the user acknowledges that Gaussian, Inc. is engaged in the
 business of creating and licensing software in the field of
 computational chemistry and represents and warrants to the
 licensee that it is not a competitor of Gaussian, Inc. and that
 it will not use this program in any manner prohibited above.
 ---------------------------------------------------------------
  

 Cite this work as:
 Gaussian 09, Revision D.01,
 M. J. Frisch, G. W. Trucks, H. B. Schlegel, G. E. Scuseria, 
 M. A. Robb, J. R. Cheeseman, G. Scalmani, V. Barone, B. Mennucci, 
 G. A. Petersson, H. Nakatsuji, M. Caricato, X. Li, H. P. Hratchian, 
 A. F. Izmaylov, J. Bloino, G. Zheng, J. L. Sonnenberg, M. Hada, 
 M. Ehara, K. Toyota, R. Fukuda, J. Hasegawa, M. Ishida, T. Nakajima, 
 Y. Honda, O. Kitao, H. Nakai, T. Vreven, J. A. Montgomery, Jr., 
 J. E. Peralta, F. Ogliaro, M. Bearpark, J. J. Heyd, E. Brothers, 
 K. N. Kudin, V. N. Staroverov, T. Keith, R. Kobayashi, J. Normand, 
 K. Raghavachari, A. Rendell, J. C. Burant, S. S. Iyengar, J. Tomasi, 
 M. Cossi, N. Rega, J. M. Millam, M. Klene, J. E. Knox, J. B. Cross, 
 V. Bakken, C. Adamo, J. Jaramillo, R. Gomperts, R. E. Stratmann, 
 O. Yazyev, A. J. Austin, R. Cammi, C. Pomelli, J. W. Ochterski, 
 R. L. Martin, K. Morokuma, V. G. Zakrzewski, G. A. Voth, 
 P. Salvador, J. J. Dannenberg, S. Dapprich, A. D. Daniels, 
 O. Farkas, J. B. Foresman, J. V. Ortiz, J. Cioslowski, 
 and D. J. Fox, Gaussian, Inc., Wallingford CT, 2013.
 
 ******************************************
 Gaussian 09:  ES64L-G09RevD.01 24-Apr-2013
                 2-Feb-2022 
 ******************************************
 %nprocshared=8
 Will use up to    8 processors via shared memory.
 %mem=4GB
 %NoSave
 %chk="sm_claisen.chk"
 ------------------------------------------------
 #n wB97XD/Def2TZVP scrf(smd,solvent=toluene) opt
 ------------------------------------------------
 1/14=-1,18=20,19=15,26=3,38=1/1,3;
 2/9=110,12=2,17=6,18=5,40=1/2;
 3/5=44,7=101,11=2,16=1,25=1,30=1,70=32201,71=1,72=13,74=-58/1,2,3;
 4//1;
 5/5=2,38=5,53=13/2;
 6/7=2,8=2,9=2,10=2,28=1/1;
 7//1,2,3,16;
 1/14=-1,18=20,19=15,26=3/3(2);
 2/9=110/2;
 99//99;
 2/9=110/2;
 3/5=44,7=101,11=2,16=1,25=1,30=1,70=32205,71=1,72=13,74=-58/1,2,3;
 4/5=5,16=3,69=1/1;
 5/5=2,38=5,53=13/2;
 7//1,2,3,16;
 1/14=-1,18=20,19=15,26=3/3(-5);
 2/9=110/2;
 6/7=2,8=2,9=2,10=2,19=2,28=1/1;
 99/9=1/99;
 ---------------------------------------
 starting material claisen toluene - opt
 ---------------------------------------
 Symbolic Z-matrix:
 Charge =  0 Multiplicity = 1
 C                    -2.83435   2.49668   0.15394 
 C                    -3.01462   1.13664   0.06932 
 C                    -1.89961   0.2586    0.01402 
 C                    -0.5866    0.81314   0.0467 
 C                    -0.4325    2.22192   0.13131 
 C                    -1.53136   3.04642   0.18484 
 H                    -3.70231   3.15631   0.19558 
 H                    -4.01745   0.71124   0.04404 
 H                     0.57711   2.62974   0.15372 
 H                    -1.39979   4.12737   0.24997 
 C                     0.55941  -0.05279  -0.00362 
 C                    -2.02733  -1.15987  -0.07494 
 C                     0.38098  -1.41784  -0.07604 
 H                     1.23285  -2.09235  -0.07931 
 C                    -0.92238  -1.96748  -0.11886 
 H                    -1.04824  -3.04859  -0.17887 
 O                     1.74621   0.59001   0.06119 
 Cl                   -3.61409  -1.88526  -0.12109 
 C                     3.00012   0.01584  -0.32964 
 C                     3.4894   -1.00038   0.68178 
 H                     4.33543  -1.61121   0.34826 
 C                     2.9378   -0.56205  -1.74574 
 H                     3.95595  -0.81311  -2.07367 
 H                     2.32502  -1.46772  -1.8183 
 H                     2.52906   0.1943   -2.43057 
 C                     3.95702   1.20976  -0.31385 
 H                     3.93285   1.68398   0.67608 
 H                     4.98322   0.88045  -0.52487 
 H                     3.65189   1.9431   -1.07389 
 C                     3.00938  -1.13492   1.91549 
 H                     3.43401  -1.85878   2.61313 
 H                     2.16811  -0.5274    2.25946 
 

 GradGradGradGradGradGradGradGradGradGradGradGradGradGradGradGradGradGrad
 Berny optimization.
 Initialization pass.
                           ----------------------------
                           !    Initial Parameters    !
                           ! (Angstroms and Degrees)  !
 --------------------------                            --------------------------
 ! Name  Definition              Value          Derivative Info.                !
 --------------------------------------------------------------------------------
 ! R1    R(1,2)                  1.3745         estimate D2E/DX2                !
 ! R2    R(1,6)                  1.4146         estimate D2E/DX2                !
 ! R3    R(1,7)                  1.091          estimate D2E/DX2                !
 ! R4    R(2,3)                  1.4203         estimate D2E/DX2                !
 ! R5    R(2,8)                  1.0896         estimate D2E/DX2                !
 ! R6    R(3,4)                  1.4257         estimate D2E/DX2                !
 ! R7    R(3,12)                 1.427          estimate D2E/DX2                !
 ! R8    R(4,5)                  1.4197         estimate D2E/DX2                !
 ! R9    R(4,11)                 1.4373         estimate D2E/DX2                !
 ! R10   R(5,6)                  1.3748         estimate D2E/DX2                !
 ! R11   R(5,9)                  1.0891         estimate D2E/DX2                !
 ! R12   R(6,10)                 1.0909         estimate D2E/DX2                !
 ! R13   R(11,13)                1.3786         estimate D2E/DX2                !
 ! R14   R(11,17)                1.3513         estimate D2E/DX2                !
 ! R15   R(12,15)                1.3693         estimate D2E/DX2                !
 ! R16   R(12,18)                1.7453         estimate D2E/DX2                !
 ! R17   R(13,14)                1.0866         estimate D2E/DX2                !
 ! R18   R(13,15)                1.4152         estimate D2E/DX2                !
 ! R19   R(15,16)                1.0901         estimate D2E/DX2                !
 ! R20   R(17,19)                1.4334         estimate D2E/DX2                !
 ! R21   R(19,20)                1.5149         estimate D2E/DX2                !
 ! R22   R(19,22)                1.5307         estimate D2E/DX2                !
 ! R23   R(19,26)                1.5301         estimate D2E/DX2                !
 ! R24   R(20,21)                1.0955         estimate D2E/DX2                !
 ! R25   R(20,30)                1.3306         estimate D2E/DX2                !
 ! R26   R(22,23)                1.0987         estimate D2E/DX2                !
 ! R27   R(22,24)                1.0959         estimate D2E/DX2                !
 ! R28   R(22,25)                1.0991         estimate D2E/DX2                !
 ! R29   R(26,27)                1.0979         estimate D2E/DX2                !
 ! R30   R(26,28)                1.0982         estimate D2E/DX2                !
 ! R31   R(26,29)                1.0993         estimate D2E/DX2                !
 ! R32   R(30,31)                1.0913         estimate D2E/DX2                !
 ! R33   R(30,32)                1.0932         estimate D2E/DX2                !
 ! A1    A(2,1,6)              120.4431         estimate D2E/DX2                !
 ! A2    A(2,1,7)              119.7529         estimate D2E/DX2                !
 ! A3    A(6,1,7)              119.8039         estimate D2E/DX2                !
 ! A4    A(1,2,3)              120.7386         estimate D2E/DX2                !
 ! A5    A(1,2,8)              120.5589         estimate D2E/DX2                !
 ! A6    A(3,2,8)              118.7025         estimate D2E/DX2                !
 ! A7    A(2,3,4)              118.7935         estimate D2E/DX2                !
 ! A8    A(2,3,12)             123.1396         estimate D2E/DX2                !
 ! A9    A(4,3,12)             118.0669         estimate D2E/DX2                !
 ! A10   A(3,4,5)              119.1634         estimate D2E/DX2                !
 ! A11   A(3,4,11)             119.9467         estimate D2E/DX2                !
 ! A12   A(5,4,11)             120.8899         estimate D2E/DX2                !
 ! A13   A(4,5,6)              120.7078         estimate D2E/DX2                !
 ! A14   A(4,5,9)              118.2567         estimate D2E/DX2                !
 ! A15   A(6,5,9)              121.0355         estimate D2E/DX2                !
 ! A16   A(1,6,5)              120.1534         estimate D2E/DX2                !
 ! A17   A(1,6,10)             119.8347         estimate D2E/DX2                !
 ! A18   A(5,6,10)             120.0119         estimate D2E/DX2                !
 ! A19   A(4,11,13)            119.6841         estimate D2E/DX2                !
 ! A20   A(4,11,17)            114.3325         estimate D2E/DX2                !
 ! A21   A(13,11,17)           125.9615         estimate D2E/DX2                !
 ! A22   A(3,12,15)            121.0671         estimate D2E/DX2                !
 ! A23   A(3,12,18)            119.7464         estimate D2E/DX2                !
 ! A24   A(15,12,18)           119.1859         estimate D2E/DX2                !
 ! A25   A(11,13,14)           120.8881         estimate D2E/DX2                !
 ! A26   A(11,13,15)           120.3567         estimate D2E/DX2                !
 ! A27   A(14,13,15)           118.7417         estimate D2E/DX2                !
 ! A28   A(12,15,13)           120.873          estimate D2E/DX2                !
 ! A29   A(12,15,16)           119.5732         estimate D2E/DX2                !
 ! A30   A(13,15,16)           119.5517         estimate D2E/DX2                !
 ! A31   A(11,17,19)           124.3798         estimate D2E/DX2                !
 ! A32   A(17,19,20)           111.6652         estimate D2E/DX2                !
 ! A33   A(17,19,22)           111.5825         estimate D2E/DX2                !
 ! A34   A(17,19,26)           103.3967         estimate D2E/DX2                !
 ! A35   A(20,19,22)           112.181          estimate D2E/DX2                !
 ! A36   A(20,19,26)           108.3328         estimate D2E/DX2                !
 ! A37   A(22,19,26)           109.2429         estimate D2E/DX2                !
 ! A38   A(19,20,21)           114.8465         estimate D2E/DX2                !
 ! A39   A(19,20,30)           124.7722         estimate D2E/DX2                !
 ! A40   A(21,20,30)           120.2977         estimate D2E/DX2                !
 ! A41   A(19,22,23)           108.9443         estimate D2E/DX2                !
 ! A42   A(19,22,24)           113.3287         estimate D2E/DX2                !
 ! A43   A(19,22,25)           109.375          estimate D2E/DX2                !
 ! A44   A(23,22,24)           108.0322         estimate D2E/DX2                !
 ! A45   A(23,22,25)           108.4137         estimate D2E/DX2                !
 ! A46   A(24,22,25)           108.6321         estimate D2E/DX2                !
 ! A47   A(19,26,27)           109.4238         estimate D2E/DX2                !
 ! A48   A(19,26,28)           110.3899         estimate D2E/DX2                !
 ! A49   A(19,26,29)           109.8637         estimate D2E/DX2                !
 ! A50   A(27,26,28)           108.8649         estimate D2E/DX2                !
 ! A51   A(27,26,29)           109.2155         estimate D2E/DX2                !
 ! A52   A(28,26,29)           109.0591         estimate D2E/DX2                !
 ! A53   A(20,30,31)           121.2921         estimate D2E/DX2                !
 ! A54   A(20,30,32)           120.8733         estimate D2E/DX2                !
 ! A55   A(31,30,32)           117.8323         estimate D2E/DX2                !
 ! D1    D(6,1,2,3)              0.1236         estimate D2E/DX2                !
 ! D2    D(6,1,2,8)           -179.9175         estimate D2E/DX2                !
 ! D3    D(7,1,2,3)           -179.9952         estimate D2E/DX2                !
 ! D4    D(7,1,2,8)             -0.0363         estimate D2E/DX2                !
 ! D5    D(2,1,6,5)             -0.0488         estimate D2E/DX2                !
 ! D6    D(2,1,6,10)           179.8697         estimate D2E/DX2                !
 ! D7    D(7,1,6,5)           -179.9299         estimate D2E/DX2                !
 ! D8    D(7,1,6,10)            -0.0115         estimate D2E/DX2                !
 ! D9    D(1,2,3,4)             -0.0526         estimate D2E/DX2                !
 ! D10   D(1,2,3,12)          -179.9678         estimate D2E/DX2                !
 ! D11   D(8,2,3,4)            179.9877         estimate D2E/DX2                !
 ! D12   D(8,2,3,12)             0.0724         estimate D2E/DX2                !
 ! D13   D(2,3,4,5)             -0.0901         estimate D2E/DX2                !
 ! D14   D(2,3,4,11)           179.804          estimate D2E/DX2                !
 ! D15   D(12,3,4,5)           179.8295         estimate D2E/DX2                !
 ! D16   D(12,3,4,11)           -0.2764         estimate D2E/DX2                !
 ! D17   D(2,3,12,15)         -179.6607         estimate D2E/DX2                !
 ! D18   D(2,3,12,18)            0.036          estimate D2E/DX2                !
 ! D19   D(4,3,12,15)            0.4235         estimate D2E/DX2                !
 ! D20   D(4,3,12,18)         -179.8798         estimate D2E/DX2                !
 ! D21   D(3,4,5,6)              0.1654         estimate D2E/DX2                !
 ! D22   D(3,4,5,9)           -179.9045         estimate D2E/DX2                !
 ! D23   D(11,4,5,6)          -179.7277         estimate D2E/DX2                !
 ! D24   D(11,4,5,9)             0.2024         estimate D2E/DX2                !
 ! D25   D(3,4,11,13)           -0.3508         estimate D2E/DX2                !
 ! D26   D(3,4,11,17)         -178.7454         estimate D2E/DX2                !
 ! D27   D(5,4,11,13)          179.5414         estimate D2E/DX2                !
 ! D28   D(5,4,11,17)            1.1468         estimate D2E/DX2                !
 ! D29   D(4,5,6,1)             -0.0971         estimate D2E/DX2                !
 ! D30   D(4,5,6,10)           179.9846         estimate D2E/DX2                !
 ! D31   D(9,5,6,1)            179.9748         estimate D2E/DX2                !
 ! D32   D(9,5,6,10)             0.0565         estimate D2E/DX2                !
 ! D33   D(4,11,13,14)        -177.8038         estimate D2E/DX2                !
 ! D34   D(4,11,13,15)           0.8407         estimate D2E/DX2                !
 ! D35   D(17,11,13,14)          0.3889         estimate D2E/DX2                !
 ! D36   D(17,11,13,15)        179.0334         estimate D2E/DX2                !
 ! D37   D(4,11,17,19)        -162.1288         estimate D2E/DX2                !
 ! D38   D(13,11,17,19)         19.5943         estimate D2E/DX2                !
 ! D39   D(3,12,15,13)           0.0557         estimate D2E/DX2                !
 ! D40   D(3,12,15,16)         179.5202         estimate D2E/DX2                !
 ! D41   D(18,12,15,13)       -179.6426         estimate D2E/DX2                !
 ! D42   D(18,12,15,16)         -0.1782         estimate D2E/DX2                !
 ! D43   D(11,13,15,12)         -0.7059         estimate D2E/DX2                !
 ! D44   D(11,13,15,16)        179.8295         estimate D2E/DX2                !
 ! D45   D(14,13,15,12)        177.9674         estimate D2E/DX2                !
 ! D46   D(14,13,15,16)         -1.4971         estimate D2E/DX2                !
 ! D47   D(11,17,19,20)        -73.9634         estimate D2E/DX2                !
 ! D48   D(11,17,19,22)         52.4779         estimate D2E/DX2                !
 ! D49   D(11,17,19,26)        169.7715         estimate D2E/DX2                !
 ! D50   D(17,19,20,21)        168.6323         estimate D2E/DX2                !
 ! D51   D(17,19,20,30)        -14.6985         estimate D2E/DX2                !
 ! D52   D(22,19,20,21)         42.5185         estimate D2E/DX2                !
 ! D53   D(22,19,20,30)       -140.8123         estimate D2E/DX2                !
 ! D54   D(26,19,20,21)        -78.1478         estimate D2E/DX2                !
 ! D55   D(26,19,20,30)         98.5214         estimate D2E/DX2                !
 ! D56   D(17,19,22,23)        169.2547         estimate D2E/DX2                !
 ! D57   D(17,19,22,24)        -70.4509         estimate D2E/DX2                !
 ! D58   D(17,19,22,25)         50.9136         estimate D2E/DX2                !
 ! D59   D(20,19,22,23)        -64.5866         estimate D2E/DX2                !
 ! D60   D(20,19,22,24)         55.7078         estimate D2E/DX2                !
 ! D61   D(20,19,22,25)        177.0723         estimate D2E/DX2                !
 ! D62   D(26,19,22,23)         55.552          estimate D2E/DX2                !
 ! D63   D(26,19,22,24)        175.8464         estimate D2E/DX2                !
 ! D64   D(26,19,22,25)        -62.7891         estimate D2E/DX2                !
 ! D65   D(17,19,26,27)         55.8387         estimate D2E/DX2                !
 ! D66   D(17,19,26,28)        175.6298         estimate D2E/DX2                !
 ! D67   D(17,19,26,29)        -64.0592         estimate D2E/DX2                !
 ! D68   D(20,19,26,27)        -62.7631         estimate D2E/DX2                !
 ! D69   D(20,19,26,28)         57.028          estimate D2E/DX2                !
 ! D70   D(20,19,26,29)        177.339          estimate D2E/DX2                !
 ! D71   D(22,19,26,27)        174.7625         estimate D2E/DX2                !
 ! D72   D(22,19,26,28)        -65.4464         estimate D2E/DX2                !
 ! D73   D(22,19,26,29)         54.8646         estimate D2E/DX2                !
 ! D74   D(19,20,30,31)       -177.3111         estimate D2E/DX2                !
 ! D75   D(19,20,30,32)          3.252          estimate D2E/DX2                !
 ! D76   D(21,20,30,31)         -0.8119         estimate D2E/DX2                !
 ! D77   D(21,20,30,32)        179.7511         estimate D2E/DX2                !
 --------------------------------------------------------------------------------
 Trust Radius=3.00D-01 FncErr=1.00D-07 GrdErr=1.00D-06
 Number of steps in this run=    175 maximum allowed number of steps=    192.
 GradGradGradGradGradGradGradGradGradGradGradGradGradGradGradGradGradGrad

                          Input orientation:                          
 ---------------------------------------------------------------------
 Center     Atomic      Atomic             Coordinates (Angstroms)
 Number     Number       Type             X           Y           Z
 ---------------------------------------------------------------------
      1          6           0       -2.834350    2.496680    0.153940
      2          6           0       -3.014620    1.136640    0.069320
      3          6           0       -1.899610    0.258600    0.014020
      4          6           0       -0.586600    0.813140    0.046700
      5          6           0       -0.432500    2.221920    0.131310
      6          6           0       -1.531360    3.046420    0.184840
      7          1           0       -3.702310    3.156310    0.195580
      8          1           0       -4.017450    0.711240    0.044040
      9          1           0        0.577110    2.629740    0.153720
     10          1           0       -1.399790    4.127370    0.249970
     11          6           0        0.559410   -0.052790   -0.003620
     12          6           0       -2.027330   -1.159870   -0.074940
     13          6           0        0.380980   -1.417840   -0.076040
     14          1           0        1.232850   -2.092350   -0.079310
     15          6           0       -0.922380   -1.967480   -0.118860
     16          1           0       -1.048240   -3.048590   -0.178870
     17          8           0        1.746210    0.590010    0.061190
     18         17           0       -3.614090   -1.885260   -0.121090
     19          6           0        3.000120    0.015840   -0.329640
     20          6           0        3.489400   -1.000380    0.681780
     21          1           0        4.335430   -1.611210    0.348260
     22          6           0        2.937800   -0.562050   -1.745740
     23          1           0        3.955950   -0.813110   -2.073670
     24          1           0        2.325020   -1.467720   -1.818300
     25          1           0        2.529060    0.194300   -2.430570
     26          6           0        3.957020    1.209760   -0.313850
     27          1           0        3.932850    1.683980    0.676080
     28          1           0        4.983220    0.880450   -0.524870
     29          1           0        3.651890    1.943100   -1.073890
     30          6           0        3.009380   -1.134920    1.915490
     31          1           0        3.434010   -1.858780    2.613130
     32          1           0        2.168110   -0.527400    2.259460
 ---------------------------------------------------------------------
                    Distance matrix (angstroms):
                    1          2          3          4          5
     1  C    0.000000
     2  C    1.374542   0.000000
     3  C    2.429469   1.420303   0.000000
     4  C    2.810371   2.449581   1.425685   0.000000
     5  C    2.417620   2.801610   2.453731   1.419707   0.000000
     6  C    1.414550   2.420881   2.817220   2.428826   1.374831
     7  H    1.090963   2.137271   3.417516   3.901315   3.401305
     8  H    2.144668   1.089620   2.165879   3.432364   3.891226
     9  H    3.414054   3.890629   3.431612   2.160025   1.089097
    10  H    2.174013   3.403642   3.908052   3.418584   2.140203
    11  C    4.247615   3.767460   2.478720   1.437256   2.485236
    12  C    3.751536   2.503899   1.426984   2.446072   3.744666
    13  C    5.070967   4.251658   2.831899   2.434861   3.735317
    14  H    6.136425   5.337553   3.917650   3.430474   4.629328
    15  C    4.864029   3.748125   2.434762   2.805710   4.225357
    16  H    5.835321   4.630810   3.420459   3.895761   5.315414
    17  O    4.962411   4.792116   3.661156   2.343502   2.723018
    18  Cl   4.459264   3.086665   2.748424   4.058967   5.201456
    19  C    6.358416   6.131269   4.917763   3.693491   4.106354
    20  C    7.245541   6.873444   5.574259   4.506213   5.105637
    21  H    8.265486   7.851861   6.517947   5.494979   6.121528
    22  C    6.803112   6.450682   5.212558   4.186333   4.757387
    23  H    7.875603   7.548694   6.308296   5.270239   5.773373
    24  H    6.798919   6.233583   4.917832   4.142231   5.001834
    25  H    6.383323   6.153848   5.058979   4.028296   4.409684
    26  C    6.928037   6.982545   5.942417   4.575127   4.526646
    27  H    6.835796   6.995361   6.040498   4.645418   4.431979
    28  H    8.011703   8.023973   6.931843   5.599475   5.617841
    29  H    6.624600   6.811730   5.902562   4.527398   4.267609
    30  C    7.102166   6.697530   5.445702   4.496486   5.128178
    31  H    8.019351   7.551711   6.299696   5.467268   6.145034
    32  H    6.213122   5.867404   4.712339   3.779124   4.341769
                    6          7          8          9         10
     6  C    0.000000
     7  H    2.173756   0.000000
     8  H    3.413727   2.469948   0.000000
     9  H    2.149474   4.311898   4.980226   0.000000
    10  H    1.090874   2.499503   4.308654   2.481994   0.000000
    11  C    3.743252   5.338564   4.640438   2.687199   4.623474
    12  C    4.243389   4.637688   2.734188   4.603970   5.334255
    13  C    4.863612   6.137580   4.888107   4.058837   5.833248
    14  H    5.841026   7.209702   5.953233   4.773095   6.761962
    15  C    5.059870   5.837817   4.096527   4.843264   6.124635
    16  H    6.124936   6.759074   4.796063   5.915726   7.197353
    17  O    4.097768   6.024145   5.764960   2.352840   4.737707
    18  Cl   5.362166   5.052276   2.632827   6.166596   6.418141
    19  C    5.475711   7.420308   7.061835   3.596816   6.049780
    20  C    6.467733   8.320766   7.725876   4.683807   7.098201
    21  H    7.492626   9.346541   8.675075   5.669962   8.113797
    22  C    6.059834   7.854043   7.293839   4.400946   6.692399
    23  H    7.078659   8.919346   8.389484   5.313289   7.647980
    24  H    6.265915   7.859139   6.960108   4.871676   7.032566
    25  H    5.609097   7.382421   7.017672   4.052164   6.171726
    26  C    5.808987   7.919212   7.998048   3.695775   6.125827
    27  H    5.652889   7.790655   8.034486   3.525381   5.881222
    28  H    6.901802   9.007609   9.020219   4.788977   7.203172
    29  H    5.446815   7.560932   7.847676   3.381238   5.660664
    30  C    6.410700   8.149818   7.502464   4.815853   7.064449
    31  H    7.390026   9.051118   8.290325   5.861517   8.048860
    32  H    5.546379   7.231262   6.686065   4.114967   6.199584
                   11         12         13         14         15
    11  C    0.000000
    12  C    2.814593   0.000000
    13  C    1.378566   2.422087   0.000000
    14  H    2.149199   3.390916   1.086580   0.000000
    15  C    2.423844   1.369335   1.415163   2.159207   0.000000
    16  H    3.404419   2.129949   2.170850   2.475415   1.090065
    17  O    1.351254   4.161756   2.431902   2.734654   3.700614
    18  Cl   4.559589   1.745316   4.022573   4.851542   2.692966
    19  C    2.463344   5.169373   2.996606   2.762313   4.400454
    20  C    3.154765   5.570671   3.226583   2.619862   4.586950
    21  H    4.100100   6.392771   3.981846   3.168646   5.290529
    22  C    2.991833   5.272711   3.171372   2.832960   4.418480
    23  H    4.049652   6.317816   4.139642   3.609598   5.380702
    24  H    2.900426   4.698620   2.610986   2.146412   3.699117
    25  H    3.135388   5.305041   3.571702   3.526663   4.682919
    26  C    3.637860   6.440859   4.443973   4.287195   5.825926
    27  H    3.854667   6.646447   4.775223   4.703327   6.126855
    28  H    4.551124   7.315269   5.163739   4.806385   6.568992
    29  H    3.833078   6.548272   4.794838   4.808929   6.093329
    30  C    3.294896   5.415799   3.309792   2.837597   4.504495
    31  H    4.286293   6.127025   4.092317   3.485526   5.143318
    32  H    2.816860   4.842640   3.072666   2.965405   4.157086
                   16         17         18         19         20
    16  H    0.000000
    17  O    4.594126   0.000000
    18  Cl   2.817847   5.907030   0.000000
    19  C    5.079634   1.433426   6.885161   0.000000
    20  C    5.052332   2.439915   7.203276   1.514948   0.000000
    21  H    5.597127   3.410548   7.968078   2.211310   1.095498
    22  C    4.952421   2.451963   6.878781   1.530745   2.527696
    23  H    5.799100   3.377769   7.890981   2.154625   2.800936
    24  H    4.070106   2.846358   6.190952   2.207446   2.797246
    25  H    5.327623   2.641649   6.884516   2.160475   3.469328
    26  C    6.573005   2.326462   8.181565   1.530148   2.468738
    27  H    6.923830   2.521161   8.386373   2.159664   2.720748
    28  H    7.206635   3.302432   9.040239   2.172177   2.687940
    29  H    6.914423   2.598245   8.267928   2.166343   3.431159
    30  C    4.951036   2.830090   6.970009   2.522884   1.330624
    31  H    5.413084   3.918882   7.559919   3.516014   2.114245
    32  H    4.758861   2.501798   6.398800   2.773227   2.111538
                   21         22         23         24         25
    21  H    0.000000
    22  C    2.727442   0.000000
    23  H    2.578122   1.098726   0.000000
    24  H    2.959108   1.095903   1.775855   0.000000
    25  H    3.774220   1.099148   1.782770   1.782924   0.000000
    26  C    2.922235   2.495682   2.681226   3.477886   2.747860
    27  H    3.335838   3.449636   3.714447   4.329002   3.720356
    28  H    2.718521   2.784793   2.514401   3.775300   3.182043
    29  H    3.888812   2.690183   2.947661   3.734759   2.481860
    30  C    2.107480   3.706469   4.112536   3.810550   4.570095
    31  H    2.450201   4.574656   4.830315   4.584796   5.520234
    32  H    3.086196   4.078633   4.696171   4.187714   4.758941
                   26         27         28         29         30
    26  C    0.000000
    27  H    1.097921   0.000000
    28  H    1.098208   1.786398   0.000000
    29  H    1.099342   1.791222   1.789717   0.000000
    30  C    3.371276   3.214830   3.730029   4.338596   0.000000
    31  H    4.272785   4.068434   4.444151   5.300555   1.091323
    32  H    3.583273   3.242160   4.202306   4.406381   1.093221
                   31         32
    31  H    0.000000
    32  H    1.870871   0.000000
 Stoichiometry    C15H15ClO
 Framework group  C1[X(C15H15ClO)]
 Deg. of freedom    90
 Full point group                 C1      NOp   1
 Largest Abelian subgroup         C1      NOp   1
 Largest concise Abelian subgroup C1      NOp   1
                         Standard orientation:                         
 ---------------------------------------------------------------------
 Center     Atomic      Atomic             Coordinates (Angstroms)
 Number     Number       Type             X           Y           Z
 ---------------------------------------------------------------------
      1          6           0       -2.834350    2.496680    0.153940
      2          6           0       -3.014620    1.136640    0.069320
      3          6           0       -1.899610    0.258600    0.014020
      4          6           0       -0.586600    0.813140    0.046700
      5          6           0       -0.432500    2.221920    0.131310
      6          6           0       -1.531360    3.046420    0.184840
      7          1           0       -3.702310    3.156310    0.195580
      8          1           0       -4.017450    0.711240    0.044040
      9          1           0        0.577110    2.629740    0.153720
     10          1           0       -1.399790    4.127370    0.249970
     11          6           0        0.559410   -0.052790   -0.003620
     12          6           0       -2.027330   -1.159870   -0.074940
     13          6           0        0.380980   -1.417840   -0.076040
     14          1           0        1.232850   -2.092350   -0.079310
     15          6           0       -0.922380   -1.967480   -0.118860
     16          1           0       -1.048240   -3.048590   -0.178870
     17          8           0        1.746210    0.590010    0.061190
     18         17           0       -3.614090   -1.885260   -0.121090
     19          6           0        3.000120    0.015840   -0.329640
     20          6           0        3.489400   -1.000380    0.681780
     21          1           0        4.335430   -1.611210    0.348260
     22          6           0        2.937800   -0.562050   -1.745740
     23          1           0        3.955950   -0.813110   -2.073670
     24          1           0        2.325020   -1.467720   -1.818300
     25          1           0        2.529060    0.194300   -2.430570
     26          6           0        3.957020    1.209760   -0.313850
     27          1           0        3.932850    1.683980    0.676080
     28          1           0        4.983220    0.880450   -0.524870
     29          1           0        3.651890    1.943100   -1.073890
     30          6           0        3.009380   -1.134920    1.915490
     31          1           0        3.434010   -1.858780    2.613130
     32          1           0        2.168110   -0.527400    2.259460
 ---------------------------------------------------------------------
 Rotational constants (GHZ):      0.7041103      0.2844619      0.2238408
 Standard basis: def2TZVP (5D, 7F)
 There are   708 symmetry adapted cartesian basis functions of A   symmetry.
 There are   623 symmetry adapted basis functions of A   symmetry.
   623 basis functions,  1005 primitive gaussians,   708 cartesian basis functions
    65 alpha electrons       65 beta electrons
       nuclear repulsion energy      1274.2302832284 Hartrees.
 NAtoms=   32 NActive=   32 NUniq=   32 SFac= 1.00D+00 NAtFMM=   60 NAOKFM=F Big=F
 Integral buffers will be    131072 words long.
 Raffenetti 2 integral format.
 Two-electron integral symmetry is turned on.
 Nuclear repulsion after empirical dispersion term =     1274.2062674673 Hartrees.
 ------------------------------------------------------------------------------
 Polarizable Continuum Model (PCM)
 =================================
 Model                : PCM (using non-symmetric T matrix).
 Atomic radii         : SMD-Coulomb.
 Polarization charges : Total charges.
 Charge compensation  : None.
 Solution method      : On-the-fly selection.
 Cavity type          : VdW (van der Waals Surface) (Alpha=1.000).
 Cavity algorithm     : GePol (No added spheres)
                        Default sphere list used, NSphG=   32.
                        Lebedev-Laikov grids with approx.  5.0 points / Ang**2.
                        Smoothing algorithm: Karplus/York (Gamma=1.0000).
                        Polarization charges: spherical gaussians, with
                                              point-specific exponents (IZeta= 3).
                        Self-potential: point-specific (ISelfS= 7).
                        Self-field    : sphere-specific E.n sum rule (ISelfD= 2).
 1st derivatives      : Analytical E(r).r(x)/FMM algorithm (CHGder, D1EAlg=3).
                        Cavity 1st derivative terms included.
 Solvent              : Toluene, Eps=   2.374100 Eps(inf)=   2.238315
 ------------------------------------------------------------------------------
 ------------------------------------------------------------------------------
 Atomic radii for non-electrostatic terms: SMD-CDS.
 ------------------------------------------------------------------------------
 Nuclear repulsion after PCM non-electrostatic terms =     1274.1958617786 Hartrees.
 One-electron integrals computed using PRISM.
   1 Symmetry operations used in ECPInt.
 ECPInt:  NShTT=   31125 NPrTT=   96136 LenC2=   28373 LenP2D=   63736.
 LDataN:  DoStor=T MaxTD1= 6 Len=  172
 NBasis=   623 RedAO= T EigKep=  5.06D-06  NBF=   623
 NBsUse=   623 1.00D-06 EigRej= -1.00D+00 NBFU=   623
 ExpMin= 9.52D-02 ExpMax= 6.95D+04 ExpMxC= 2.37D+03 IAcc=2 IRadAn=         4 AccDes= 0.00D+00
 Harris functional with IExCor= 4639 and IRadAn=       4 diagonalized for initial guess.
 HarFok:  IExCor= 4639 AccDes= 0.00D+00 IRadAn=         4 IDoV= 1 UseB2=F ITyADJ=14
 ICtDFT=  3500011 ScaDFX=  1.000000  1.000000  1.000000  1.000000
 FoFCou: FMM=F IPFlag=           0 FMFlag=      100000 FMFlg1=           0
         NFxFlg=           0 DoJE=T BraDBF=F KetDBF=T FulRan=T
         wScrn=  0.000000 ICntrl=     500 IOpCl=  0 I1Cent=   200000004 NGrid=           0
         NMat0=    1 NMatS0=      1 NMatT0=    0 NMatD0=    1 NMtDS0=    0 NMtDT0=    0
 Petite list used in FoFCou.
 Requested convergence on RMS density matrix=1.00D-08 within 128 cycles.
 Requested convergence on MAX density matrix=1.00D-06.
 Requested convergence on             energy=1.00D-06.
 No special actions if energy rises.
 Inv3:  Mode=1 IEnd=    17714700.
 Iteration    1 A*A^-1 deviation from unit magnitude is 3.77D-15 for   2405.
 Iteration    1 A*A^-1 deviation from orthogonality  is 2.30D-15 for   2122   1038.
 Iteration    1 A^-1*A deviation from unit magnitude is 3.66D-15 for   2405.
 Iteration    1 A^-1*A deviation from orthogonality  is 4.48D-15 for   2005   1584.
 Error on total polarization charges =  0.02912
 SCF Done:  E(RwB97XD) =  -1116.07738779     A.U. after   15 cycles
            NFock= 15  Conv=0.47D-08     -V/T= 2.0039
 SMD-CDS (non-electrostatic) energy       (kcal/mol) =      -6.53
 (included in total energy above)

 **********************************************************************

            Population analysis using the SCF density.

 **********************************************************************

 Orbital symmetries:
       Occupied  (A) (A) (A) (A) (A) (A) (A) (A) (A) (A) (A) (A)
                 (A) (A) (A) (A) (A) (A) (A) (A) (A) (A) (A) (A)
                 (A) (A) (A) (A) (A) (A) (A) (A) (A) (A) (A) (A)
                 (A) (A) (A) (A) (A) (A) (A) (A) (A) (A) (A) (A)
                 (A) (A) (A) (A) (A) (A) (A) (A) (A) (A) (A) (A)
                 (A) (A) (A) (A) (A)
       Virtual   (A) (A) (A) (A) (A) (A) (A) (A) (A) (A) (A) (A)
                 (A) (A) (A) (A) (A) (A) (A) (A) (A) (A) (A) (A)
                 (A) (A) (A) (A) (A) (A) (A) (A) (A) (A) (A) (A)
                 (A) (A) (A) (A) (A) (A) (A) (A) (A) (A) (A) (A)
                 (A) (A) (A) (A) (A) (A) (A) (A) (A) (A) (A) (A)
                 (A) (A) (A) (A) (A) (A) (A) (A) (A) (A) (A) (A)
                 (A) (A) (A) (A) (A) (A) (A) (A) (A) (A) (A) (A)
                 (A) (A) (A) (A) (A) (A) (A) (A) (A) (A) (A) (A)
                 (A) (A) (A) (A) (A) (A) (A) (A) (A) (A) (A) (A)
                 (A) (A) (A) (A) (A) (A) (A) (A) (A) (A) (A) (A)
                 (A) (A) (A) (A) (A) (A) (A) (A) (A) (A) (A) (A)
                 (A) (A) (A) (A) (A) (A) (A) (A) (A) (A) (A) (A)
                 (A) (A) (A) (A) (A) (A) (A) (A) (A) (A) (A) (A)
                 (A) (A) (A) (A) (A) (A) (A) (A) (A) (A) (A) (A)
                 (A) (A) (A) (A) (A) (A) (A) (A) (A) (A) (A) (A)
                 (A) (A) (A) (A) (A) (A) (A) (A) (A) (A) (A) (A)
                 (A) (A) (A) (A) (A) (A) (A) (A) (A) (A) (A) (A)
                 (A) (A) (A) (A) (A) (A) (A) (A) (A) (A) (A) (A)
                 (A) (A) (A) (A) (A) (A) (A) (A) (A) (A) (A) (A)
                 (A) (A) (A) (A) (A) (A) (A) (A) (A) (A) (A) (A)
                 (A) (A) (A) (A) (A) (A) (A) (A) (A) (A) (A) (A)
                 (A) (A) (A) (A) (A) (A) (A) (A) (A) (A) (A) (A)
                 (A) (A) (A) (A) (A) (A) (A) (A) (A) (A) (A) (A)
                 (A) (A) (A) (A) (A) (A) (A) (A) (A) (A) (A) (A)
                 (A) (A) (A) (A) (A) (A) (A) (A) (A) (A) (A) (A)
                 (A) (A) (A) (A) (A) (A) (A) (A) (A) (A) (A) (A)
                 (A) (A) (A) (A) (A) (A) (A) (A) (A) (A) (A) (A)
                 (A) (A) (A) (A) (A) (A) (A) (A) (A) (A) (A) (A)
                 (A) (A) (A) (A) (A) (A) (A) (A) (A) (A) (A) (A)
                 (A) (A) (A) (A) (A) (A) (A) (A) (A) (A) (A) (A)
                 (A) (A) (A) (A) (A) (A) (A) (A) (A) (A) (A) (A)
                 (A) (A) (A) (A) (A) (A) (A) (A) (A) (A) (A) (A)
                 (A) (A) (A) (A) (A) (A) (A) (A) (A) (A) (A) (A)
                 (A) (A) (A) (A) (A) (A) (A) (A) (A) (A) (A) (A)
                 (A) (A) (A) (A) (A) (A) (A) (A) (A) (A) (A) (A)
                 (A) (A) (A) (A) (A) (A) (A) (A) (A) (A) (A) (A)
                 (A) (A) (A) (A) (A) (A) (A) (A) (A) (A) (A) (A)
                 (A) (A) (A) (A) (A) (A) (A) (A) (A) (A) (A) (A)
                 (A) (A) (A) (A) (A) (A) (A) (A) (A) (A) (A) (A)
                 (A) (A) (A) (A) (A) (A) (A) (A) (A) (A) (A) (A)
                 (A) (A) (A) (A) (A) (A) (A) (A) (A) (A) (A) (A)
                 (A) (A) (A) (A) (A) (A) (A) (A) (A) (A) (A) (A)
                 (A) (A) (A) (A) (A) (A) (A) (A) (A) (A) (A) (A)
                 (A) (A) (A) (A) (A) (A) (A) (A) (A) (A) (A) (A)
                 (A) (A) (A) (A) (A) (A) (A) (A) (A) (A) (A) (A)
                 (A) (A) (A) (A) (A) (A) (A) (A) (A) (A) (A) (A)
                 (A) (A) (A) (A) (A) (A)
 The electronic state is 1-A.
 Alpha  occ. eigenvalues -- -101.69388 -19.28171 -10.36191 -10.35709 -10.34330
 Alpha  occ. eigenvalues --  -10.31043 -10.30462 -10.29925 -10.29223 -10.29202
 Alpha  occ. eigenvalues --  -10.29121 -10.29110 -10.29037 -10.28867 -10.28064
 Alpha  occ. eigenvalues --  -10.27918 -10.27775  -9.57940  -7.32575  -7.31723
 Alpha  occ. eigenvalues --   -7.31705  -1.17624  -0.99706  -0.95496  -0.93113
 Alpha  occ. eigenvalues --   -0.90965  -0.85917  -0.84805  -0.84724  -0.81176
 Alpha  occ. eigenvalues --   -0.78917  -0.73400  -0.72137  -0.70870  -0.68947
 Alpha  occ. eigenvalues --   -0.64682  -0.61295  -0.60299  -0.58892  -0.57632
 Alpha  occ. eigenvalues --   -0.56266  -0.55183  -0.52941  -0.52217  -0.51713
 Alpha  occ. eigenvalues --   -0.51418  -0.50243  -0.49948  -0.48689  -0.48013
 Alpha  occ. eigenvalues --   -0.47138  -0.46527  -0.46036  -0.45119  -0.44085
 Alpha  occ. eigenvalues --   -0.43281  -0.42557  -0.42272  -0.39953  -0.39289
 Alpha  occ. eigenvalues --   -0.38381  -0.34695  -0.34550  -0.32603  -0.27726
 Alpha virt. eigenvalues --    0.01660   0.04050   0.06966   0.09477   0.10980
 Alpha virt. eigenvalues --    0.11268   0.13785   0.14382   0.14762   0.15410
 Alpha virt. eigenvalues --    0.15982   0.16480   0.16906   0.17663   0.18003
 Alpha virt. eigenvalues --    0.19434   0.19869   0.20450   0.20698   0.20961
 Alpha virt. eigenvalues --    0.21680   0.22546   0.23018   0.23325   0.23571
 Alpha virt. eigenvalues --    0.24417   0.25472   0.25728   0.26625   0.27148
 Alpha virt. eigenvalues --    0.27682   0.28113   0.28948   0.29587   0.30301
 Alpha virt. eigenvalues --    0.30951   0.31674   0.32092   0.32445   0.32564
 Alpha virt. eigenvalues --    0.33032   0.34043   0.34206   0.35062   0.35766
 Alpha virt. eigenvalues --    0.36098   0.36451   0.37326   0.37761   0.39110
 Alpha virt. eigenvalues --    0.39319   0.40217   0.40858   0.41200   0.41527
 Alpha virt. eigenvalues --    0.42287   0.42932   0.43683   0.44173   0.44829
 Alpha virt. eigenvalues --    0.45038   0.45213   0.45400   0.46346   0.46509
 Alpha virt. eigenvalues --    0.46678   0.47088   0.47661   0.48434   0.48489
 Alpha virt. eigenvalues --    0.49448   0.49477   0.50589   0.51055   0.51255
 Alpha virt. eigenvalues --    0.51863   0.52705   0.52889   0.53239   0.53587
 Alpha virt. eigenvalues --    0.53913   0.54627   0.55135   0.55560   0.55953
 Alpha virt. eigenvalues --    0.56162   0.57015   0.57916   0.58510   0.59137
 Alpha virt. eigenvalues --    0.60306   0.60595   0.61348   0.62398   0.63630
 Alpha virt. eigenvalues --    0.64553   0.65366   0.65632   0.66530   0.66946
 Alpha virt. eigenvalues --    0.67135   0.67956   0.68527   0.69522   0.70589
 Alpha virt. eigenvalues --    0.71463   0.72166   0.73438   0.74147   0.75012
 Alpha virt. eigenvalues --    0.75818   0.77118   0.77639   0.78041   0.78792
 Alpha virt. eigenvalues --    0.79393   0.80056   0.81460   0.82042   0.82396
 Alpha virt. eigenvalues --    0.82944   0.83959   0.84311   0.85786   0.86893
 Alpha virt. eigenvalues --    0.87605   0.88571   0.89141   0.90052   0.90741
 Alpha virt. eigenvalues --    0.91518   0.92547   0.93119   0.94411   0.95006
 Alpha virt. eigenvalues --    0.95909   0.96264   0.97207   0.98166   0.99325
 Alpha virt. eigenvalues --    0.99638   1.00492   1.00851   1.02528   1.03136
 Alpha virt. eigenvalues --    1.04718   1.04816   1.05605   1.07758   1.08566
 Alpha virt. eigenvalues --    1.08915   1.09856   1.11491   1.11861   1.13168
 Alpha virt. eigenvalues --    1.13923   1.14780   1.17297   1.18345   1.19670
 Alpha virt. eigenvalues --    1.20544   1.21561   1.22096   1.23169   1.23839
 Alpha virt. eigenvalues --    1.24923   1.25531   1.27012   1.27876   1.28631
 Alpha virt. eigenvalues --    1.29349   1.29607   1.29979   1.32102   1.32791
 Alpha virt. eigenvalues --    1.34236   1.35039   1.36069   1.36542   1.36873
 Alpha virt. eigenvalues --    1.37684   1.39603   1.40838   1.41319   1.43762
 Alpha virt. eigenvalues --    1.44747   1.45048   1.45917   1.48618   1.49238
 Alpha virt. eigenvalues --    1.50498   1.50746   1.52149   1.53328   1.55960
 Alpha virt. eigenvalues --    1.56110   1.57448   1.58038   1.59295   1.59372
 Alpha virt. eigenvalues --    1.60442   1.61450   1.62051   1.62992   1.63788
 Alpha virt. eigenvalues --    1.63934   1.65921   1.66429   1.67467   1.68272
 Alpha virt. eigenvalues --    1.69199   1.70353   1.70718   1.71039   1.71687
 Alpha virt. eigenvalues --    1.72790   1.74269   1.74457   1.75205   1.76111
 Alpha virt. eigenvalues --    1.76797   1.77059   1.78469   1.78710   1.79308
 Alpha virt. eigenvalues --    1.80206   1.80382   1.80901   1.83103   1.83663
 Alpha virt. eigenvalues --    1.85920   1.86778   1.88041   1.88748   1.90508
 Alpha virt. eigenvalues --    1.91190   1.92242   1.92843   1.93878   1.94512
 Alpha virt. eigenvalues --    1.95345   1.96113   1.97100   1.99498   1.99717
 Alpha virt. eigenvalues --    2.01222   2.01740   2.03822   2.04325   2.04756
 Alpha virt. eigenvalues --    2.05322   2.07055   2.08510   2.09220   2.10006
 Alpha virt. eigenvalues --    2.11945   2.12787   2.15808   2.16135   2.17053
 Alpha virt. eigenvalues --    2.18056   2.18638   2.21193   2.21271   2.22725
 Alpha virt. eigenvalues --    2.23446   2.24165   2.25062   2.25360   2.26030
 Alpha virt. eigenvalues --    2.27086   2.27981   2.28944   2.29947   2.31069
 Alpha virt. eigenvalues --    2.31665   2.32523   2.33419   2.33780   2.34588
 Alpha virt. eigenvalues --    2.35481   2.36729   2.37806   2.38793   2.40054
 Alpha virt. eigenvalues --    2.40504   2.41079   2.42733   2.43597   2.45121
 Alpha virt. eigenvalues --    2.45951   2.46421   2.47183   2.47957   2.48358
 Alpha virt. eigenvalues --    2.50473   2.52754   2.53821   2.54614   2.55219
 Alpha virt. eigenvalues --    2.56642   2.59262   2.60353   2.61004   2.61202
 Alpha virt. eigenvalues --    2.61808   2.64517   2.65379   2.65726   2.66428
 Alpha virt. eigenvalues --    2.67292   2.67658   2.68422   2.69701   2.70132
 Alpha virt. eigenvalues --    2.70737   2.71403   2.71967   2.73465   2.74113
 Alpha virt. eigenvalues --    2.75815   2.76761   2.77098   2.78736   2.79478
 Alpha virt. eigenvalues --    2.80141   2.80739   2.81997   2.82826   2.83789
 Alpha virt. eigenvalues --    2.84941   2.86113   2.86879   2.87750   2.88018
 Alpha virt. eigenvalues --    2.89378   2.89859   2.90241   2.91194   2.91788
 Alpha virt. eigenvalues --    2.91880   2.94053   2.96138   2.96791   2.97390
 Alpha virt. eigenvalues --    2.98611   3.00058   3.00548   3.01032   3.01915
 Alpha virt. eigenvalues --    3.02357   3.02798   3.03456   3.04368   3.04637
 Alpha virt. eigenvalues --    3.06076   3.07105   3.08689   3.09904   3.10162
 Alpha virt. eigenvalues --    3.11070   3.11602   3.11887   3.12984   3.14413
 Alpha virt. eigenvalues --    3.15367   3.15820   3.18825   3.19169   3.20112
 Alpha virt. eigenvalues --    3.20656   3.22009   3.23117   3.23207   3.24416
 Alpha virt. eigenvalues --    3.24541   3.25542   3.26062   3.27030   3.28922
 Alpha virt. eigenvalues --    3.29917   3.30008   3.30886   3.31055   3.32584
 Alpha virt. eigenvalues --    3.33509   3.33527   3.34227   3.34498   3.35565
 Alpha virt. eigenvalues --    3.36715   3.37341   3.38549   3.38990   3.39610
 Alpha virt. eigenvalues --    3.40291   3.41019   3.41667   3.43452   3.43698
 Alpha virt. eigenvalues --    3.44887   3.45466   3.45881   3.46554   3.47154
 Alpha virt. eigenvalues --    3.48059   3.48519   3.48864   3.49931   3.51350
 Alpha virt. eigenvalues --    3.52746   3.54751   3.55174   3.55471   3.55907
 Alpha virt. eigenvalues --    3.57508   3.58065   3.58838   3.59163   3.59919
 Alpha virt. eigenvalues --    3.61413   3.62478   3.62958   3.63693   3.63744
 Alpha virt. eigenvalues --    3.65126   3.67443   3.68007   3.69193   3.71362
 Alpha virt. eigenvalues --    3.72096   3.72591   3.72788   3.73746   3.75792
 Alpha virt. eigenvalues --    3.76596   3.79345   3.80104   3.81764   3.82729
 Alpha virt. eigenvalues --    3.84419   3.87679   3.90693   3.93400   3.93984
 Alpha virt. eigenvalues --    3.96316   3.98544   3.99451   4.00907   4.01896
 Alpha virt. eigenvalues --    4.03349   4.04785   4.06281   4.08416   4.09576
 Alpha virt. eigenvalues --    4.10570   4.11406   4.13027   4.14323   4.15784
 Alpha virt. eigenvalues --    4.16845   4.17766   4.19935   4.20912   4.21826
 Alpha virt. eigenvalues --    4.24798   4.24817   4.25083   4.26159   4.26327
 Alpha virt. eigenvalues --    4.29584   4.30084   4.32676   4.33190   4.34634
 Alpha virt. eigenvalues --    4.35745   4.36509   4.39181   4.40503   4.41011
 Alpha virt. eigenvalues --    4.43497   4.43858   4.45160   4.48328   4.50535
 Alpha virt. eigenvalues --    4.52464   4.53927   4.54681   4.56233   4.57459
 Alpha virt. eigenvalues --    4.58566   4.61480   4.64359   4.66236   4.70217
 Alpha virt. eigenvalues --    4.73710   4.77195   4.78888   4.80251   4.82030
 Alpha virt. eigenvalues --    4.83985   4.84767   4.85613   4.87942   4.89052
 Alpha virt. eigenvalues --    4.91491   4.92077   5.01178   5.02408   5.04971
 Alpha virt. eigenvalues --    5.05223   5.10564   5.14258   5.18023   5.20533
 Alpha virt. eigenvalues --    5.22579   5.24786   5.31290   5.33512   5.36354
 Alpha virt. eigenvalues --    5.41766   5.45345   5.47784   5.55511   5.70350
 Alpha virt. eigenvalues --    5.72868   5.81317   5.87999   5.98228   6.15094
 Alpha virt. eigenvalues --    6.19518   6.52229   6.73856   6.80759   6.99528
 Alpha virt. eigenvalues --    7.13423   7.47585   7.65259  10.84428  10.95503
 Alpha virt. eigenvalues --   11.48881  22.11811  22.34813  22.49691  22.52753
 Alpha virt. eigenvalues --   22.66750  22.73368  22.77825  22.83231  22.85583
 Alpha virt. eigenvalues --   22.88821  22.94204  23.04469  23.07882  23.27368
 Alpha virt. eigenvalues --   23.77799  26.07710  44.75605
          Condensed to atoms (all electrons):
               1          2          3          4          5          6
     1  C    4.974450   0.423559   0.041176  -0.092290   0.061002   0.357321
     2  C    0.423559   5.289542   0.305999  -0.006416  -0.150051   0.052890
     3  C    0.041176   0.305999   5.397251   0.200631  -0.006283  -0.078774
     4  C   -0.092290  -0.006416   0.200631   5.329102   0.332424   0.011211
     5  C    0.061002  -0.150051  -0.006283   0.332424   5.324159   0.428801
     6  C    0.357321   0.052890  -0.078774   0.011211   0.428801   4.972700
     7  H    0.450271  -0.056408   0.012505  -0.002881   0.011939  -0.058927
     8  H   -0.038182   0.448649  -0.063931   0.014473  -0.004018   0.009180
     9  H    0.010040  -0.004216   0.012499  -0.045418   0.445261  -0.049950
    10  H   -0.060036   0.012692  -0.003066   0.013104  -0.062600   0.456937
    11  C   -0.014082   0.048057   0.042591   0.298430  -0.228976   0.017346
    12  C    0.017974  -0.199185   0.246857   0.059626   0.038479  -0.010212
    13  C    0.001815  -0.017719  -0.204417   0.119394   0.043176  -0.002283
    14  H   -0.000008   0.000125  -0.001904   0.000209  -0.000191   0.000008
    15  C   -0.001271   0.031369   0.149644  -0.170392  -0.014029   0.001581
    16  H    0.000018  -0.000065   0.020829  -0.005119   0.000122  -0.000001
    17  O    0.000513  -0.000621   0.000498  -0.122327   0.044260   0.000394
    18  Cl  -0.000809   0.019136  -0.131027   0.017747  -0.000951   0.000590
    19  C   -0.000011   0.000021  -0.000178  -0.013960  -0.002356  -0.000052
    20  C   -0.000009   0.000024   0.001115   0.006604  -0.000916   0.000042
    21  H    0.000000   0.000000   0.000008   0.000153  -0.000035   0.000000
    22  C    0.000020  -0.000026   0.000381  -0.000990  -0.000277  -0.000097
    23  H    0.000000   0.000000  -0.000016  -0.000010  -0.000004   0.000000
    24  H   -0.000002   0.000010   0.000585  -0.002218  -0.000249   0.000011
    25  H    0.000002  -0.000013   0.000213   0.001076   0.000438   0.000022
    26  C   -0.000011   0.000006   0.000313   0.003528  -0.001252  -0.000025
    27  H    0.000002  -0.000002  -0.000025  -0.000215   0.000145  -0.000016
    28  H    0.000000   0.000000  -0.000011  -0.000147   0.000076   0.000001
    29  H   -0.000002   0.000000   0.000029  -0.000089   0.000063   0.000039
    30  C    0.000003  -0.000011  -0.000431   0.001598   0.000566   0.000003
    31  H    0.000000   0.000000  -0.000005  -0.000048   0.000005   0.000000
    32  H    0.000001  -0.000017  -0.000010   0.001436   0.000189   0.000003
               7          8          9         10         11         12
     1  C    0.450271  -0.038182   0.010040  -0.060036  -0.014082   0.017974
     2  C   -0.056408   0.448649  -0.004216   0.012692   0.048057  -0.199185
     3  C    0.012505  -0.063931   0.012499  -0.003066   0.042591   0.246857
     4  C   -0.002881   0.014473  -0.045418   0.013104   0.298430   0.059626
     5  C    0.011939  -0.004018   0.445261  -0.062600  -0.228976   0.038479
     6  C   -0.058927   0.009180  -0.049950   0.456937   0.017346  -0.010212
     7  H    0.515002  -0.006235  -0.000068  -0.006569   0.000078  -0.000153
     8  H   -0.006235   0.502888   0.000015  -0.000090   0.001112  -0.024765
     9  H   -0.000068   0.000015   0.489179  -0.006355  -0.022398   0.000460
    10  H   -0.006569  -0.000090  -0.006355   0.517067  -0.000275   0.000092
    11  C    0.000078   0.001112  -0.022398  -0.000275   5.259715  -0.187140
    12  C   -0.000153  -0.024765   0.000460   0.000092  -0.187140   5.320884
    13  C    0.000019  -0.000560   0.000821  -0.000017   0.195690   0.130457
    14  H    0.000000   0.000003  -0.000020   0.000000  -0.079699   0.009523
    15  C   -0.000017   0.001294  -0.000363   0.000002   0.093874   0.298218
    16  H    0.000000   0.000011   0.000002   0.000000   0.015681  -0.082355
    17  O    0.000001   0.000005   0.016071  -0.000084   0.328883  -0.000204
    18  Cl  -0.000117   0.020142   0.000003   0.000001  -0.004249   0.313940
    19  C    0.000000   0.000001  -0.001412   0.000003  -0.096246   0.000004
    20  C    0.000000   0.000000  -0.000004   0.000001   0.070170  -0.000865
    21  H    0.000000   0.000000  -0.000009   0.000000   0.001692  -0.000002
    22  C    0.000000   0.000000  -0.000023  -0.000001  -0.019428  -0.000522
    23  H    0.000000   0.000000  -0.000005   0.000000   0.002357   0.000014
    24  H    0.000000   0.000000  -0.000025   0.000000  -0.005606  -0.000521
    25  H    0.000000   0.000000   0.000151   0.000000   0.001350   0.000005
    26  C    0.000000   0.000000  -0.000611   0.000006   0.000022  -0.000055
    27  H    0.000000   0.000000   0.000045  -0.000001  -0.000145   0.000007
    28  H    0.000000   0.000000   0.000097   0.000000   0.000558   0.000002
    29  H    0.000000   0.000000  -0.000028   0.000001  -0.002244  -0.000002
    30  C    0.000000   0.000000   0.000057   0.000000  -0.008050   0.000265
    31  H    0.000000   0.000000   0.000002   0.000000  -0.000689   0.000008
    32  H    0.000000   0.000000   0.000001   0.000000  -0.002302   0.000187
              13         14         15         16         17         18
     1  C    0.001815  -0.000008  -0.001271   0.000018   0.000513  -0.000809
     2  C   -0.017719   0.000125   0.031369  -0.000065  -0.000621   0.019136
     3  C   -0.204417  -0.001904   0.149644   0.020829   0.000498  -0.131027
     4  C    0.119394   0.000209  -0.170392  -0.005119  -0.122327   0.017747
     5  C    0.043176  -0.000191  -0.014029   0.000122   0.044260  -0.000951
     6  C   -0.002283   0.000008   0.001581  -0.000001   0.000394   0.000590
     7  H    0.000019   0.000000  -0.000017   0.000000   0.000001  -0.000117
     8  H   -0.000560   0.000003   0.001294   0.000011   0.000005   0.020142
     9  H    0.000821  -0.000020  -0.000363   0.000002   0.016071   0.000003
    10  H   -0.000017   0.000000   0.000002   0.000000  -0.000084   0.000001
    11  C    0.195690  -0.079699   0.093874   0.015681   0.328883  -0.004249
    12  C    0.130457   0.009523   0.298218  -0.082355  -0.000204   0.313940
    13  C    5.376985   0.452278   0.262976  -0.046520  -0.081193   0.017885
    14  H    0.452278   0.477742  -0.019386  -0.005898  -0.002127  -0.000268
    15  C    0.262976  -0.019386   5.203290   0.447010   0.004544  -0.037304
    16  H   -0.046520  -0.005898   0.447010   0.508496  -0.000134   0.002597
    17  O   -0.081193  -0.002127   0.004544  -0.000134   8.002914   0.000003
    18  Cl   0.017885  -0.000268  -0.037304   0.002597   0.000003  16.893225
    19  C    0.047248   0.016225  -0.001762   0.000092   0.279534  -0.000012
    20  C   -0.050178  -0.013528  -0.000257   0.000104  -0.093374   0.000003
    21  H   -0.001489   0.000207  -0.000093  -0.000002   0.003201   0.000000
    22  C    0.009624  -0.006333   0.005257  -0.000056  -0.056712   0.000005
    23  H   -0.000262   0.000377  -0.000149  -0.000001   0.004164   0.000000
    24  H   -0.005772  -0.002642   0.004132   0.000055   0.000919   0.000000
    25  H   -0.004771  -0.000182   0.000030   0.000006   0.002860   0.000000
    26  C   -0.002117   0.000227   0.000188   0.000001  -0.055493   0.000000
    27  H    0.000085   0.000018  -0.000025   0.000000   0.001317   0.000000
    28  H    0.000218   0.000070  -0.000011   0.000000   0.004889   0.000000
    29  H   -0.000089  -0.000049   0.000009   0.000000   0.000480   0.000000
    30  C   -0.013797   0.000208   0.000467   0.000053   0.022075   0.000000
    31  H    0.000384   0.000115  -0.000006  -0.000001   0.000465   0.000000
    32  H   -0.003594  -0.000215   0.000135  -0.000009   0.005265  -0.000001
              19         20         21         22         23         24
     1  C   -0.000011  -0.000009   0.000000   0.000020   0.000000  -0.000002
     2  C    0.000021   0.000024   0.000000  -0.000026   0.000000   0.000010
     3  C   -0.000178   0.001115   0.000008   0.000381  -0.000016   0.000585
     4  C   -0.013960   0.006604   0.000153  -0.000990  -0.000010  -0.002218
     5  C   -0.002356  -0.000916  -0.000035  -0.000277  -0.000004  -0.000249
     6  C   -0.000052   0.000042   0.000000  -0.000097   0.000000   0.000011
     7  H    0.000000   0.000000   0.000000   0.000000   0.000000   0.000000
     8  H    0.000001   0.000000   0.000000   0.000000   0.000000   0.000000
     9  H   -0.001412  -0.000004  -0.000009  -0.000023  -0.000005  -0.000025
    10  H    0.000003   0.000001   0.000000  -0.000001   0.000000   0.000000
    11  C   -0.096246   0.070170   0.001692  -0.019428   0.002357  -0.005606
    12  C    0.000004  -0.000865  -0.000002  -0.000522   0.000014  -0.000521
    13  C    0.047248  -0.050178  -0.001489   0.009624  -0.000262  -0.005772
    14  H    0.016225  -0.013528   0.000207  -0.006333   0.000377  -0.002642
    15  C   -0.001762  -0.000257  -0.000093   0.005257  -0.000149   0.004132
    16  H    0.000092   0.000104  -0.000002  -0.000056  -0.000001   0.000055
    17  O    0.279534  -0.093374   0.003201  -0.056712   0.004164   0.000919
    18  Cl  -0.000012   0.000003   0.000000   0.000005   0.000000   0.000000
    19  C    4.923741   0.185260  -0.036204   0.348312  -0.015891  -0.027944
    20  C    0.185260   5.497869   0.409374  -0.101461  -0.004591  -0.005633
    21  H   -0.036204   0.409374   0.502317  -0.002236   0.002429  -0.000267
    22  C    0.348312  -0.101461  -0.002236   5.066852   0.394430   0.411178
    23  H   -0.015891  -0.004591   0.002429   0.394430   0.523997  -0.020075
    24  H   -0.027944  -0.005633  -0.000267   0.411178  -0.020075   0.516306
    25  H   -0.045196   0.016205  -0.000098   0.411705  -0.016526  -0.017332
    26  C    0.303236  -0.070716  -0.001665  -0.054379  -0.011972   0.009607
    27  H   -0.038503  -0.010747   0.000532   0.011389   0.000020  -0.000335
    28  H   -0.019292  -0.011260  -0.000417  -0.010988   0.001925  -0.000081
    29  H   -0.039529   0.015427  -0.000228  -0.006823  -0.000005   0.000033
    30  C   -0.017443   0.502657  -0.023905   0.012608  -0.001255   0.000349
    31  H    0.006197  -0.048352  -0.006390  -0.000224  -0.000021  -0.000012
    32  H   -0.002978  -0.050760   0.003582   0.000740  -0.000035   0.000003
              25         26         27         28         29         30
     1  C    0.000002  -0.000011   0.000002   0.000000  -0.000002   0.000003
     2  C   -0.000013   0.000006  -0.000002   0.000000   0.000000  -0.000011
     3  C    0.000213   0.000313  -0.000025  -0.000011   0.000029  -0.000431
     4  C    0.001076   0.003528  -0.000215  -0.000147  -0.000089   0.001598
     5  C    0.000438  -0.001252   0.000145   0.000076   0.000063   0.000566
     6  C    0.000022  -0.000025  -0.000016   0.000001   0.000039   0.000003
     7  H    0.000000   0.000000   0.000000   0.000000   0.000000   0.000000
     8  H    0.000000   0.000000   0.000000   0.000000   0.000000   0.000000
     9  H    0.000151  -0.000611   0.000045   0.000097  -0.000028   0.000057
    10  H    0.000000   0.000006  -0.000001   0.000000   0.000001   0.000000
    11  C    0.001350   0.000022  -0.000145   0.000558  -0.002244  -0.008050
    12  C    0.000005  -0.000055   0.000007   0.000002  -0.000002   0.000265
    13  C   -0.004771  -0.002117   0.000085   0.000218  -0.000089  -0.013797
    14  H   -0.000182   0.000227   0.000018   0.000070  -0.000049   0.000208
    15  C    0.000030   0.000188  -0.000025  -0.000011   0.000009   0.000467
    16  H    0.000006   0.000001   0.000000   0.000000   0.000000   0.000053
    17  O    0.002860  -0.055493   0.001317   0.004889   0.000480   0.022075
    18  Cl   0.000000   0.000000   0.000000   0.000000   0.000000   0.000000
    19  C   -0.045196   0.303236  -0.038503  -0.019292  -0.039529  -0.017443
    20  C    0.016205  -0.070716  -0.010747  -0.011260   0.015427   0.502657
    21  H   -0.000098  -0.001665   0.000532  -0.000417  -0.000228  -0.023905
    22  C    0.411705  -0.054379   0.011389  -0.010988  -0.006823   0.012608
    23  H   -0.016526  -0.011972   0.000020   0.001925  -0.000005  -0.001255
    24  H   -0.017332   0.009607  -0.000335  -0.000081   0.000033   0.000349
    25  H    0.512401  -0.009587  -0.000221   0.000532   0.002407  -0.000534
    26  C   -0.009587   5.036640   0.413606   0.410724   0.406542  -0.008813
    27  H   -0.000221   0.413606   0.516191  -0.017902  -0.019734   0.003838
    28  H    0.000532   0.410724  -0.017902   0.526940  -0.021198   0.001272
    29  H    0.002407   0.406542  -0.019734  -0.021198   0.532252  -0.000177
    30  C   -0.000534  -0.008813   0.003838   0.001272  -0.000177   4.977040
    31  H    0.000005  -0.000220  -0.000037  -0.000004   0.000017   0.424419
    32  H    0.000004  -0.001155   0.000448  -0.000065  -0.000020   0.423660
              31         32
     1  C    0.000000   0.000001
     2  C    0.000000  -0.000017
     3  C   -0.000005  -0.000010
     4  C   -0.000048   0.001436
     5  C    0.000005   0.000189
     6  C    0.000000   0.000003
     7  H    0.000000   0.000000
     8  H    0.000000   0.000000
     9  H    0.000002   0.000001
    10  H    0.000000   0.000000
    11  C   -0.000689  -0.002302
    12  C    0.000008   0.000187
    13  C    0.000384  -0.003594
    14  H    0.000115  -0.000215
    15  C   -0.000006   0.000135
    16  H   -0.000001  -0.000009
    17  O    0.000465   0.005265
    18  Cl   0.000000  -0.000001
    19  C    0.006197  -0.002978
    20  C   -0.048352  -0.050760
    21  H   -0.006390   0.003582
    22  C   -0.000224   0.000740
    23  H   -0.000021  -0.000035
    24  H   -0.000012   0.000003
    25  H    0.000005   0.000004
    26  C   -0.000220  -0.001155
    27  H   -0.000037   0.000448
    28  H   -0.000004  -0.000065
    29  H    0.000017  -0.000020
    30  C    0.424419   0.423660
    31  H    0.494512  -0.020829
    32  H   -0.020829   0.484773
 Mulliken charges:
               1
     1  C   -0.131454
     2  C   -0.197331
     3  C    0.056954
     4  C    0.051773
     5  C   -0.258917
     6  C   -0.108745
     7  H    0.141561
     8  H    0.140011
     9  H    0.156201
    10  H    0.139189
    11  C    0.293923
    12  C    0.068980
    13  C   -0.224279
    14  H    0.175115
    15  C   -0.258955
    16  H    0.145083
    17  O   -0.310987
    18  Cl  -0.110540
    19  C    0.249095
    20  C   -0.242204
    21  H    0.149542
    22  C   -0.411925
    23  H    0.141105
    24  H    0.145525
    25  H    0.145046
    26  C   -0.366575
    27  H    0.140265
    28  H    0.134074
    29  H    0.132917
    30  C   -0.296720
    31  H    0.150707
    32  H    0.161564
 Sum of Mulliken charges =   0.00000
 Mulliken charges with hydrogens summed into heavy atoms:
               1
     1  C    0.010107
     2  C   -0.057320
     3  C    0.056954
     4  C    0.051773
     5  C   -0.102715
     6  C    0.030444
    11  C    0.293923
    12  C    0.068980
    13  C   -0.049164
    15  C   -0.113871
    17  O   -0.310987
    18  Cl  -0.110540
    19  C    0.249095
    20  C   -0.092662
    22  C    0.019752
    26  C    0.040682
    30  C    0.015551
 Electronic spatial extent (au):  <R**2>=           4880.4307
 Charge=              0.0000 electrons
 Dipole moment (field-independent basis, Debye):
    X=              3.6314    Y=              0.4418    Z=             -0.6371  Tot=              3.7133
 Quadrupole moment (field-independent basis, Debye-Ang):
   XX=            -99.7357   YY=            -99.9796   ZZ=           -109.8289
   XY=             -8.1768   XZ=             -3.3469   YZ=             -0.0675
 Traceless Quadrupole moment (field-independent basis, Debye-Ang):
   XX=              3.4457   YY=              3.2018   ZZ=             -6.6475
   XY=             -8.1768   XZ=             -3.3469   YZ=             -0.0675
 Octapole moment (field-independent basis, Debye-Ang**2):
  XXX=             34.1493  YYY=             10.7870  ZZZ=              0.7193  XYY=             -0.6716
  XXY=             10.6022  XXZ=            -11.2945  XZZ=             11.7185  YZZ=             -7.8113
  YYZ=              1.6327  XYZ=             -3.7722
 Hexadecapole moment (field-independent basis, Debye-Ang**3):
 XXXX=          -4230.4893 YYYY=          -1575.8449 ZZZZ=           -473.0534 XXXY=            -93.2203
 XXXZ=            -63.4345 YYYX=            -21.2322 YYYZ=             12.7168 ZZZX=              6.6494
 ZZZY=            -15.2223 XXYY=           -984.4036 XXZZ=           -838.9382 YYZZ=           -382.7627
 XXYZ=             -6.6968 YYXZ=              1.3793 ZZXY=             10.3049
 N-N= 1.274195861779D+03 E-N=-5.166851739274D+03  KE= 1.111779345020D+03
   1 Symmetry operations used in ECPInt.
 ECPInt:  NShTT=   31125 NPrTT=   96136 LenC2=   28373 LenP2D=   63736.
 LDataN:  DoStor=T MaxTD1= 7 Len=  274
 D1PCM: PCM CHGder 1st derivatives, ID1Alg=3 FixD1E=F DoIter=F DoCFld=F I1PDM=0.
 Calling FoFJK, ICntrl=      2127 FMM=F ISym2X=0 I1Cent= 0 IOpClX= 0 NMat=1 NMatS=1 NMatT=0.
 ***** Axes restored to original set *****
 -------------------------------------------------------------------
 Center     Atomic                   Forces (Hartrees/Bohr)
 Number     Number              X              Y              Z
 -------------------------------------------------------------------
      1        6           0.000822109   -0.002932454   -0.000187854
      2        6           0.001549141    0.003050460    0.000117906
      3        6           0.000441367   -0.000320319    0.000222670
      4        6           0.000246468    0.000401807   -0.000263857
      5        6          -0.003051090    0.000626686    0.000169324
      6        6           0.001317380   -0.002294667   -0.000362456
      7        1           0.004537505   -0.003254196   -0.000199384
      8        1           0.005254771    0.003191742    0.000237854
      9        1          -0.005880594   -0.001329456   -0.000053228
     10        1          -0.000702713   -0.005617531   -0.000234877
     11        6          -0.004335263   -0.005389540   -0.000392722
     12        6           0.007501199    0.000740756    0.000114485
     13        6          -0.001242651    0.002573941    0.000036861
     14        1          -0.005518362    0.003259269    0.000231890
     15        6          -0.002629638    0.002777729    0.000428429
     16        1           0.001407209    0.005619389    0.000232944
     17        8          -0.003474782    0.000320002   -0.000566049
     18       17           0.001580732   -0.000406419   -0.000225108
     19        6           0.002379404   -0.002975582   -0.000256270
     20        6           0.000712763   -0.002348501    0.007149689
     21        1          -0.004780165    0.003261438    0.001862108
     22        6           0.000032489   -0.000630814   -0.002813366
     23        1          -0.004864182    0.001096424    0.001095292
     24        1           0.003253668    0.004610506   -0.000027041
     25        1           0.002034102   -0.004172126    0.002620998
     26        6           0.000385213    0.002414673    0.000528034
     27        1           0.000934533   -0.001565185   -0.004861399
     28        1          -0.004623131    0.001991486    0.001089055
     29        1           0.002121118   -0.003062559    0.003626693
     30        6           0.001850911    0.000700047   -0.004990761
     31        1          -0.002419888    0.003876672   -0.003597845
     32        1           0.005160379   -0.004213676   -0.000732017
 -------------------------------------------------------------------
 Cartesian Forces:  Max     0.007501199 RMS     0.002871341

 GradGradGradGradGradGradGradGradGradGradGradGradGradGradGradGradGradGrad
 Berny optimization.
 FormGI is forming the generalized inverse of G from B-inverse, IUseBI=4.
 Internal  Forces:  Max     0.010339156 RMS     0.002850723
 Search for a local minimum.
 Step number   1 out of a maximum of  175
 All quantities printed in internal units (Hartrees-Bohrs-Radians)
 Mixed Optimization -- RFO/linear search
 Second derivative matrix not updated -- first step.
 ITU=  0
     Eigenvalues ---    0.00359   0.00367   0.00568   0.01250   0.01608
     Eigenvalues ---    0.01721   0.01743   0.01781   0.01957   0.02007
     Eigenvalues ---    0.02031   0.02036   0.02102   0.02131   0.02150
     Eigenvalues ---    0.02155   0.02176   0.02209   0.02277   0.02297
     Eigenvalues ---    0.02337   0.03006   0.03007   0.05007   0.05357
     Eigenvalues ---    0.05683   0.05771   0.05827   0.05949   0.07556
     Eigenvalues ---    0.15984   0.15996   0.15999   0.16000   0.16000
     Eigenvalues ---    0.16000   0.16000   0.16000   0.16000   0.16000
     Eigenvalues ---    0.16000   0.16000   0.16000   0.16000   0.16000
     Eigenvalues ---    0.16402   0.16949   0.22000   0.22004   0.22489
     Eigenvalues ---    0.22560   0.24487   0.24497   0.24988   0.24999
     Eigenvalues ---    0.25000   0.25000   0.29355   0.29410   0.30858
     Eigenvalues ---    0.30945   0.33755   0.33777   0.33823   0.33881
     Eigenvalues ---    0.33913   0.34139   0.34185   0.34443   0.34660
     Eigenvalues ---    0.34702   0.34712   0.34805   0.34857   0.34917
     Eigenvalues ---    0.35211   0.36949   0.38686   0.40121   0.40501
     Eigenvalues ---    0.40539   0.41823   0.42610   0.42910   0.47963
     Eigenvalues ---    0.48279   0.49503   0.50010   0.54756   0.59358
 RFO step:  Lambda=-3.57728523D-03 EMin= 3.59251802D-03
 Linear search not attempted -- first point.
 Iteration  1 RMS(Cart)=  0.04793359 RMS(Int)=  0.00052372
 Iteration  2 RMS(Cart)=  0.00114159 RMS(Int)=  0.00001393
 Iteration  3 RMS(Cart)=  0.00000071 RMS(Int)=  0.00001393
 Variable       Old X    -DE/DX   Delta X   Delta X   Delta X     New X
                                 (Linear)    (Quad)   (Total)
    R1        2.59751  -0.00918   0.00000  -0.01842  -0.01842   2.57909
    R2        2.67311  -0.00771   0.00000  -0.01820  -0.01820   2.65491
    R3        2.06162  -0.00558   0.00000  -0.01593  -0.01593   2.04569
    R4        2.68398  -0.00564   0.00000  -0.01292  -0.01292   2.67107
    R5        2.05908  -0.00610   0.00000  -0.01731  -0.01731   2.04177
    R6        2.69415  -0.00680   0.00000  -0.01502  -0.01503   2.67913
    R7        2.69661  -0.00574   0.00000  -0.01352  -0.01353   2.68308
    R8        2.68286  -0.00584   0.00000  -0.01337  -0.01337   2.66949
    R9        2.71602  -0.00594   0.00000  -0.01433  -0.01433   2.70169
   R10        2.59805  -0.00928   0.00000  -0.01865  -0.01865   2.57941
   R11        2.05809  -0.00594   0.00000  -0.01685  -0.01685   2.04125
   R12        2.06145  -0.00566   0.00000  -0.01613  -0.01613   2.04532
   R13        2.60511  -0.00889   0.00000  -0.01808  -0.01808   2.58703
   R14        2.55350  -0.00155   0.00000  -0.00281  -0.00281   2.55069
   R15        2.58767  -0.00983   0.00000  -0.01942  -0.01942   2.56825
   R16        3.29817  -0.00126   0.00000  -0.00403  -0.00403   3.29414
   R17        2.05334  -0.00636   0.00000  -0.01787  -0.01787   2.03547
   R18        2.67427  -0.00769   0.00000  -0.01824  -0.01823   2.65604
   R19        2.05992  -0.00575   0.00000  -0.01636  -0.01636   2.04356
   R20        2.70878   0.00217   0.00000   0.00532   0.00532   2.71410
   R21        2.86284  -0.00089   0.00000  -0.00285  -0.00285   2.85999
   R22        2.89269  -0.00114   0.00000  -0.00383  -0.00383   2.88885
   R23        2.89156  -0.00094   0.00000  -0.00315  -0.00315   2.88841
   R24        2.07019  -0.00607   0.00000  -0.01758  -0.01758   2.05261
   R25        2.51452  -0.01034   0.00000  -0.01731  -0.01731   2.49720
   R26        2.07629  -0.00509   0.00000  -0.01488  -0.01488   2.06141
   R27        2.07096  -0.00561   0.00000  -0.01627  -0.01627   2.05468
   R28        2.07709  -0.00526   0.00000  -0.01542  -0.01542   2.06167
   R29        2.07477  -0.00509   0.00000  -0.01487  -0.01487   2.05990
   R30        2.07531  -0.00512   0.00000  -0.01495  -0.01495   2.06036
   R31        2.07746  -0.00514   0.00000  -0.01507  -0.01507   2.06239
   R32        2.06230  -0.00581   0.00000  -0.01660  -0.01660   2.04570
   R33        2.06589  -0.00654   0.00000  -0.01881  -0.01881   2.04708
    A1        2.10213   0.00030   0.00000  -0.00002  -0.00002   2.10211
    A2        2.09008   0.00003   0.00000   0.00110   0.00110   2.09119
    A3        2.09097  -0.00033   0.00000  -0.00108  -0.00109   2.08989
    A4        2.10729   0.00058   0.00000   0.00281   0.00281   2.11009
    A5        2.10415  -0.00122   0.00000  -0.00710  -0.00710   2.09705
    A6        2.07175   0.00064   0.00000   0.00429   0.00429   2.07604
    A7        2.07334  -0.00098   0.00000  -0.00305  -0.00305   2.07029
    A8        2.14919   0.00166   0.00000   0.00488   0.00489   2.15408
    A9        2.06066  -0.00068   0.00000  -0.00184  -0.00185   2.05881
   A10        2.07979  -0.00059   0.00000  -0.00165  -0.00165   2.07815
   A11        2.09346  -0.00027   0.00000   0.00005   0.00004   2.09351
   A12        2.10993   0.00086   0.00000   0.00160   0.00160   2.11153
   A13        2.10675   0.00056   0.00000   0.00272   0.00272   2.10947
   A14        2.06397   0.00072   0.00000   0.00474   0.00474   2.06871
   A15        2.11247  -0.00128   0.00000  -0.00746  -0.00746   2.10501
   A16        2.09707   0.00013   0.00000  -0.00081  -0.00081   2.09626
   A17        2.09151  -0.00007   0.00000   0.00036   0.00036   2.09187
   A18        2.09460  -0.00006   0.00000   0.00045   0.00045   2.09505
   A19        2.08888  -0.00026   0.00000  -0.00050  -0.00051   2.08837
   A20        1.99548  -0.00208   0.00000  -0.00842  -0.00842   1.98706
   A21        2.19844   0.00234   0.00000   0.00900   0.00900   2.20744
   A22        2.11302   0.00008   0.00000   0.00022   0.00022   2.11324
   A23        2.08997   0.00165   0.00000   0.00655   0.00655   2.09652
   A24        2.08019  -0.00172   0.00000  -0.00675  -0.00675   2.07343
   A25        2.10989   0.00068   0.00000   0.00513   0.00513   2.11503
   A26        2.10062   0.00042   0.00000   0.00053   0.00054   2.10116
   A27        2.07243  -0.00110   0.00000  -0.00571  -0.00571   2.06672
   A28        2.10963   0.00071   0.00000   0.00151   0.00152   2.11115
   A29        2.08695   0.00040   0.00000   0.00389   0.00389   2.09083
   A30        2.08657  -0.00111   0.00000  -0.00537  -0.00538   2.08119
   A31        2.17084   0.00414   0.00000   0.01633   0.01633   2.18717
   A32        1.94892   0.00173   0.00000   0.01938   0.01938   1.96830
   A33        1.94748  -0.00029   0.00000  -0.00005  -0.00013   1.94735
   A34        1.80461  -0.00093   0.00000  -0.00880  -0.00878   1.79583
   A35        1.95793  -0.00057   0.00000  -0.00173  -0.00180   1.95612
   A36        1.89076  -0.00048   0.00000  -0.00568  -0.00566   1.88510
   A37        1.90665   0.00050   0.00000  -0.00445  -0.00448   1.90217
   A38        2.00445  -0.00168   0.00000  -0.00741  -0.00741   1.99704
   A39        2.17769   0.00354   0.00000   0.01581   0.01581   2.19349
   A40        2.09959  -0.00185   0.00000  -0.00842  -0.00842   2.09117
   A41        1.90144   0.00038   0.00000   0.00204   0.00204   1.90347
   A42        1.97796   0.00026   0.00000   0.00150   0.00149   1.97945
   A43        1.90895   0.00110   0.00000   0.00711   0.00709   1.91605
   A44        1.88552  -0.00044   0.00000  -0.00342  -0.00342   1.88210
   A45        1.89218  -0.00068   0.00000  -0.00390  -0.00391   1.88826
   A46        1.89599  -0.00070   0.00000  -0.00374  -0.00375   1.89224
   A47        1.90981   0.00134   0.00000   0.00887   0.00885   1.91865
   A48        1.92667   0.00021   0.00000   0.00034   0.00034   1.92701
   A49        1.91748   0.00080   0.00000   0.00515   0.00513   1.92262
   A50        1.90005  -0.00086   0.00000  -0.00580  -0.00580   1.89425
   A51        1.90617  -0.00085   0.00000  -0.00333  -0.00337   1.90280
   A52        1.90344  -0.00068   0.00000  -0.00543  -0.00543   1.89801
   A53        2.11695  -0.00073   0.00000  -0.00447  -0.00447   2.11247
   A54        2.10964   0.00186   0.00000   0.01138   0.01138   2.12102
   A55        2.05656  -0.00113   0.00000  -0.00689  -0.00689   2.04967
    D1        0.00216   0.00002   0.00000   0.00049   0.00049   0.00264
    D2       -3.14015  -0.00001   0.00000  -0.00065  -0.00065  -3.14080
    D3       -3.14151   0.00003   0.00000   0.00100   0.00100  -3.14050
    D4       -0.00063   0.00000   0.00000  -0.00013  -0.00013  -0.00076
[...]
 Alpha virt. eigenvalues --    4.37821   4.37909   4.40072   4.42061   4.43110
 Alpha virt. eigenvalues --    4.45605   4.46029   4.47302   4.49921   4.51594
 Alpha virt. eigenvalues --    4.53733   4.55572   4.56585   4.57293   4.59491
 Alpha virt. eigenvalues --    4.60617   4.63328   4.66840   4.68207   4.71288
 Alpha virt. eigenvalues --    4.74701   4.78104   4.80554   4.82362   4.83680
 Alpha virt. eigenvalues --    4.85228   4.86165   4.87566   4.89665   4.89883
 Alpha virt. eigenvalues --    4.91882   4.94173   5.02372   5.02691   5.05920
 Alpha virt. eigenvalues --    5.06579   5.12005   5.15661   5.18963   5.22730
 Alpha virt. eigenvalues --    5.23864   5.27379   5.31623   5.34463   5.36127
 Alpha virt. eigenvalues --    5.44135   5.48631   5.50684   5.55553   5.71725
 Alpha virt. eigenvalues --    5.72615   5.82062   5.89189   6.01767   6.18668
 Alpha virt. eigenvalues --    6.19286   6.50947   6.73405   6.83969   6.98273
 Alpha virt. eigenvalues --    7.15755   7.45701   7.63930  10.84505  10.95635
 Alpha virt. eigenvalues --   11.49363  22.11754  22.36864  22.53265  22.56913
 Alpha virt. eigenvalues --   22.69975  22.77651  22.82529  22.84500  22.89377
 Alpha virt. eigenvalues --   22.91139  22.98914  23.08374  23.13590  23.31643
 Alpha virt. eigenvalues --   23.82891  26.09292  44.75407
          Condensed to atoms (all electrons):
               1          2          3          4          5          6
     1  C    4.975844   0.418147   0.045930  -0.096674   0.066846   0.351404
     2  C    0.418147   5.308988   0.293132  -0.001198  -0.159541   0.058558
     3  C    0.045930   0.293132   5.433775   0.183669  -0.004181  -0.082218
     4  C   -0.096674  -0.001198   0.183669   5.352941   0.318187   0.015044
     5  C    0.066846  -0.159541  -0.004181   0.318187   5.343465   0.424114
     6  C    0.351404   0.058558  -0.082218   0.015044   0.424114   4.970121
     7  H    0.454238  -0.058388   0.013439  -0.003273   0.012827  -0.060929
     8  H   -0.039585   0.452946  -0.066163   0.015488  -0.004509   0.009974
     9  H    0.010501  -0.004482   0.013004  -0.045998   0.447110  -0.050329
    10  H   -0.061997   0.013549  -0.003379   0.013913  -0.064565   0.460951
    11  C   -0.014098   0.048756   0.044052   0.286690  -0.225889   0.016767
    12  C    0.018574  -0.205346   0.234963   0.068298   0.039190  -0.010766
    13  C    0.001902  -0.018687  -0.216844   0.123899   0.045077  -0.002427
    14  H   -0.000007   0.000122  -0.002984   0.003226  -0.000062   0.000006
    15  C   -0.001221   0.032479   0.164621  -0.182841  -0.015174   0.001691
    16  H    0.000018  -0.000038   0.022143  -0.005737   0.000127   0.000000
    17  O    0.000515  -0.000597   0.000792  -0.126489   0.045417   0.000603
    18  Cl  -0.000996   0.020492  -0.134299   0.018302  -0.001030   0.000648
    19  C   -0.000030   0.000044   0.000055  -0.011394  -0.002835   0.000057
    20  C   -0.000005   0.000009   0.001212   0.005596  -0.000824   0.000024
    21  H    0.000000   0.000000   0.000009   0.000185  -0.000035   0.000000
    22  C    0.000034  -0.000033   0.000431  -0.002552  -0.000406  -0.000168
    23  H    0.000000   0.000001  -0.000024   0.000035  -0.000003   0.000001
    24  H   -0.000003   0.000014   0.000722  -0.002314  -0.000302   0.000016
    25  H    0.000007  -0.000032   0.000426   0.000990   0.000675   0.000014
    26  C   -0.000014   0.000008   0.000265   0.003863  -0.001264  -0.000034
    27  H    0.000002  -0.000001  -0.000037  -0.000402   0.000159  -0.000018
    28  H    0.000000   0.000000  -0.000011  -0.000176   0.000090   0.000002
    29  H   -0.000003   0.000000   0.000037   0.000089   0.000104   0.000061
    30  C    0.000002  -0.000005  -0.000382   0.000356   0.000596   0.000009
    31  H    0.000000   0.000000  -0.000004  -0.000037   0.000003   0.000000
    32  H   -0.000001  -0.000001   0.000054   0.000364   0.000028   0.000007
               7          8          9         10         11         12
     1  C    0.454238  -0.039585   0.010501  -0.061997  -0.014098   0.018574
     2  C   -0.058388   0.452946  -0.004482   0.013549   0.048756  -0.205346
     3  C    0.013439  -0.066163   0.013004  -0.003379   0.044052   0.234963
     4  C   -0.003273   0.015488  -0.045998   0.013913   0.286690   0.068298
     5  C    0.012827  -0.004509   0.447110  -0.064565  -0.225889   0.039190
     6  C   -0.060929   0.009974  -0.050329   0.460951   0.016767  -0.010766
     7  H    0.516382  -0.006671  -0.000067  -0.006902   0.000076  -0.000131
     8  H   -0.006671   0.504673   0.000014  -0.000087   0.001166  -0.025658
     9  H   -0.000067   0.000014   0.489013  -0.006727  -0.021883   0.000465
    10  H   -0.006902  -0.000087  -0.006727   0.518446  -0.000307   0.000094
    11  C    0.000076   0.001166  -0.021883  -0.000307   5.224931  -0.193928
    12  C   -0.000131  -0.025658   0.000465   0.000094  -0.193928   5.339215
    13  C    0.000020  -0.000581   0.000745  -0.000020   0.218368   0.145254
    14  H    0.000000   0.000003  -0.000014   0.000000  -0.079844   0.011298
    15  C   -0.000019   0.001251  -0.000383   0.000004   0.110386   0.277399
    16  H    0.000000   0.000010   0.000002   0.000000   0.017114  -0.086373
    17  O    0.000001   0.000006   0.015563  -0.000094   0.344299  -0.000553
    18  Cl  -0.000127   0.020563   0.000002   0.000001  -0.004388   0.312826
    19  C    0.000000   0.000001  -0.001493   0.000005  -0.081080   0.000102
    20  C    0.000000   0.000000   0.000018   0.000001   0.043359  -0.000795
    21  H    0.000000   0.000000  -0.000009   0.000000   0.001312  -0.000003
    22  C    0.000000  -0.000001  -0.000088  -0.000002  -0.009901  -0.000580
    23  H    0.000000   0.000000  -0.000006   0.000000   0.002124   0.000017
    24  H    0.000000   0.000000  -0.000027   0.000000  -0.004450  -0.000568
    25  H    0.000000   0.000000   0.000223   0.000000   0.000586  -0.000007
    26  C    0.000000   0.000000  -0.000713   0.000007  -0.000324  -0.000040
    27  H    0.000000   0.000000   0.000001  -0.000001   0.000520   0.000006
    28  H    0.000000   0.000000   0.000120   0.000000   0.000516   0.000002
    29  H    0.000000   0.000000  -0.000120   0.000001  -0.002381  -0.000001
    30  C    0.000000   0.000000   0.000067   0.000000  -0.004152   0.000128
    31  H    0.000000   0.000000   0.000001   0.000000  -0.000467   0.000008
    32  H    0.000000   0.000000  -0.000018   0.000000  -0.000725   0.000015
              13         14         15         16         17         18
     1  C    0.001902  -0.000007  -0.001221   0.000018   0.000515  -0.000996
     2  C   -0.018687   0.000122   0.032479  -0.000038  -0.000597   0.020492
     3  C   -0.216844  -0.002984   0.164621   0.022143   0.000792  -0.134299
     4  C    0.123899   0.003226  -0.182841  -0.005737  -0.126489   0.018302
     5  C    0.045077  -0.000062  -0.015174   0.000127   0.045417  -0.001030
     6  C   -0.002427   0.000006   0.001691   0.000000   0.000603   0.000648
     7  H    0.000020   0.000000  -0.000019   0.000000   0.000001  -0.000127
     8  H   -0.000581   0.000003   0.001251   0.000010   0.000006   0.020563
     9  H    0.000745  -0.000014  -0.000383   0.000002   0.015563   0.000002
    10  H   -0.000020   0.000000   0.000004   0.000000  -0.000094   0.000001
    11  C    0.218368  -0.079844   0.110386   0.017114   0.344299  -0.004388
    12  C    0.145254   0.011298   0.277399  -0.086373  -0.000553   0.312826
    13  C    5.382441   0.457524   0.236421  -0.049502  -0.089384   0.018310
    14  H    0.457524   0.477406  -0.026970  -0.006398  -0.003053  -0.000288
    15  C    0.236421  -0.026970   5.219694   0.452909   0.004997  -0.035749
    16  H   -0.049502  -0.006398   0.452909   0.509523  -0.000134   0.002732
    17  O   -0.089384  -0.003053   0.004997  -0.000134   8.011271   0.000003
    18  Cl   0.018310  -0.000288  -0.035749   0.002732   0.000003  16.894710
    19  C    0.037185   0.014635  -0.003147   0.000076   0.277930  -0.000012
    20  C   -0.037764  -0.012348   0.002214   0.000112  -0.087216   0.000002
    21  H   -0.001104   0.000063  -0.000049  -0.000001   0.003441   0.000000
    22  C    0.008103  -0.005761   0.004412  -0.000074  -0.059979   0.000008
    23  H    0.000016   0.000319  -0.000123  -0.000001   0.004053   0.000000
    24  H   -0.006521  -0.002846   0.003780   0.000050   0.001190  -0.000001
    25  H   -0.005420  -0.000183   0.000194   0.000010   0.002834  -0.000001
    26  C   -0.001433   0.000185   0.000123   0.000001  -0.055901   0.000000
    27  H    0.000091   0.000022  -0.000026   0.000000   0.001476   0.000000
    28  H    0.000212   0.000062  -0.000010   0.000000   0.004972   0.000000
    29  H   -0.000157  -0.000041   0.000006   0.000000   0.000197   0.000000
    30  C   -0.008900  -0.000198   0.000931   0.000075   0.021461   0.000000
    31  H    0.000161   0.000153  -0.000040  -0.000001   0.000458   0.000000
    32  H   -0.002031  -0.000784   0.000590  -0.000006   0.005321   0.000000
              19         20         21         22         23         24
     1  C   -0.000030  -0.000005   0.000000   0.000034   0.000000  -0.000003
     2  C    0.000044   0.000009   0.000000  -0.000033   0.000001   0.000014
     3  C    0.000055   0.001212   0.000009   0.000431  -0.000024   0.000722
     4  C   -0.011394   0.005596   0.000185  -0.002552   0.000035  -0.002314
     5  C   -0.002835  -0.000824  -0.000035  -0.000406  -0.000003  -0.000302
     6  C    0.000057   0.000024   0.000000  -0.000168   0.000001   0.000016
     7  H    0.000000   0.000000   0.000000   0.000000   0.000000   0.000000
     8  H    0.000001   0.000000   0.000000  -0.000001   0.000000   0.000000
     9  H   -0.001493   0.000018  -0.000009  -0.000088  -0.000006  -0.000027
    10  H    0.000005   0.000001   0.000000  -0.000002   0.000000   0.000000
    11  C   -0.081080   0.043359   0.001312  -0.009901   0.002124  -0.004450
    12  C    0.000102  -0.000795  -0.000003  -0.000580   0.000017  -0.000568
    13  C    0.037185  -0.037764  -0.001104   0.008103   0.000016  -0.006521
    14  H    0.014635  -0.012348   0.000063  -0.005761   0.000319  -0.002846
    15  C   -0.003147   0.002214  -0.000049   0.004412  -0.000123   0.003780
    16  H    0.000076   0.000112  -0.000001  -0.000074  -0.000001   0.000050
    17  O    0.277930  -0.087216   0.003441  -0.059979   0.004053   0.001190
    18  Cl  -0.000012   0.000002   0.000000   0.000008   0.000000  -0.000001
    19  C    4.903503   0.208991  -0.036724   0.336875  -0.013350  -0.030961
    20  C    0.208991   5.452080   0.410937  -0.097987  -0.006231  -0.003271
    21  H   -0.036724   0.410937   0.505007  -0.002310   0.002215  -0.000192
    22  C    0.336875  -0.097987  -0.002310   5.069632   0.394809   0.413744
    23  H   -0.013350  -0.006231   0.002215   0.394809   0.520732  -0.020011
    24  H   -0.030961  -0.003271  -0.000192   0.413744  -0.020011   0.513735
    25  H   -0.043786   0.015967  -0.000099   0.412093  -0.016177  -0.017796
    26  C    0.303643  -0.071046  -0.002411  -0.049399  -0.011556   0.009222
    27  H   -0.038546  -0.010616   0.000583   0.011451   0.000023  -0.000329
    28  H   -0.018566  -0.011457  -0.000645  -0.011279   0.001814  -0.000048
    29  H   -0.039838   0.015324  -0.000204  -0.005987  -0.000146   0.000016
    30  C   -0.028485   0.524849  -0.023524   0.010545  -0.001040   0.000072
    31  H    0.006619  -0.050059  -0.006848  -0.000249  -0.000018  -0.000023
    32  H   -0.005996  -0.044546   0.003830   0.000730  -0.000039   0.000048
              25         26         27         28         29         30
     1  C    0.000007  -0.000014   0.000002   0.000000  -0.000003   0.000002
     2  C   -0.000032   0.000008  -0.000001   0.000000   0.000000  -0.000005
     3  C    0.000426   0.000265  -0.000037  -0.000011   0.000037  -0.000382
     4  C    0.000990   0.003863  -0.000402  -0.000176   0.000089   0.000356
     5  C    0.000675  -0.001264   0.000159   0.000090   0.000104   0.000596
     6  C    0.000014  -0.000034  -0.000018   0.000002   0.000061   0.000009
     7  H    0.000000   0.000000   0.000000   0.000000   0.000000   0.000000
     8  H    0.000000   0.000000   0.000000   0.000000   0.000000   0.000000
     9  H    0.000223  -0.000713   0.000001   0.000120  -0.000120   0.000067
    10  H    0.000000   0.000007  -0.000001   0.000000   0.000001   0.000000
    11  C    0.000586  -0.000324   0.000520   0.000516  -0.002381  -0.004152
    12  C   -0.000007  -0.000040   0.000006   0.000002  -0.000001   0.000128
    13  C   -0.005420  -0.001433   0.000091   0.000212  -0.000157  -0.008900
    14  H   -0.000183   0.000185   0.000022   0.000062  -0.000041  -0.000198
    15  C    0.000194   0.000123  -0.000026  -0.000010   0.000006   0.000931
    16  H    0.000010   0.000001   0.000000   0.000000   0.000000   0.000075
    17  O    0.002834  -0.055901   0.001476   0.004972   0.000197   0.021461
    18  Cl  -0.000001   0.000000   0.000000   0.000000   0.000000   0.000000
    19  C   -0.043786   0.303643  -0.038546  -0.018566  -0.039838  -0.028485
    20  C    0.015967  -0.071046  -0.010616  -0.011457   0.015324   0.524849
    21  H   -0.000099  -0.002411   0.000583  -0.000645  -0.000204  -0.023524
    22  C    0.412093  -0.049399   0.011451  -0.011279  -0.005987   0.010545
    23  H   -0.016177  -0.011556   0.000023   0.001814  -0.000146  -0.001040
    24  H   -0.017796   0.009222  -0.000329  -0.000048   0.000016   0.000072
    25  H    0.509241  -0.009320  -0.000255   0.000592   0.002131  -0.000410
    26  C   -0.009320   5.028883   0.415256   0.411497   0.408415  -0.007280
    27  H   -0.000255   0.415256   0.514582  -0.018191  -0.019866   0.003444
    28  H    0.000592   0.411497  -0.018191   0.527264  -0.021783   0.001468
    29  H    0.002131   0.408415  -0.019866  -0.021783   0.531442  -0.000230
    30  C   -0.000410  -0.007280   0.003444   0.001468  -0.000230   4.957629
    31  H    0.000005  -0.000217  -0.000036  -0.000002   0.000016   0.426983
    32  H   -0.000004  -0.000937   0.000336  -0.000072  -0.000010   0.421423
              31         32
     1  C    0.000000  -0.000001
     2  C    0.000000  -0.000001
     3  C   -0.000004   0.000054
     4  C   -0.000037   0.000364
     5  C    0.000003   0.000028
     6  C    0.000000   0.000007
     7  H    0.000000   0.000000
     8  H    0.000000   0.000000
     9  H    0.000001  -0.000018
    10  H    0.000000   0.000000
    11  C   -0.000467  -0.000725
    12  C    0.000008   0.000015
    13  C    0.000161  -0.002031
    14  H    0.000153  -0.000784
    15  C   -0.000040   0.000590
    16  H   -0.000001  -0.000006
    17  O    0.000458   0.005321
    18  Cl   0.000000   0.000000
    19  C    0.006619  -0.005996
    20  C   -0.050059  -0.044546
    21  H   -0.006848   0.003830
    22  C   -0.000249   0.000730
    23  H   -0.000018  -0.000039
    24  H   -0.000023   0.000048
    25  H    0.000005  -0.000004
    26  C   -0.000217  -0.000937
    27  H   -0.000036   0.000336
    28  H   -0.000002  -0.000072
    29  H    0.000016  -0.000010
    30  C    0.426983   0.421423
    31  H    0.496012  -0.021599
    32  H   -0.021599   0.484468
 Mulliken charges:
               1
     1  C   -0.129330
     2  C   -0.198896
     3  C    0.057794
     4  C    0.067953
     5  C   -0.263393
     6  C   -0.103178
     7  H    0.139524
     8  H    0.137161
     9  H    0.155508
    10  H    0.137110
    11  C    0.282796
    12  C    0.076897
    13  C   -0.234956
    14  H    0.176760
    15  C   -0.248349
    16  H    0.143365
    17  O   -0.323401
    18  Cl  -0.111708
    19  C    0.266522
    20  C   -0.246530
    21  H    0.146576
    22  C   -0.416111
    23  H    0.142567
    24  H    0.147054
    25  H    0.147502
    26  C   -0.369477
    27  H    0.140372
    28  H    0.133632
    29  H    0.132928
    30  C   -0.295430
    31  H    0.149180
    32  H    0.159556
 Sum of Mulliken charges =   0.00000
 Mulliken charges with hydrogens summed into heavy atoms:
               1
     1  C    0.010194
     2  C   -0.061735
     3  C    0.057794
     4  C    0.067953
     5  C   -0.107885
     6  C    0.033932
    11  C    0.282796
    12  C    0.076897
    13  C   -0.058195
    15  C   -0.104984
    17  O   -0.323401
    18  Cl  -0.111708
    19  C    0.266522
    20  C   -0.099954
    22  C    0.021012
    26  C    0.037455
    30  C    0.013306
 Electronic spatial extent (au):  <R**2>=           4867.6453
 Charge=              0.0000 electrons
 Dipole moment (field-independent basis, Debye):
    X=              3.5305    Y=              0.5257    Z=             -0.8108  Tot=              3.6603
 Quadrupole moment (field-independent basis, Debye-Ang):
   XX=           -100.0934   YY=            -99.8758   ZZ=           -109.4875
   XY=             -7.9093   XZ=             -3.6085   YZ=             -0.3055
 Traceless Quadrupole moment (field-independent basis, Debye-Ang):
   XX=              3.0588   YY=              3.2764   ZZ=             -6.3353
   XY=             -7.9093   XZ=             -3.6085   YZ=             -0.3055
 Octapole moment (field-independent basis, Debye-Ang**2):
  XXX=             33.9872  YYY=             11.1585  ZZZ=             -0.4354  XYY=             -0.7471
  XXY=             11.8030  XXZ=            -12.5282  XZZ=             11.9455  YZZ=             -7.6557
  YYZ=              2.1927  XYZ=             -3.7537
 Hexadecapole moment (field-independent basis, Debye-Ang**3):
 XXXX=          -4231.2030 YYYY=          -1580.9555 ZZZZ=           -458.5257 XXXY=            -90.6665
 XXXZ=            -61.8398 YYYX=            -19.8554 YYYZ=             12.6345 ZZZX=              6.1376
 ZZZY=            -12.2031 XXYY=           -983.7377 XXZZ=           -829.7676 YYZZ=           -379.4809
 XXYZ=             -8.3364 YYXZ=              4.0370 ZZXY=              9.2873
 N-N= 1.277499570791D+03 E-N=-5.173816017209D+03  KE= 1.112202243247D+03
 1\1\GINC-D11S1B1\FOpt\RwB97XD\def2TZVP\C15H15Cl1O1\PMMASS\02-Feb-2022\
 0\\#n wB97XD/Def2TZVP scrf(smd,solvent=toluene) opt\\starting material
  claisen toluene - opt\\0,1\C,-2.8039405274,2.5101175996,0.0391690884\
 C,-2.9947578684,1.159596585,-0.0273640828\C,-1.8961084285,0.2694428982
 ,-0.0123459651\C,-0.5854284432,0.8075103124,0.0734106157\C,-0.42250459
 46,2.2098821464,0.1376339175\C,-1.5049370172,3.0427480258,0.1214257783
 \H,-3.6578641032,3.1758967506,0.0271715106\H,-3.9954822994,0.755554293
 4,-0.0914143158\H,0.5787603217,2.6114367229,0.2022589616\H,-1.36395427
 13,4.1149398051,0.1732749042\C,0.5437198512,-0.0693827831,0.0944684658
 \C,-2.0323605635,-1.1420562597,-0.0852031137\C,0.3542023424,-1.4238170
 852,0.0404455167\H,1.1902894852,-2.1037494626,0.0889211391\C,-0.943822
 5552,-1.9570156314,-0.0583520917\H,-1.0713674136,-3.0299324018,-0.1084
 209814\O,1.7357463446,0.5551244023,0.2097324468\Cl,-3.6167397463,-1.86
 07256663,-0.2127059873\C,2.9775907093,0.0235737155,-0.2826942961\C,3.5
 646065735,-1.006851804,0.6524634821\H,4.4243792067,-1.5332187483,0.246
 3993982\C,2.8358413242,-0.5212195462,-1.7030301979\H,3.8286081976,-0.7
 047493734,-2.1160823274\H,2.2769060653,-1.4534029022,-1.7510197801\H,2
 .3354631214,0.2145159359,-2.3345978097\C,3.8989478633,1.2426305765,-0.
 2966481016\H,3.9224087313,1.7040533685,0.6907592253\H,4.9152252373,0.9
 49938517,-0.5639289161\H,3.5450596651,1.9751900246,-1.0243285008\C,3.1
 601367431,-1.2587040534,1.8853261505\H,3.6677438094,-1.9924770245,2.49
 93269684\H,2.3088222392,-0.7490989374,2.3215188985\\Version=ES64L-G09R
 evD.01\State=1-A\HF=-1116.0791281\RMSD=6.172e-09\RMSF=1.216e-05\Dipole
 =1.3976263,0.190474,-0.2901363\Quadrupole=2.306899,2.5086825,-4.815581
 5,-5.9213127,-2.4015465,-0.491752\PG=C01 [X(C15H15Cl1O1)]\\@


 ALL THINGS ARE POSSIBLE EXCEPT SKIING THROUGH A REVOLVING DOOR.
 Job cpu time:       0 days 22 hours 36 minutes 47.7 seconds.
 File lengths (MBytes):  RWF=    401 Int=      0 D2E=      0 Chk=     28 Scr=      1
 Normal termination of Gaussian 09 at Wed Feb  2 17:31:32 2022.
