 Entering Gaussian System, Link 0=g09
 Input=sm_claisen_freq.com
 Output=sm_claisen_freq.log
 Initial command:
 /apps/applications/gaussian/G09.D01/2/default/g09/l1.exe "/nobackup/pmmass/Temp/Gau-185728.inp" -scrdir="/nobackup/pmmass/Temp/"
 Entering Link 1 = /apps/applications/gaussian/G09.D01/2/default/g09/l1.exe PID=    185729.
  
 Copyright (c) 1988,1990,1992,1993,1995,1998,2003,2009,2013,
            Gaussian, Inc.  All Rights Reserved.
  
 This is part of the Gaussian(R) 09 program.  It is based on
 the Gaussian(R) 03 system (copyright 2003, Gaussian, Inc.),
 the Gaussian(R) 98 system (copyright 1998, Gaussian, Inc.),
 the Gaussian(R) 94 system (copyright 1995, Gaussian, Inc.),
 the Gaussian 92(TM) system (copyright 1992, Gaussian, Inc.),
 the Gaussian 90(TM) system (copyright 1990, Gaussian, Inc.),
 the Gaussian 88(TM) system (copyright 1988, Gaussian, Inc.),
 the Gaussian 86(TM) system (copyright 1986, Carnegie Mellon
 University), and the Gaussian 82(TM) system (copyright 1983,
 Carnegie Mellon University). Gaussian is a federally registered
 trademark of Gaussian, Inc.
  
 This software contains proprietary and confidential information,
 including trade secrets, belonging to Gaussian, Inc.
  
 This software is provided under written license and may be
 used, copied, transmitted, or stored only in accord with that
 written license.
  
 The following legend is applicable only to US Government
 contracts under FAR:
  
                    RESTRICTED RIGHTS LEGEND
  
 Use, reproduction and disclosure by the US Government is
 subject to restrictions as set forth in subparagraphs (a)
 and (c) of the Commercial Computer Software - Restricted
 Rights clause in FAR 52.227-19.
  
 Gaussian, Inc.
 340 Quinnipiac St., Bldg. 40, Wallingford CT 06492
  
  
 ---------------------------------------------------------------
 Warning -- This program may not be used in any manner that
 competes with the business of Gaussian, Inc. or will provide
 assistance to any competitor of Gaussian, Inc.  The licensee
 of this program is prohibited from giving any competitor of
 Gaussian, Inc. access to this program.  By using this program,
 the user acknowledges that Gaussian, Inc. is engaged in the
 business of creating and licensing software in the field of
 computational chemistry and represents and warrants to the
 licensee that it is not a competitor of Gaussian, Inc. and that
 it will not use this program in any manner prohibited above.
 ---------------------------------------------------------------
  

 Cite this work as:
 Gaussian 09, Revision D.01,
 M. J. Frisch, G. W. Trucks, H. B. Schlegel, G. E. Scuseria, 
 M. A. Robb, J. R. Cheeseman, G. Scalmani, V. Barone, B. Mennucci, 
 G. A. Petersson, H. Nakatsuji, M. Caricato, X. Li, H. P. Hratchian, 
 A. F. Izmaylov, J. Bloino, G. Zheng, J. L. Sonnenberg, M. Hada, 
 M. Ehara, K. Toyota, R. Fukuda, J. Hasegawa, M. Ishida, T. Nakajima, 
 Y. Honda, O. Kitao, H. Nakai, T. Vreven, J. A. Montgomery, Jr., 
 J. E. Peralta, F. Ogliaro, M. Bearpark, J. J. Heyd, E. Brothers, 
 K. N. Kudin, V. N. Staroverov, T. Keith, R. Kobayashi, J. Normand, 
 K. Raghavachari, A. Rendell, J. C. Burant, S. S. Iyengar, J. Tomasi, 
 M. Cossi, N. Rega, J. M. Millam, M. Klene, J. E. Knox, J. B. Cross, 
 V. Bakken, C. Adamo, J. Jaramillo, R. Gomperts, R. E. Stratmann, 
 O. Yazyev, A. J. Austin, R. Cammi, C. Pomelli, J. W. Ochterski, 
 R. L. Martin, K. Morokuma, V. G. Zakrzewski, G. A. Voth, 
 P. Salvador, J. J. Dannenberg, S. Dapprich, A. D. Daniels, 
 O. Farkas, J. B. Foresman, J. V. Ortiz, J. Cioslowski, 
 and D. J. Fox, Gaussian, Inc., Wallingford CT, 2013.
 
 ******************************************
 Gaussian 09:  ES64L-G09RevD.01 24-Apr-2013
                 4-Feb-2022 
 ******************************************
 %nprocshared=8
 Will use up to    8 processors via shared memory.
 %mem=4GB
 %NoSave
 %chk="sm_claisen_Freq.chk"
 -------------------------------------------------
 #n wB97XD/Def2TZVP scrf(smd,solvent=toluene) freq
 -------------------------------------------------
 1/10=4,30=1,38=1/1,3;
 2/12=2,17=6,18=5,40=1/2;
 3/5=44,7=101,11=2,16=1,25=1,30=1,70=32201,71=2,72=13,74=-58,140=1/1,2,3;
 4//1;
 5/5=2,38=5,53=13,98=1/2;
 8/6=4,10=90,11=11/1;
 11/6=1,8=1,9=11,15=111,16=1/1,2,10;
 10/6=1/2;
 6/7=2,8=2,9=2,10=2,18=1,28=1/1;
 7/8=1,10=1,25=1/1,2,3,16;
 1/10=4,30=1/3;
 99//99;
 ----------------------------------------
 starting material claisen toluene - freq
 ----------------------------------------
 Symbolic Z-matrix:
 Charge =  0 Multiplicity = 1
 C                    -2.82168   2.48692   0.15687 
 C                    -3.00437   1.13657   0.0678 
 C                    -1.89935   0.25468   0.03919 
 C                    -0.59088   0.80089   0.10491 
 C                    -0.4365    2.20291   0.19337 
 C                    -1.52493   3.02768   0.21926 
 H                    -3.68038   3.14629   0.17827 
 H                    -4.00342   0.72628   0.01919 
 H                     0.56312   2.61071   0.24249 
 H                    -1.39042   4.09967   0.28925 
 C                     0.54468  -0.06763   0.08188 
 C                    -2.0272   -1.15609  -0.05871 
 C                     0.36361  -1.42213   0.00521 
 H                     1.20544  -2.09651   0.02041 
 C                    -0.93255  -1.96312  -0.07375 
 H                    -1.05358  -3.03577  -0.14229 
 O                     1.73461   0.56352   0.18161 
 Cl                   -3.60898  -1.88412  -0.16334 
 C                     2.96824   0.05131  -0.35038 
 C                     3.58452  -0.99298   0.54991 
 H                     4.4382   -1.50463   0.11331 
 C                     2.79686  -0.46624  -1.77763 
 H                     3.78088  -0.63397  -2.21747 
 H                     2.24362  -1.40151  -1.83114 
 H                     2.27646   0.27807  -2.38241 
 C                     3.88028   1.27738  -0.36155 
 H                     3.92377   1.71927   0.63408 
 H                     4.89202   0.99779  -0.65842 
 H                     3.50408   2.02153  -1.0659 
 C                     3.2111   -1.27234   1.78663 
 H                     3.7383   -2.01427   2.37373 
 H                     2.36671  -0.77798   2.25281 
 

 GradGradGradGradGradGradGradGradGradGradGradGradGradGradGradGradGradGrad
 Berny optimization.
 Initialization pass.
 Trust Radius=3.00D-01 FncErr=1.00D-07 GrdErr=1.00D-07
 Number of steps in this run=      2 maximum allowed number of steps=      2.
 GradGradGradGradGradGradGradGradGradGradGradGradGradGradGradGradGradGrad

                          Input orientation:                          
 ---------------------------------------------------------------------
 Center     Atomic      Atomic             Coordinates (Angstroms)
 Number     Number       Type             X           Y           Z
 ---------------------------------------------------------------------
      1          6           0       -2.821680    2.486920    0.156870
      2          6           0       -3.004370    1.136570    0.067800
      3          6           0       -1.899350    0.254680    0.039190
      4          6           0       -0.590880    0.800890    0.104910
      5          6           0       -0.436500    2.202910    0.193370
      6          6           0       -1.524930    3.027680    0.219260
      7          1           0       -3.680380    3.146290    0.178270
      8          1           0       -4.003420    0.726280    0.019190
      9          1           0        0.563120    2.610710    0.242490
     10          1           0       -1.390420    4.099670    0.289250
     11          6           0        0.544680   -0.067630    0.081880
     12          6           0       -2.027200   -1.156090   -0.058710
     13          6           0        0.363610   -1.422130    0.005210
     14          1           0        1.205440   -2.096510    0.020410
     15          6           0       -0.932550   -1.963120   -0.073750
     16          1           0       -1.053580   -3.035770   -0.142290
     17          8           0        1.734610    0.563520    0.181610
     18         17           0       -3.608980   -1.884120   -0.163340
     19          6           0        2.968240    0.051310   -0.350380
     20          6           0        3.584520   -0.992980    0.549910
     21          1           0        4.438200   -1.504630    0.113310
     22          6           0        2.796860   -0.466240   -1.777630
     23          1           0        3.780880   -0.633970   -2.217470
     24          1           0        2.243620   -1.401510   -1.831140
     25          1           0        2.276460    0.278070   -2.382410
     26          6           0        3.880280    1.277380   -0.361550
     27          1           0        3.923770    1.719270    0.634080
     28          1           0        4.892020    0.997790   -0.658420
     29          1           0        3.504080    2.021530   -1.065900
     30          6           0        3.211100   -1.272340    1.786630
     31          1           0        3.738300   -2.014270    2.373730
     32          1           0        2.366710   -0.777980    2.252810
 ---------------------------------------------------------------------
                    Distance matrix (angstroms):
                    1          2          3          4          5
     1  C    0.000000
     2  C    1.365560   0.000000
     3  C    2.418147   1.414078   0.000000
     4  C    2.796760   2.437005   1.419422   0.000000
     5  C    2.402307   2.783308   2.441168   1.413265   0.000000
     6  C    1.406369   2.405822   2.803952   2.417461   1.365868
     7  H    1.082863   2.123245   3.398944   3.879600   3.378306
     8  H    2.124928   1.081111   2.156367   3.414432   3.864414
     9  H    3.388145   3.864012   3.414084   2.150835   1.080719
    10  H    2.160322   3.381396   3.886578   3.399293   2.125289
    11  C    4.226550   3.747806   2.465561   1.429809   2.475984
    12  C    3.734862   2.495427   1.419930   2.433014   3.725151
    13  C    5.044774   4.230148   2.816706   2.421324   3.717055
    14  H    6.102798   5.308253   3.894633   3.410107   4.605529
    15  C    4.839923   3.731026   2.422002   2.790772   4.203953
    16  H    5.806529   4.610655   3.402253   3.872358   5.285567
    17  O    4.945691   4.774858   3.649840   2.338831   2.720562
    18  Cl   4.452905   3.089263   2.745600   4.048477   5.186105
    19  C    6.301799   6.084795   4.887387   3.665582   4.064148
    20  C    7.300930   6.941245   5.647152   4.566176   5.148731
    21  H    8.284940   7.897459   6.577629   5.532372   6.124946
    22  C    6.635619   6.295147   5.086742   4.077543   4.632906
    23  H    7.679274   7.375425   6.176344   5.154082   5.625507
    24  H    6.687999   6.131005   4.837902   4.078388   4.926817
    25  H    6.108845   5.884532   4.827223   3.831676   4.207113
    26  C    6.829935   6.899462   5.883080   4.520608   4.449622
    27  H    6.805741   6.975624   6.033875   4.637403   4.409091
    28  H    7.898315   7.930929   6.867429   5.539281   5.529104
    29  H    6.459643   6.665460   5.791376   4.430514   4.140873
    30  C    7.292639   6.883988   5.612667   4.645591   5.284016
    31  H    8.258845   7.791579   6.510093   5.640432   6.321988
    32  H    6.478574   6.106412   4.915869   3.981663   4.580937
                    6          7          8          9         10
     6  C    0.000000
     7  H    2.159100   0.000000
     8  H    3.388124   2.446653   0.000000
     9  H    2.129403   4.277647   4.945122   0.000000
    10  H    1.082661   2.482975   4.275566   2.456727   0.000000
    11  C    3.726004   5.309398   4.617298   2.683215   4.599348
    12  C    4.222970   4.615153   2.730354   4.581404   5.305618
    13  C    4.838720   6.103627   4.866910   4.044738   5.800653
    14  H    5.809629   7.168201   5.924556   4.756029   6.723348
    15  C    5.034367   5.806906   4.083106   4.822547   6.090881
    16  H    6.092480   6.724634   4.783372   5.885959   7.156409
    17  O    4.086331   5.999402   5.742635   2.359466   4.720355
    18  Cl   5.349339   5.042501   2.646335   6.146106   6.397858
    19  C    5.419580   7.352722   7.014001   3.561829   5.982998
    20  C    6.510109   8.369614   7.798356   4.712743   7.124118
    21  H    7.490793   9.356635   8.731939   5.654110   8.087765
    22  C    5.905329   7.670108   7.134036   4.305589   6.530914
    23  H    6.891803   8.700594   8.212689   5.189733   7.445357
    24  H    6.166347   7.733950   6.853957   4.818914   6.925697
    25  H    5.364663   7.089973   6.738358   3.907281   5.931981
    26  C    5.711146   7.806908   7.912105   3.625767   6.014078
    27  H    5.618927   7.750306   8.012769   3.498854   5.833166
    28  H    6.787343   8.877057   8.925342   4.706647   7.070275
    29  H    5.287241   7.377636   7.695300   3.272348   5.487370
    30  C    6.586107   8.342878   7.692049   4.947145   7.230119
    31  H    7.600302   9.299905   8.543343   6.001199   8.247975
    32  H    5.810614   7.501394   6.915953   4.333306   6.462435
                   11         12         13         14         15
    11  C    0.000000
    12  C    2.796261   0.000000
    13  C    1.368698   2.406415   0.000000
    14  H    2.134651   3.367582   1.078748   0.000000
    15  C    2.408176   1.360067   1.406746   2.144216   0.000000
    16  H    3.378541   2.118518   2.152677   2.451908   1.081630
    17  O    1.350641   4.143190   2.419414   2.716941   3.682779
    18  Cl   4.540117   1.744421   4.002913   4.822604   2.679094
    19  C    2.464678   5.147553   3.013564   2.803227   4.398933
    20  C    3.211846   5.646984   3.294712   2.675476   4.661979
    21  H    4.150356   6.477073   4.076859   3.287809   5.393529
    22  C    2.947708   5.167411   3.164325   2.902300   4.364900
    23  H    4.010080   6.218251   4.152016   3.712145   5.345895
    24  H    2.885356   4.630512   2.628126   2.233625   3.673130
    25  H    3.031715   5.096851   3.500058   3.543904   4.544292
    26  C    3.623798   6.396234   4.448464   4.322476   5.809217
    27  H    3.862148   6.645427   4.789427   4.725049   6.135541
    28  H    4.536797   7.271482   5.177153   4.860697   6.560064
    29  H    3.800005   6.458077   4.782115   4.839635   6.045286
    30  C    3.386339   5.555050   3.362156   2.796688   4.594347
    31  H    4.386478   6.316188   4.165219   3.458361   5.273482
    32  H    2.921871   4.979210   3.078806   2.840894   4.207440
                   16         17         18         19         20
    16  H    0.000000
    17  O    4.564406   0.000000
    18  Cl   2.803000   5.887604   0.000000
    19  C    5.074288   1.437781   6.858622   0.000000
    20  C    5.115086   2.445507   7.283495   1.510253   0.000000
    21  H    5.706958   3.404601   8.060872   2.190146   1.086819
    22  C    4.909451   2.455077   6.756560   1.527832   2.513027
    23  H    5.783340   3.372949   7.771252   2.148492   2.797470
    24  H    4.049018   2.858600   6.104703   2.197364   2.763025
    25  H    5.204694   2.636149   6.651146   2.158501   3.453272
    26  C    6.557005   2.325622   8.131629   1.528133   2.464299
    27  H    6.927277   2.516527   8.388243   2.159697   2.734680
    28  H    7.203205   3.295979   8.989856   2.166020   2.670727
    29  H    6.870342   2.610191   8.164823   2.163530   3.421196
    30  C    5.001791   2.850701   7.119701   2.525439   1.321726
    31  H    5.507807   3.932577   7.774071   3.504339   2.095949
    32  H    4.746841   2.547360   6.539893   2.797527   2.104556
                   21         22         23         24         25
    21  H    0.000000
    22  C    2.710702   0.000000
    23  H    2.573452   1.090820   0.000000
    24  H    2.933888   1.087965   1.761118   0.000000
    25  H    3.752300   1.091134   1.767004   1.768040   0.000000
    26  C    2.876864   2.493851   2.666004   3.466237   2.766719
    27  H    3.305960   3.444231   3.699932   4.317347   3.726916
    28  H    2.657748   2.790289   2.515534   3.761108   3.214233
    29  H    3.833656   2.682484   2.907647   3.727138   2.505973
    30  C    2.087997   3.677682   4.094506   3.747127   4.545131
    31  H    2.420556   4.529514   4.794388   4.504495   5.478382
    32  H    3.065379   4.065299   4.690844   4.133109   4.754856
                   26         27         28         29         30
    26  C    0.000000
    27  H    1.090155   0.000000
    28  H    1.090835   1.768784   0.000000
    29  H    1.091510   1.776917   1.772135   0.000000
    30  C    3.400522   3.284205   3.735941   4.367190   0.000000
    31  H    4.282158   4.123118   4.426907   5.307880   1.083091
    32  H    3.653803   3.358717   4.243325   4.488285   1.083840
                   31         32
    31  H    0.000000
    32  H    1.850485   0.000000
 Stoichiometry    C15H15ClO
 Framework group  C1[X(C15H15ClO)]
 Deg. of freedom    90
 Full point group                 C1      NOp   1
 Largest Abelian subgroup         C1      NOp   1
 Largest concise Abelian subgroup C1      NOp   1
                         Standard orientation:                         
 ---------------------------------------------------------------------
 Center     Atomic      Atomic             Coordinates (Angstroms)
 Number     Number       Type             X           Y           Z
 ---------------------------------------------------------------------
      1          6           0        2.821680    2.486920   -0.156869
      2          6           0        3.004370    1.136570   -0.067799
      3          6           0        1.899350    0.254680   -0.039189
      4          6           0        0.590880    0.800890   -0.104909
      5          6           0        0.436500    2.202910   -0.193369
      6          6           0        1.524931    3.027680   -0.219259
      7          1           0        3.680381    3.146290   -0.178269
      8          1           0        4.003420    0.726280   -0.019189
      9          1           0       -0.563120    2.610710   -0.242489
     10          1           0        1.390421    4.099670   -0.289249
     11          6           0       -0.544680   -0.067630   -0.081879
     12          6           0        2.027200   -1.156090    0.058711
     13          6           0       -0.363610   -1.422130   -0.005209
     14          1           0       -1.205440   -2.096509   -0.020409
     15          6           0        0.932550   -1.963120    0.073751
     16          1           0        1.053579   -3.035770    0.142291
     17          8           0       -1.734610    0.563521   -0.181609
     18         17           0        3.608980   -1.884120    0.163341
     19          6           0       -2.968240    0.051311    0.350381
     20          6           0       -3.584520   -0.992979   -0.549909
     21          1           0       -4.438200   -1.504629   -0.113309
     22          6           0       -2.796860   -0.466239    1.777631
     23          1           0       -3.780880   -0.633969    2.217471
     24          1           0       -2.243620   -1.401509    1.831141
     25          1           0       -2.276460    0.278071    2.382411
     26          6           0       -3.880280    1.277381    0.361551
     27          1           0       -3.923770    1.719271   -0.634079
     28          1           0       -4.892020    0.997791    0.658421
     29          1           0       -3.504080    2.021531    1.065901
     30          6           0       -3.211100   -1.272339   -1.786629
     31          1           0       -3.738300   -2.014269   -2.373729
     32          1           0       -2.366710   -0.777979   -2.252809
 ---------------------------------------------------------------------
 Rotational constants (GHZ):      0.7082432      0.2855070      0.2238552
 Standard basis: def2TZVP (5D, 7F)
 There are   708 symmetry adapted cartesian basis functions of A   symmetry.
 There are   623 symmetry adapted basis functions of A   symmetry.
   623 basis functions,  1005 primitive gaussians,   708 cartesian basis functions
    65 alpha electrons       65 beta electrons
       nuclear repulsion energy      1277.5340697006 Hartrees.
 NAtoms=   32 NActive=   32 NUniq=   32 SFac= 1.00D+00 NAtFMM=   60 NAOKFM=F Big=F
 Integral buffers will be    131072 words long.
 Raffenetti 2 integral format.
 Two-electron integral symmetry is turned on.
 Nuclear repulsion after empirical dispersion term =     1277.5099069629 Hartrees.
 Force inversion solution in PCM.
 ------------------------------------------------------------------------------
 Polarizable Continuum Model (PCM)
 =================================
 Model                : PCM (using non-symmetric T matrix).
 Atomic radii         : SMD-Coulomb.
 Polarization charges : Total charges.
 Charge compensation  : None.
 Solution method      : Matrix inversion.
 Cavity type          : VdW (van der Waals Surface) (Alpha=1.000).
 Cavity algorithm     : GePol (No added spheres)
                        Default sphere list used, NSphG=   32.
                        Lebedev-Laikov grids with approx.  5.0 points / Ang**2.
                        Smoothing algorithm: Karplus/York (Gamma=1.0000).
                        Polarization charges: spherical gaussians, with
                                              point-specific exponents (IZeta= 3).
                        Self-potential: point-specific (ISelfS= 7).
                        Self-field    : sphere-specific E.n sum rule (ISelfD= 2).
 1st derivatives      : Analytical E(r).r(x)/FMM algorithm (CHGder, D1EAlg=3).
                        Cavity 1st derivative terms included.
 2nd derivatives      : Analytical E(r).r(xy)/FMM algorithm (CHGder, D2EAlg=3).
                        Cavity 2nd derivative terms included.
 Solvent              : Toluene, Eps=   2.374100 Eps(inf)=   2.238315
 ------------------------------------------------------------------------------
 ------------------------------------------------------------------------------
 Atomic radii for non-electrostatic terms: SMD-CDS.
 ------------------------------------------------------------------------------
 Nuclear repulsion after PCM non-electrostatic terms =     1277.4994114738 Hartrees.
 One-electron integrals computed using PRISM.
   1 Symmetry operations used in ECPInt.
 ECPInt:  NShTT=   31125 NPrTT=   96136 LenC2=   28384 LenP2D=   63829.
 LDataN:  DoStor=T MaxTD1= 6 Len=  172
 NBasis=   623 RedAO= T EigKep=  4.77D-06  NBF=   623
 NBsUse=   623 1.00D-06 EigRej= -1.00D+00 NBFU=   623
 ExpMin= 9.52D-02 ExpMax= 6.95D+04 ExpMxC= 2.37D+03 IAcc=2 IRadAn=         4 AccDes= 0.00D+00
 Harris functional with IExCor= 4639 and IRadAn=       4 diagonalized for initial guess.
 HarFok:  IExCor= 4639 AccDes= 0.00D+00 IRadAn=         4 IDoV= 1 UseB2=F ITyADJ=14
 ICtDFT=  3500011 ScaDFX=  1.000000  1.000000  1.000000  1.000000
 FoFCou: FMM=F IPFlag=           0 FMFlag=      100000 FMFlg1=           0
         NFxFlg=           0 DoJE=T BraDBF=F KetDBF=T FulRan=T
         wScrn=  0.000000 ICntrl=     500 IOpCl=  0 I1Cent=   200000004 NGrid=           0
         NMat0=    1 NMatS0=      1 NMatT0=    0 NMatD0=    1 NMtDS0=    0 NMtDT0=    0
 Petite list used in FoFCou.
 Requested convergence on RMS density matrix=1.00D-08 within 128 cycles.
 Requested convergence on MAX density matrix=1.00D-06.
 Requested convergence on             energy=1.00D-06.
 No special actions if energy rises.
 Inv3:  Mode=1 IEnd=    17467707.
 Iteration    1 A*A^-1 deviation from unit magnitude is 4.11D-15 for   2394.
 Iteration    1 A*A^-1 deviation from orthogonality  is 2.54D-15 for   1230     18.
 Iteration    1 A^-1*A deviation from unit magnitude is 3.66D-15 for   2394.
 Iteration    1 A^-1*A deviation from orthogonality  is 2.27D-14 for   1985   1482.
 Error on total polarization charges =  0.02875
 SCF Done:  E(RwB97XD) =  -1116.07912812     A.U. after   15 cycles
            NFock= 15  Conv=0.46D-08     -V/T= 2.0035
 SMD-CDS (non-electrostatic) energy       (kcal/mol) =      -6.59
 (included in total energy above)
 DoSCS=F DFT=T ScalE2(SS,OS)=  1.000000  1.000000
 Range of M.O.s used for correlation:     1   623
 NBasis=   623 NAE=    65 NBE=    65 NFC=     0 NFV=     0
 NROrb=    623 NOA=    65 NOB=    65 NVA=   558 NVB=   558

 **** Warning!!: The largest alpha MO coefficient is  0.69102031D+02

   1 Symmetry operations used in ECPInt.
 ECPInt:  NShTT=   31125 NPrTT=   96136 LenC2=   28384 LenP2D=   63829.
 LDataN:  DoStor=T MaxTD1= 7 Len=  274
 Number of processors reduced to   4 by ecpmxn.
 Symmetrizing basis deriv contribution to polar:
 IMax=3 JMax=2 DiffMx= 0.00D+00
 G2DrvN: will do    33 centers at a time, making    1 passes.
 Calling FoFCou, ICntrl=  3107 FMM=F I1Cent=   0 AccDes= 0.00D+00.
 NEqPCM:  Using equilibrium solvation (IEInf=0, Eps=   2.3741, EpsInf=   2.2383)
 G2PCM: DoFxE=T DoFxN=T DoGrad=T DoDP/DQ/DG/TGxP=FFFF NFrqRd=   0 IEInf=0 SqF1=F DoCFld=F IF1Alg=4.
 End of G2Drv F.D. properties file   721 does not exist.
 End of G2Drv F.D. properties file   722 does not exist.
 End of G2Drv F.D. properties file   788 does not exist.
          IDoAtm=11111111111111111111111111111111
 NEqPCM:  Using equilibrium solvation (IEInf=0, Eps=   2.3741, EpsInf=   2.2383)
          Differentiating once with respect to electric field.
                with respect to dipole field.
          Differentiating once with respect to nuclear coordinates.
          There are    99 degrees of freedom in the 1st order CPHF.  IDoFFX=6 NUNeed=     3.
     96 vectors produced by pass  0 Test12= 3.66D-14 1.01D-09 XBig12= 1.23D+02 5.49D+00.
 AX will form    96 AO Fock derivatives at one time.
     96 vectors produced by pass  1 Test12= 3.66D-14 1.01D-09 XBig12= 1.01D+01 3.75D-01.
     96 vectors produced by pass  2 Test12= 3.66D-14 1.01D-09 XBig12= 2.90D-01 1.15D-01.
     96 vectors produced by pass  3 Test12= 3.66D-14 1.01D-09 XBig12= 3.76D-03 1.02D-02.
     96 vectors produced by pass  4 Test12= 3.66D-14 1.01D-09 XBig12= 3.48D-05 6.18D-04.
     96 vectors produced by pass  5 Test12= 3.66D-14 1.01D-09 XBig12= 3.56D-07 6.41D-05.
     94 vectors produced by pass  6 Test12= 3.66D-14 1.01D-09 XBig12= 2.86D-09 4.25D-06.
     42 vectors produced by pass  7 Test12= 3.66D-14 1.01D-09 XBig12= 2.06D-11 3.38D-07.
      3 vectors produced by pass  8 Test12= 3.66D-14 1.01D-09 XBig12= 1.77D-13 2.90D-08.
      3 vectors produced by pass  9 Test12= 3.66D-14 1.01D-09 XBig12= 1.00D-14 9.76D-09.
      1 vectors produced by pass 10 Test12= 3.66D-14 1.01D-09 XBig12= 3.85D-16 1.70D-09.
 InvSVY:  IOpt=1 It=  1 EMax= 1.60D-14
 Solved reduced A of dimension   719 with    99 vectors.
 Isotropic polarizability for W=    0.000000      226.59 Bohr**3.
 End of Minotr F.D. properties file   721 does not exist.
 End of Minotr F.D. properties file   722 does not exist.
 End of Minotr F.D. properties file   788 does not exist.

 **********************************************************************

            Population analysis using the SCF density.

 **********************************************************************

 Orbital symmetries:
       Occupied  (A) (A) (A) (A) (A) (A) (A) (A) (A) (A) (A) (A)
                 (A) (A) (A) (A) (A) (A) (A) (A) (A) (A) (A) (A)
                 (A) (A) (A) (A) (A) (A) (A) (A) (A) (A) (A) (A)
                 (A) (A) (A) (A) (A) (A) (A) (A) (A) (A) (A) (A)
                 (A) (A) (A) (A) (A) (A) (A) (A) (A) (A) (A) (A)
                 (A) (A) (A) (A) (A)
       Virtual   (A) (A) (A) (A) (A) (A) (A) (A) (A) (A) (A) (A)
                 (A) (A) (A) (A) (A) (A) (A) (A) (A) (A) (A) (A)
                 (A) (A) (A) (A) (A) (A) (A) (A) (A) (A) (A) (A)
                 (A) (A) (A) (A) (A) (A) (A) (A) (A) (A) (A) (A)
                 (A) (A) (A) (A) (A) (A) (A) (A) (A) (A) (A) (A)
                 (A) (A) (A) (A) (A) (A) (A) (A) (A) (A) (A) (A)
                 (A) (A) (A) (A) (A) (A) (A) (A) (A) (A) (A) (A)
                 (A) (A) (A) (A) (A) (A) (A) (A) (A) (A) (A) (A)
                 (A) (A) (A) (A) (A) (A) (A) (A) (A) (A) (A) (A)
                 (A) (A) (A) (A) (A) (A) (A) (A) (A) (A) (A) (A)
                 (A) (A) (A) (A) (A) (A) (A) (A) (A) (A) (A) (A)
                 (A) (A) (A) (A) (A) (A) (A) (A) (A) (A) (A) (A)
                 (A) (A) (A) (A) (A) (A) (A) (A) (A) (A) (A) (A)
                 (A) (A) (A) (A) (A) (A) (A) (A) (A) (A) (A) (A)
                 (A) (A) (A) (A) (A) (A) (A) (A) (A) (A) (A) (A)
                 (A) (A) (A) (A) (A) (A) (A) (A) (A) (A) (A) (A)
                 (A) (A) (A) (A) (A) (A) (A) (A) (A) (A) (A) (A)
                 (A) (A) (A) (A) (A) (A) (A) (A) (A) (A) (A) (A)
                 (A) (A) (A) (A) (A) (A) (A) (A) (A) (A) (A) (A)
                 (A) (A) (A) (A) (A) (A) (A) (A) (A) (A) (A) (A)
                 (A) (A) (A) (A) (A) (A) (A) (A) (A) (A) (A) (A)
                 (A) (A) (A) (A) (A) (A) (A) (A) (A) (A) (A) (A)
                 (A) (A) (A) (A) (A) (A) (A) (A) (A) (A) (A) (A)
                 (A) (A) (A) (A) (A) (A) (A) (A) (A) (A) (A) (A)
                 (A) (A) (A) (A) (A) (A) (A) (A) (A) (A) (A) (A)
                 (A) (A) (A) (A) (A) (A) (A) (A) (A) (A) (A) (A)
                 (A) (A) (A) (A) (A) (A) (A) (A) (A) (A) (A) (A)
                 (A) (A) (A) (A) (A) (A) (A) (A) (A) (A) (A) (A)
                 (A) (A) (A) (A) (A) (A) (A) (A) (A) (A) (A) (A)
                 (A) (A) (A) (A) (A) (A) (A) (A) (A) (A) (A) (A)
                 (A) (A) (A) (A) (A) (A) (A) (A) (A) (A) (A) (A)
                 (A) (A) (A) (A) (A) (A) (A) (A) (A) (A) (A) (A)
                 (A) (A) (A) (A) (A) (A) (A) (A) (A) (A) (A) (A)
                 (A) (A) (A) (A) (A) (A) (A) (A) (A) (A) (A) (A)
                 (A) (A) (A) (A) (A) (A) (A) (A) (A) (A) (A) (A)
                 (A) (A) (A) (A) (A) (A) (A) (A) (A) (A) (A) (A)
                 (A) (A) (A) (A) (A) (A) (A) (A) (A) (A) (A) (A)
                 (A) (A) (A) (A) (A) (A) (A) (A) (A) (A) (A) (A)
                 (A) (A) (A) (A) (A) (A) (A) (A) (A) (A) (A) (A)
                 (A) (A) (A) (A) (A) (A) (A) (A) (A) (A) (A) (A)
                 (A) (A) (A) (A) (A) (A) (A) (A) (A) (A) (A) (A)
                 (A) (A) (A) (A) (A) (A) (A) (A) (A) (A) (A) (A)
                 (A) (A) (A) (A) (A) (A) (A) (A) (A) (A) (A) (A)
                 (A) (A) (A) (A) (A) (A) (A) (A) (A) (A) (A) (A)
                 (A) (A) (A) (A) (A) (A) (A) (A) (A) (A) (A) (A)
                 (A) (A) (A) (A) (A) (A) (A) (A) (A) (A) (A) (A)
                 (A) (A) (A) (A) (A) (A)
 The electronic state is 1-A.
 Alpha  occ. eigenvalues -- -101.69341 -19.27841 -10.36067 -10.35343 -10.34151
 Alpha  occ. eigenvalues --  -10.30791 -10.30172 -10.29580 -10.28949 -10.28877
 Alpha  occ. eigenvalues --  -10.28793 -10.28769 -10.28680 -10.28531 -10.27739
 Alpha  occ. eigenvalues --  -10.27633 -10.27458  -9.57899  -7.32532  -7.31683
 Alpha  occ. eigenvalues --   -7.31664  -1.17339  -0.99986  -0.95681  -0.93334
 Alpha  occ. eigenvalues --   -0.91173  -0.86084  -0.85034  -0.84933  -0.81348
 Alpha  occ. eigenvalues --   -0.79102  -0.73474  -0.72347  -0.71089  -0.69038
 Alpha  occ. eigenvalues --   -0.64873  -0.61468  -0.60372  -0.59030  -0.57712
 Alpha  occ. eigenvalues --   -0.56422  -0.55286  -0.53266  -0.52348  -0.51866
 Alpha  occ. eigenvalues --   -0.51572  -0.50365  -0.50025  -0.48826  -0.48022
 Alpha  occ. eigenvalues --   -0.47160  -0.46573  -0.45866  -0.45224  -0.44219
 Alpha  occ. eigenvalues --   -0.43381  -0.42625  -0.42265  -0.39931  -0.39304
 Alpha  occ. eigenvalues --   -0.38223  -0.34810  -0.34649  -0.32733  -0.27848
 Alpha virt. eigenvalues --    0.01775   0.04190   0.07303   0.09628   0.11044
 Alpha virt. eigenvalues --    0.11342   0.13864   0.14474   0.14955   0.15601
 Alpha virt. eigenvalues --    0.16076   0.16663   0.17030   0.17788   0.18074
 Alpha virt. eigenvalues --    0.19407   0.19990   0.20517   0.20853   0.21023
 Alpha virt. eigenvalues --    0.21940   0.22469   0.23001   0.23364   0.23552
 Alpha virt. eigenvalues --    0.24651   0.25734   0.26058   0.26931   0.27395
 Alpha virt. eigenvalues --    0.27862   0.27954   0.29027   0.29790   0.30328
 Alpha virt. eigenvalues --    0.31201   0.31971   0.32215   0.32595   0.32751
 Alpha virt. eigenvalues --    0.33169   0.33889   0.34401   0.35179   0.35954
 Alpha virt. eigenvalues --    0.36153   0.36616   0.37495   0.37898   0.39389
 Alpha virt. eigenvalues --    0.39665   0.40290   0.41442   0.41518   0.41797
 Alpha virt. eigenvalues --    0.42472   0.42833   0.43929   0.44321   0.44802
 Alpha virt. eigenvalues --    0.45278   0.45370   0.45617   0.46619   0.46786
 Alpha virt. eigenvalues --    0.46961   0.47388   0.47902   0.48486   0.48876
 Alpha virt. eigenvalues --    0.49660   0.49924   0.50685   0.51213   0.51329
 Alpha virt. eigenvalues --    0.52088   0.52670   0.53067   0.53397   0.53649
 Alpha virt. eigenvalues --    0.53903   0.54977   0.55233   0.55749   0.56394
 Alpha virt. eigenvalues --    0.56478   0.57068   0.58136   0.59308   0.59810
 Alpha virt. eigenvalues --    0.60737   0.61139   0.61976   0.62295   0.64308
 Alpha virt. eigenvalues --    0.64688   0.65430   0.66102   0.66738   0.67076
 Alpha virt. eigenvalues --    0.67699   0.67965   0.68658   0.69700   0.70931
 Alpha virt. eigenvalues --    0.71675   0.72688   0.73521   0.73983   0.75215
 Alpha virt. eigenvalues --    0.76135   0.77179   0.77925   0.78508   0.79141
 Alpha virt. eigenvalues --    0.79526   0.80468   0.81869   0.82549   0.82806
 Alpha virt. eigenvalues --    0.83366   0.84025   0.84529   0.86103   0.87087
 Alpha virt. eigenvalues --    0.87911   0.88788   0.89645   0.89900   0.90420
 Alpha virt. eigenvalues --    0.91817   0.92671   0.93380   0.94609   0.95191
 Alpha virt. eigenvalues --    0.96171   0.96524   0.97335   0.98746   0.99623
 Alpha virt. eigenvalues --    0.99829   1.00981   1.01220   1.02236   1.03110
 Alpha virt. eigenvalues --    1.05119   1.05388   1.05870   1.08054   1.08456
 Alpha virt. eigenvalues --    1.09408   1.10323   1.11553   1.12099   1.13723
 Alpha virt. eigenvalues --    1.13923   1.15061   1.16576   1.18409   1.20012
 Alpha virt. eigenvalues --    1.20790   1.21605   1.22176   1.23133   1.23755
 Alpha virt. eigenvalues --    1.25246   1.26062   1.27655   1.28160   1.29080
 Alpha virt. eigenvalues --    1.29410   1.30112   1.30519   1.31861   1.33303
 Alpha virt. eigenvalues --    1.34480   1.35307   1.36466   1.36879   1.37246
 Alpha virt. eigenvalues --    1.38107   1.40199   1.40776   1.41570   1.44176
 Alpha virt. eigenvalues --    1.44508   1.45131   1.46249   1.48729   1.49063
 Alpha virt. eigenvalues --    1.50541   1.51410   1.52348   1.53817   1.56105
 Alpha virt. eigenvalues --    1.56225   1.57814   1.58633   1.59400   1.59691
 Alpha virt. eigenvalues --    1.60295   1.61527   1.62685   1.63056   1.63512
 Alpha virt. eigenvalues --    1.64487   1.66213   1.66962   1.67825   1.68341
 Alpha virt. eigenvalues --    1.69415   1.70391   1.70916   1.71171   1.71542
 Alpha virt. eigenvalues --    1.73633   1.73979   1.74860   1.75515   1.76571
 Alpha virt. eigenvalues --    1.76941   1.77469   1.78393   1.78979   1.79279
 Alpha virt. eigenvalues --    1.80249   1.80409   1.81877   1.83365   1.83973
 Alpha virt. eigenvalues --    1.86229   1.86841   1.87882   1.88960   1.90177
 Alpha virt. eigenvalues --    1.91598   1.92411   1.93097   1.94684   1.94913
 Alpha virt. eigenvalues --    1.95669   1.96310   1.97320   1.99627   1.99898
 Alpha virt. eigenvalues --    2.01658   2.02098   2.04072   2.04617   2.04692
 Alpha virt. eigenvalues --    2.06039   2.07952   2.09126   2.09965   2.10532
 Alpha virt. eigenvalues --    2.12574   2.13342   2.15944   2.16571   2.17149
 Alpha virt. eigenvalues --    2.18063   2.18908   2.21419   2.21765   2.23010
 Alpha virt. eigenvalues --    2.24036   2.24680   2.25231   2.26223   2.26805
 Alpha virt. eigenvalues --    2.27304   2.28351   2.29318   2.29679   2.31653
 Alpha virt. eigenvalues --    2.31826   2.32961   2.33411   2.34423   2.34908
 Alpha virt. eigenvalues --    2.35678   2.37122   2.38144   2.39136   2.40459
 Alpha virt. eigenvalues --    2.40809   2.41530   2.42533   2.43790   2.45693
 Alpha virt. eigenvalues --    2.46132   2.46596   2.47739   2.48741   2.49422
 Alpha virt. eigenvalues --    2.51880   2.52955   2.54836   2.55432   2.55948
 Alpha virt. eigenvalues --    2.56307   2.59763   2.60671   2.61385   2.61660
 Alpha virt. eigenvalues --    2.62424   2.64476   2.65293   2.66256   2.66611
 Alpha virt. eigenvalues --    2.68038   2.68518   2.69313   2.70214   2.71011
 Alpha virt. eigenvalues --    2.71459   2.72347   2.72711   2.74428   2.74971
 Alpha virt. eigenvalues --    2.76109   2.76964   2.78310   2.79248   2.79934
 Alpha virt. eigenvalues --    2.80428   2.81652   2.82954   2.83806   2.84278
 Alpha virt. eigenvalues --    2.85332   2.87469   2.87505   2.88158   2.88900
 Alpha virt. eigenvalues --    2.89947   2.90570   2.90830   2.91986   2.92659
 Alpha virt. eigenvalues --    2.92798   2.94361   2.96420   2.97454   2.98459
 Alpha virt. eigenvalues --    2.99252   3.01122   3.01402   3.01891   3.02703
 Alpha virt. eigenvalues --    3.03075   3.03152   3.03919   3.04569   3.06093
 Alpha virt. eigenvalues --    3.06568   3.07850   3.09049   3.10014   3.10723
 Alpha virt. eigenvalues --    3.11851   3.12323   3.12661   3.13896   3.14576
 Alpha virt. eigenvalues --    3.15452   3.16365   3.18989   3.19493   3.20216
 Alpha virt. eigenvalues --    3.21023   3.21924   3.22988   3.23954   3.24320
 Alpha virt. eigenvalues --    3.25404   3.25894   3.26799   3.27113   3.29223
 Alpha virt. eigenvalues --    3.30181   3.30401   3.30926   3.31421   3.32677
 Alpha virt. eigenvalues --    3.33818   3.34370   3.34850   3.35257   3.35833
 Alpha virt. eigenvalues --    3.36823   3.38551   3.38702   3.39272   3.40355
 Alpha virt. eigenvalues --    3.41158   3.41861   3.42321   3.43956   3.44666
 Alpha virt. eigenvalues --    3.45177   3.45306   3.45895   3.46825   3.48078
 Alpha virt. eigenvalues --    3.48597   3.49067   3.50149   3.50686   3.51504
 Alpha virt. eigenvalues --    3.53883   3.55275   3.55681   3.55902   3.56707
 Alpha virt. eigenvalues --    3.58450   3.58750   3.59411   3.59920   3.60453
 Alpha virt. eigenvalues --    3.61586   3.63443   3.63872   3.64966   3.65411
 Alpha virt. eigenvalues --    3.66098   3.68067   3.68869   3.70647   3.71957
 Alpha virt. eigenvalues --    3.72868   3.73487   3.74114   3.74427   3.77023
 Alpha virt. eigenvalues --    3.77630   3.80330   3.81393   3.82601   3.84868
 Alpha virt. eigenvalues --    3.85780   3.89280   3.91771   3.94656   3.95603
 Alpha virt. eigenvalues --    3.98271   3.99640   4.00214   4.02031   4.03813
 Alpha virt. eigenvalues --    4.04469   4.06015   4.07310   4.09737   4.11197
 Alpha virt. eigenvalues --    4.11944   4.12394   4.14599   4.15247   4.16792
 Alpha virt. eigenvalues --    4.18117   4.18719   4.20510   4.22321   4.22979
 Alpha virt. eigenvalues --    4.26050   4.26496   4.26868   4.27345   4.27551
 Alpha virt. eigenvalues --    4.31402   4.31821   4.34505   4.35363   4.36407
 Alpha virt. eigenvalues --    4.37821   4.37909   4.40072   4.42061   4.43110
 Alpha virt. eigenvalues --    4.45605   4.46029   4.47302   4.49921   4.51594
 Alpha virt. eigenvalues --    4.53733   4.55572   4.56584   4.57293   4.59491
 Alpha virt. eigenvalues --    4.60618   4.63328   4.66840   4.68207   4.71288
 Alpha virt. eigenvalues --    4.74701   4.78104   4.80554   4.82362   4.83680
 Alpha virt. eigenvalues --    4.85228   4.86165   4.87566   4.89665   4.89883
 Alpha virt. eigenvalues --    4.91882   4.94173   5.02372   5.02691   5.05920
 Alpha virt. eigenvalues --    5.06579   5.12005   5.15661   5.18963   5.22730
 Alpha virt. eigenvalues --    5.23864   5.27379   5.31623   5.34463   5.36127
 Alpha virt. eigenvalues --    5.44135   5.48631   5.50684   5.55553   5.71725
 Alpha virt. eigenvalues --    5.72615   5.82062   5.89188   6.01767   6.18667
 Alpha virt. eigenvalues --    6.19286   6.50946   6.73404   6.83969   6.98272
 Alpha virt. eigenvalues --    7.15754   7.45701   7.63930  10.84505  10.95635
 Alpha virt. eigenvalues --   11.49363  22.11754  22.36864  22.53265  22.56912
 Alpha virt. eigenvalues --   22.69975  22.77651  22.82529  22.84499  22.89377
 Alpha virt. eigenvalues --   22.91139  22.98914  23.08375  23.13589  23.31642
 Alpha virt. eigenvalues --   23.82891  26.09291  44.75406
          Condensed to atoms (all electrons):
               1          2          3          4          5          6
     1  C    4.975841   0.418147   0.045931  -0.096673   0.066843   0.351407
     2  C    0.418147   5.308994   0.293127  -0.001199  -0.159541   0.058558
     3  C    0.045931   0.293127   5.433781   0.183664  -0.004176  -0.082221
     4  C   -0.096673  -0.001199   0.183664   5.352938   0.318189   0.015045
     5  C    0.066843  -0.159541  -0.004176   0.318189   5.343460   0.424115
     6  C    0.351407   0.058558  -0.082221   0.015045   0.424115   4.970121
     7  H    0.454237  -0.058388   0.013439  -0.003273   0.012827  -0.060929
     8  H   -0.039585   0.452946  -0.066163   0.015488  -0.004508   0.009974
     9  H    0.010501  -0.004482   0.013005  -0.045998   0.447110  -0.050330
    10  H   -0.061997   0.013549  -0.003379   0.013913  -0.064565   0.460952
    11  C   -0.014098   0.048757   0.044047   0.286696  -0.225889   0.016767
    12  C    0.018574  -0.205348   0.234968   0.068298   0.039189  -0.010766
    13  C    0.001901  -0.018687  -0.216842   0.123899   0.045075  -0.002427
    14  H   -0.000007   0.000122  -0.002984   0.003226  -0.000062   0.000006
    15  C   -0.001221   0.032479   0.164622  -0.182842  -0.015174   0.001691
    16  H    0.000018  -0.000038   0.022143  -0.005737   0.000127   0.000000
    17  O    0.000515  -0.000597   0.000792  -0.126489   0.045417   0.000602
    18  Cl  -0.000996   0.020492  -0.134299   0.018302  -0.001030   0.000648
    19  C   -0.000030   0.000044   0.000054  -0.011394  -0.002835   0.000057
    20  C   -0.000005   0.000009   0.001213   0.005596  -0.000824   0.000024
    21  H    0.000000   0.000000   0.000009   0.000185  -0.000035   0.000000
    22  C    0.000034  -0.000033   0.000431  -0.002553  -0.000406  -0.000168
    23  H    0.000000   0.000001  -0.000024   0.000035  -0.000003   0.000001
    24  H   -0.000003   0.000014   0.000722  -0.002314  -0.000302   0.000016
    25  H    0.000007  -0.000032   0.000426   0.000989   0.000675   0.000014
    26  C   -0.000014   0.000008   0.000265   0.003863  -0.001264  -0.000034
    27  H    0.000002  -0.000001  -0.000037  -0.000402   0.000159  -0.000018
    28  H    0.000000   0.000000  -0.000011  -0.000176   0.000090   0.000002
    29  H   -0.000003   0.000000   0.000037   0.000089   0.000104   0.000061
    30  C    0.000002  -0.000005  -0.000382   0.000355   0.000596   0.000009
    31  H    0.000000   0.000000  -0.000004  -0.000037   0.000003   0.000000
    32  H   -0.000001  -0.000001   0.000054   0.000364   0.000028   0.000007
               7          8          9         10         11         12
     1  C    0.454237  -0.039585   0.010501  -0.061997  -0.014098   0.018574
     2  C   -0.058388   0.452946  -0.004482   0.013549   0.048757  -0.205348
     3  C    0.013439  -0.066163   0.013005  -0.003379   0.044047   0.234968
     4  C   -0.003273   0.015488  -0.045998   0.013913   0.286696   0.068298
     5  C    0.012827  -0.004508   0.447110  -0.064565  -0.225889   0.039189
     6  C   -0.060929   0.009974  -0.050330   0.460952   0.016767  -0.010766
     7  H    0.516381  -0.006671  -0.000067  -0.006902   0.000076  -0.000131
     8  H   -0.006671   0.504672   0.000014  -0.000087   0.001166  -0.025658
     9  H   -0.000067   0.000014   0.489014  -0.006727  -0.021884   0.000465
    10  H   -0.006902  -0.000087  -0.006727   0.518444  -0.000307   0.000094
    11  C    0.000076   0.001166  -0.021884  -0.000307   5.224927  -0.193927
    12  C   -0.000131  -0.025658   0.000465   0.000094  -0.193927   5.339213
    13  C    0.000020  -0.000581   0.000744  -0.000020   0.218369   0.145253
    14  H    0.000000   0.000003  -0.000014   0.000000  -0.079845   0.011298
    15  C   -0.000019   0.001251  -0.000383   0.000004   0.110388   0.277398
    16  H    0.000000   0.000010   0.000002   0.000000   0.017114  -0.086373
    17  O    0.000001   0.000006   0.015563  -0.000094   0.344298  -0.000553
    18  Cl  -0.000127   0.020563   0.000002   0.000001  -0.004388   0.312823
    19  C    0.000000   0.000001  -0.001493   0.000005  -0.081080   0.000102
    20  C    0.000000   0.000000   0.000018   0.000001   0.043359  -0.000795
    21  H    0.000000   0.000000  -0.000009   0.000000   0.001312  -0.000003
    22  C    0.000000  -0.000001  -0.000088  -0.000002  -0.009901  -0.000580
    23  H    0.000000   0.000000  -0.000006   0.000000   0.002124   0.000017
    24  H    0.000000   0.000000  -0.000027   0.000000  -0.004450  -0.000568
    25  H    0.000000   0.000000   0.000223   0.000000   0.000586  -0.000008
    26  C    0.000000   0.000000  -0.000713   0.000007  -0.000324  -0.000040
    27  H    0.000000   0.000000   0.000001  -0.000001   0.000520   0.000006
    28  H    0.000000   0.000000   0.000120   0.000000   0.000516   0.000002
    29  H    0.000000   0.000000  -0.000119   0.000001  -0.002381  -0.000001
    30  C    0.000000   0.000000   0.000067   0.000000  -0.004152   0.000128
    31  H    0.000000   0.000000   0.000001   0.000000  -0.000467   0.000008
    32  H    0.000000   0.000000  -0.000018   0.000000  -0.000725   0.000015
              13         14         15         16         17         18
     1  C    0.001901  -0.000007  -0.001221   0.000018   0.000515  -0.000996
     2  C   -0.018687   0.000122   0.032479  -0.000038  -0.000597   0.020492
     3  C   -0.216842  -0.002984   0.164622   0.022143   0.000792  -0.134299
     4  C    0.123899   0.003226  -0.182842  -0.005737  -0.126489   0.018302
     5  C    0.045075  -0.000062  -0.015174   0.000127   0.045417  -0.001030
     6  C   -0.002427   0.000006   0.001691   0.000000   0.000602   0.000648
     7  H    0.000020   0.000000  -0.000019   0.000000   0.000001  -0.000127
     8  H   -0.000581   0.000003   0.001251   0.000010   0.000006   0.020563
     9  H    0.000744  -0.000014  -0.000383   0.000002   0.015563   0.000002
    10  H   -0.000020   0.000000   0.000004   0.000000  -0.000094   0.000001
    11  C    0.218369  -0.079845   0.110388   0.017114   0.344298  -0.004388
    12  C    0.145253   0.011298   0.277398  -0.086373  -0.000553   0.312823
    13  C    5.382443   0.457526   0.236417  -0.049501  -0.089382   0.018310
    14  H    0.457526   0.477407  -0.026972  -0.006398  -0.003053  -0.000288
    15  C    0.236417  -0.026972   5.219698   0.452909   0.004997  -0.035748
    16  H   -0.049501  -0.006398   0.452909   0.509521  -0.000134   0.002732
    17  O   -0.089382  -0.003053   0.004997  -0.000134   8.011271   0.000003
    18  Cl   0.018310  -0.000288  -0.035748   0.002732   0.000003  16.894715
    19  C    0.037185   0.014635  -0.003147   0.000076   0.277929  -0.000012
    20  C   -0.037763  -0.012349   0.002215   0.000112  -0.087216   0.000002
    21  H   -0.001104   0.000063  -0.000049  -0.000001   0.003441   0.000000
    22  C    0.008103  -0.005761   0.004411  -0.000074  -0.059979   0.000008
    23  H    0.000016   0.000319  -0.000123  -0.000001   0.004053   0.000000
    24  H   -0.006520  -0.002846   0.003779   0.000050   0.001190  -0.000001
    25  H   -0.005420  -0.000183   0.000194   0.000010   0.002835  -0.000001
    26  C   -0.001433   0.000185   0.000123   0.000001  -0.055901   0.000000
    27  H    0.000091   0.000022  -0.000026   0.000000   0.001476   0.000000
    28  H    0.000212   0.000062  -0.000010   0.000000   0.004972   0.000000
    29  H   -0.000157  -0.000041   0.000006   0.000000   0.000197   0.000000
    30  C   -0.008900  -0.000199   0.000931   0.000075   0.021462   0.000000
    31  H    0.000161   0.000153  -0.000040  -0.000001   0.000458   0.000000
    32  H   -0.002031  -0.000784   0.000590  -0.000006   0.005321   0.000000
              19         20         21         22         23         24
     1  C   -0.000030  -0.000005   0.000000   0.000034   0.000000  -0.000003
     2  C    0.000044   0.000009   0.000000  -0.000033   0.000001   0.000014
     3  C    0.000054   0.001213   0.000009   0.000431  -0.000024   0.000722
     4  C   -0.011394   0.005596   0.000185  -0.002553   0.000035  -0.002314
     5  C   -0.002835  -0.000824  -0.000035  -0.000406  -0.000003  -0.000302
     6  C    0.000057   0.000024   0.000000  -0.000168   0.000001   0.000016
     7  H    0.000000   0.000000   0.000000   0.000000   0.000000   0.000000
     8  H    0.000001   0.000000   0.000000  -0.000001   0.000000   0.000000
     9  H   -0.001493   0.000018  -0.000009  -0.000088  -0.000006  -0.000027
    10  H    0.000005   0.000001   0.000000  -0.000002   0.000000   0.000000
    11  C   -0.081080   0.043359   0.001312  -0.009901   0.002124  -0.004450
    12  C    0.000102  -0.000795  -0.000003  -0.000580   0.000017  -0.000568
    13  C    0.037185  -0.037763  -0.001104   0.008103   0.000016  -0.006520
    14  H    0.014635  -0.012349   0.000063  -0.005761   0.000319  -0.002846
    15  C   -0.003147   0.002215  -0.000049   0.004411  -0.000123   0.003779
    16  H    0.000076   0.000112  -0.000001  -0.000074  -0.000001   0.000050
    17  O    0.277929  -0.087216   0.003441  -0.059979   0.004053   0.001190
    18  Cl  -0.000012   0.000002   0.000000   0.000008   0.000000  -0.000001
    19  C    4.903506   0.208987  -0.036725   0.336877  -0.013350  -0.030962
    20  C    0.208987   5.452086   0.410936  -0.097988  -0.006231  -0.003271
    21  H   -0.036725   0.410936   0.505010  -0.002310   0.002215  -0.000192
    22  C    0.336877  -0.097988  -0.002310   5.069631   0.394808   0.413745
    23  H   -0.013350  -0.006231   0.002215   0.394808   0.520733  -0.020010
    24  H   -0.030962  -0.003271  -0.000192   0.413745  -0.020010   0.513733
    25  H   -0.043785   0.015967  -0.000099   0.412092  -0.016178  -0.017795
    26  C    0.303643  -0.071045  -0.002411  -0.049399  -0.011556   0.009222
    27  H   -0.038547  -0.010616   0.000583   0.011451   0.000023  -0.000329
    28  H   -0.018566  -0.011458  -0.000645  -0.011279   0.001814  -0.000048
    29  H   -0.039837   0.015324  -0.000204  -0.005987  -0.000146   0.000016
    30  C   -0.028484   0.524848  -0.023524   0.010545  -0.001040   0.000072
    31  H    0.006619  -0.050058  -0.006848  -0.000249  -0.000018  -0.000023
    32  H   -0.005996  -0.044548   0.003830   0.000730  -0.000039   0.000048
              25         26         27         28         29         30
     1  C    0.000007  -0.000014   0.000002   0.000000  -0.000003   0.000002
     2  C   -0.000032   0.000008  -0.000001   0.000000   0.000000  -0.000005
     3  C    0.000426   0.000265  -0.000037  -0.000011   0.000037  -0.000382
     4  C    0.000989   0.003863  -0.000402  -0.000176   0.000089   0.000355
     5  C    0.000675  -0.001264   0.000159   0.000090   0.000104   0.000596
     6  C    0.000014  -0.000034  -0.000018   0.000002   0.000061   0.000009
     7  H    0.000000   0.000000   0.000000   0.000000   0.000000   0.000000
     8  H    0.000000   0.000000   0.000000   0.000000   0.000000   0.000000
     9  H    0.000223  -0.000713   0.000001   0.000120  -0.000119   0.000067
    10  H    0.000000   0.000007  -0.000001   0.000000   0.000001   0.000000
    11  C    0.000586  -0.000324   0.000520   0.000516  -0.002381  -0.004152
    12  C   -0.000008  -0.000040   0.000006   0.000002  -0.000001   0.000128
    13  C   -0.005420  -0.001433   0.000091   0.000212  -0.000157  -0.008900
    14  H   -0.000183   0.000185   0.000022   0.000062  -0.000041  -0.000199
    15  C    0.000194   0.000123  -0.000026  -0.000010   0.000006   0.000931
    16  H    0.000010   0.000001   0.000000   0.000000   0.000000   0.000075
    17  O    0.002835  -0.055901   0.001476   0.004972   0.000197   0.021462
    18  Cl  -0.000001   0.000000   0.000000   0.000000   0.000000   0.000000
    19  C   -0.043785   0.303643  -0.038547  -0.018566  -0.039837  -0.028484
    20  C    0.015967  -0.071045  -0.010616  -0.011458   0.015324   0.524848
    21  H   -0.000099  -0.002411   0.000583  -0.000645  -0.000204  -0.023524
    22  C    0.412092  -0.049399   0.011451  -0.011279  -0.005987   0.010545
    23  H   -0.016178  -0.011556   0.000023   0.001814  -0.000146  -0.001040
    24  H   -0.017795   0.009222  -0.000329  -0.000048   0.000016   0.000072
    25  H    0.509242  -0.009320  -0.000255   0.000592   0.002131  -0.000410
    26  C   -0.009320   5.028881   0.415256   0.411497   0.408415  -0.007280
    27  H   -0.000255   0.415256   0.514583  -0.018191  -0.019866   0.003444
    28  H    0.000592   0.411497  -0.018191   0.527263  -0.021783   0.001468
    29  H    0.002131   0.408415  -0.019866  -0.021783   0.531439  -0.000230
    30  C   -0.000410  -0.007280   0.003444   0.001468  -0.000230   4.957628
    31  H    0.000005  -0.000217  -0.000036  -0.000002   0.000016   0.426983
    32  H   -0.000004  -0.000937   0.000336  -0.000072  -0.000010   0.421423
              31         32
     1  C    0.000000  -0.000001
     2  C    0.000000  -0.000001
     3  C   -0.000004   0.000054
     4  C   -0.000037   0.000364
     5  C    0.000003   0.000028
     6  C    0.000000   0.000007
     7  H    0.000000   0.000000
     8  H    0.000000   0.000000
     9  H    0.000001  -0.000018
    10  H    0.000000   0.000000
    11  C   -0.000467  -0.000725
    12  C    0.000008   0.000015
    13  C    0.000161  -0.002031
    14  H    0.000153  -0.000784
    15  C   -0.000040   0.000590
    16  H   -0.000001  -0.000006
    17  O    0.000458   0.005321
    18  Cl   0.000000   0.000000
    19  C    0.006619  -0.005996
    20  C   -0.050058  -0.044548
    21  H   -0.006848   0.003830
    22  C   -0.000249   0.000730
    23  H   -0.000018  -0.000039
    24  H   -0.000023   0.000048
    25  H    0.000005  -0.000004
    26  C   -0.000217  -0.000937
    27  H   -0.000036   0.000336
    28  H   -0.000002  -0.000072
    29  H    0.000016  -0.000010
    30  C    0.426983   0.421423
    31  H    0.496011  -0.021599
    32  H   -0.021599   0.484471
 Mulliken charges:
               1
     1  C   -0.129328
     2  C   -0.198897
     3  C    0.057793
     4  C    0.067954
     5  C   -0.263391
     6  C   -0.103181
     7  H    0.139525
     8  H    0.137161
     9  H    0.155507
    10  H    0.137111
    11  C    0.282795
    12  C    0.076902
    13  C   -0.234958
    14  H    0.176759
    15  C   -0.248350
    16  H    0.143366
    17  O   -0.323400
    18  Cl  -0.111710
    19  C    0.266522
    20  C   -0.246530
    21  H    0.146575
    22  C   -0.416110
    23  H    0.142567
    24  H    0.147054
    25  H    0.147502
    26  C   -0.369476
    27  H    0.140371
    28  H    0.133632
    29  H    0.132929
    30  C   -0.295429
    31  H    0.149181
    32  H    0.159555
 Sum of Mulliken charges =   0.00000
 Mulliken charges with hydrogens summed into heavy atoms:
               1
     1  C    0.010197
     2  C   -0.061736
     3  C    0.057793
     4  C    0.067954
     5  C   -0.107884
     6  C    0.033930
    11  C    0.282795
    12  C    0.076902
    13  C   -0.058199
    15  C   -0.104983
    17  O   -0.323400
    18  Cl  -0.111710
    19  C    0.266522
    20  C   -0.099955
    22  C    0.021012
    26  C    0.037456
    30  C    0.013307
 APT charges:
               1
     1  C   -0.006601
     2  C   -0.091589
     3  C    0.006761
     4  C   -0.074314
     5  C   -0.062400
     6  C   -0.057459
     7  H    0.045156
     8  H    0.071035
     9  H    0.077759
    10  H    0.043144
    11  C    0.770554
    12  C    0.303575
    13  C   -0.245646
    14  H    0.078277
    15  C    0.011970
    16  H    0.070059
    17  O   -1.197568
    18  Cl  -0.379976
    19  C    0.762587
    20  C   -0.041972
    21  H    0.025356
    22  C   -0.080192
    23  H    0.009335
    24  H    0.020636
    25  H    0.003758
    26  C   -0.023296
    27  H    0.011873
    28  H   -0.001161
    29  H   -0.005726
    30  C   -0.154491
    31  H    0.045830
    32  H    0.064724
 Sum of APT charges =   0.00000
 APT charges with hydrogens summed into heavy atoms:
               1
     1  C    0.038555
     2  C   -0.020554
     3  C    0.006761
     4  C   -0.074314
     5  C    0.015360
     6  C   -0.014315
    11  C    0.770554
    12  C    0.303575
    13  C   -0.167369
    15  C    0.082029
    17  O   -1.197568
    18  Cl  -0.379976
    19  C    0.762587
    20  C   -0.016616
    22  C   -0.046463
    26  C   -0.018310
    30  C   -0.043936
 Electronic spatial extent (au):  <R**2>=           4867.6456
 Charge=              0.0000 electrons
 Dipole moment (field-independent basis, Debye):
    X=             -3.5305    Y=              0.5257    Z=              0.8108  Tot=              3.6603
 Quadrupole moment (field-independent basis, Debye-Ang):
   XX=           -100.0934   YY=            -99.8757   ZZ=           -109.4876
   XY=              7.9094   XZ=             -3.6085   YZ=              0.3055
 Traceless Quadrupole moment (field-independent basis, Debye-Ang):
   XX=              3.0588   YY=              3.2765   ZZ=             -6.3353
   XY=              7.9094   XZ=             -3.6085   YZ=              0.3055
 Octapole moment (field-independent basis, Debye-Ang**2):
  XXX=            -33.9880  YYY=             11.1587  ZZZ=              0.4352  XYY=              0.7471
  XXY=             11.8034  XXZ=             12.5274  XZZ=            -11.9456  YZZ=             -7.6557
  YYZ=             -2.1927  XYZ=             -3.7539
 Hexadecapole moment (field-independent basis, Debye-Ang**3):
 XXXX=          -4231.2023 YYYY=          -1580.9550 ZZZZ=           -458.5259 XXXY=             90.6683
 XXXZ=            -61.8370 YYYX=             19.8560 YYYZ=            -12.6349 ZZZX=              6.1393
 ZZZY=             12.2030 XXYY=           -983.7377 XXZZ=           -829.7670 YYZZ=           -379.4811
 XXYZ=              8.3369 YYXZ=              4.0369 ZZXY=             -9.2872
 N-N= 1.277499411474D+03 E-N=-5.173815696623D+03  KE= 1.112202227986D+03
  Exact polarizability: 273.915   8.572 255.844  -2.554  -0.006 149.997
 Approx polarizability: 244.452   4.190 247.014  -2.434  -2.081 158.533
   1 Symmetry operations used in ECPInt.
 ECPInt:  NShTT=   31125 NPrTT=   96136 LenC2=   28384 LenP2D=   63829.
 LDataN:  DoStor=T MaxTD1= 8 Len=  415
 D2PCM: PCM CHGder 2nd derivatives, FixD1E=F FixD2E=F DoIter=F DoCFld=F I1PDM=0
 Calling FoFJK, ICntrl=    100127 FMM=F ISym2X=0 I1Cent= 0 IOpClX= 0 NMat=1 NMatS=1 NMatT=0.
 Full mass-weighted force constant matrix:
 Low frequencies ---  -10.1712    0.0018    0.0021    0.0026    5.1394   15.5601
 Low frequencies ---   34.5082   56.9450  100.7846
 Diagonal vibrational polarizability:
       36.3172418       7.1058248      22.6585938
 Harmonic frequencies (cm**-1), IR intensities (KM/Mole), Raman scattering
 activities (A**4/AMU), depolarization ratios for plane and unpolarized
 incident light, reduced masses (AMU), force constants (mDyne/A),
 and normal coordinates:
                      1                      2                      3
                      A                      A                      A
 Frequencies --     34.1792                56.8447               100.7600
 Red. masses --      4.3053                 4.3150                 3.0861
 Frc consts  --      0.0030                 0.0082                 0.0185
 IR Inten    --      0.8546                 0.1431                 0.3470
  Atom  AN      X      Y      Z        X      Y      Z        X      Y      Z
     1   6    -0.01   0.01   0.15     0.01   0.00   0.08    -0.06   0.01  -0.02
     2   6    -0.01   0.01   0.11     0.00   0.00   0.02    -0.02   0.02  -0.01
     3   6     0.00   0.00   0.01     0.00   0.00   0.01     0.00  -0.01   0.02
     4   6     0.00  -0.01  -0.05     0.00   0.00   0.05    -0.01  -0.05   0.03
     5   6    -0.01   0.00  -0.01     0.00   0.01   0.10    -0.05  -0.05   0.02
     6   6    -0.02   0.01   0.09     0.01   0.01   0.13    -0.08  -0.02   0.00
     7   1    -0.02   0.02   0.22     0.01   0.00   0.09    -0.08   0.03  -0.04
     8   1    -0.01   0.02   0.16     0.00  -0.01  -0.02    -0.01   0.05  -0.03
     9   1    -0.01  -0.01  -0.06     0.00   0.01   0.14    -0.06  -0.08   0.04
    10   1    -0.02   0.01   0.12     0.01   0.01   0.18    -0.11  -0.03   0.00
    11   6     0.01  -0.02  -0.14     0.00   0.01   0.05     0.01  -0.07   0.03
    12   6     0.00   0.00  -0.03     0.00   0.00  -0.02     0.04  -0.01   0.03
    13   6     0.01  -0.02  -0.17    -0.01   0.01   0.10     0.03  -0.07   0.06
    14   1     0.01  -0.02  -0.22    -0.01   0.01   0.14     0.04  -0.08   0.06
    15   6     0.01  -0.01  -0.11    -0.01   0.00   0.05     0.05  -0.03   0.07
    16   1     0.02  -0.01  -0.13    -0.01   0.00   0.05     0.08  -0.03   0.08
    17   8     0.00  -0.04  -0.18     0.00   0.01  -0.01     0.02  -0.08  -0.04
    18  17     0.00   0.01   0.05     0.00  -0.02  -0.16     0.07   0.04  -0.03
    19   6     0.04   0.03  -0.02    -0.02   0.04  -0.04    -0.02   0.04  -0.03
    20   6    -0.08  -0.02   0.12     0.04  -0.06   0.04    -0.15   0.15  -0.06
    21   1    -0.07   0.05   0.23     0.01  -0.01   0.05    -0.34   0.39  -0.16
    22   6     0.17   0.10  -0.01    -0.08   0.19   0.02    -0.08  -0.05  -0.06
    23   1     0.22   0.14   0.10    -0.10   0.18  -0.02    -0.10   0.03  -0.07
    24   1     0.16   0.09  -0.02    -0.03   0.23   0.14    -0.18  -0.12  -0.12
    25   1     0.25   0.12  -0.10    -0.16   0.29  -0.02     0.01  -0.15  -0.01
    26   6     0.06   0.05   0.00    -0.04   0.03  -0.22     0.13   0.16   0.04
    27   1    -0.02  -0.01  -0.02     0.01  -0.07  -0.26     0.19   0.22   0.07
    28   1     0.09   0.08   0.11    -0.05   0.04  -0.25     0.09   0.28   0.03
    29   1     0.14   0.08  -0.07    -0.09   0.10  -0.27     0.23   0.07   0.08
    30   6    -0.20  -0.13   0.11     0.11  -0.20   0.09    -0.01  -0.05   0.02
    31   1    -0.28  -0.16   0.21     0.14  -0.28   0.15    -0.10   0.04   0.00
    32   1    -0.22  -0.20   0.00     0.13  -0.26   0.08     0.18  -0.28   0.12
                      4                      5                      6
                      A                      A                      A
 Frequencies --    114.4760               123.7781               158.5037
 Red. masses --      3.0820                 4.2317                 4.6572
 Frc consts  --      0.0238                 0.0382                 0.0689
 IR Inten    --      0.1056                 0.0281                 0.9720
  Atom  AN      X      Y      Z        X      Y      Z        X      Y      Z
     1   6    -0.03   0.00   0.00     0.00   0.01   0.16     0.07   0.00  -0.06
     2   6    -0.01   0.01   0.00    -0.01   0.02   0.29     0.03   0.00  -0.05
     3   6     0.01  -0.02   0.02    -0.01   0.01   0.11     0.01   0.04   0.05
     4   6     0.00  -0.04   0.03     0.00   0.00  -0.05     0.01   0.07   0.06
     5   6    -0.03  -0.05   0.02     0.01  -0.01  -0.26     0.06   0.08   0.09
     6   6    -0.05  -0.02   0.01     0.01  -0.01  -0.19     0.09   0.04   0.04
     7   1    -0.05   0.02  -0.01     0.00   0.02   0.30     0.10  -0.03  -0.14
     8   1     0.00   0.03  -0.01    -0.01   0.03   0.51     0.02  -0.04  -0.11
     9   1    -0.04  -0.07   0.03     0.02  -0.01  -0.47     0.07   0.11   0.14
    10   1    -0.07  -0.03   0.01     0.02  -0.02  -0.37     0.12   0.05   0.07
    11   6     0.02  -0.06   0.03     0.00   0.01   0.00     0.00   0.08   0.01
    12   6     0.04  -0.01   0.03    -0.01   0.01   0.07    -0.02   0.04   0.12
    13   6     0.03  -0.05   0.07    -0.01   0.01   0.08    -0.01   0.08   0.15
    14   1     0.04  -0.07   0.09    -0.01   0.01   0.11    -0.02   0.09   0.11
    15   6     0.05  -0.03   0.07    -0.01   0.01   0.06    -0.04   0.06   0.24
    16   1     0.07  -0.03   0.09    -0.01   0.01   0.02    -0.06   0.07   0.32
    17   8     0.02  -0.06  -0.01    -0.01   0.00   0.00    -0.02   0.00  -0.17
    18  17     0.06   0.03  -0.03     0.00  -0.01  -0.12    -0.05  -0.03  -0.07
    19   6     0.01  -0.01   0.00     0.00  -0.01   0.01     0.02  -0.05  -0.08
    20   6     0.01  -0.05   0.03     0.01   0.00   0.00    -0.05  -0.04  -0.05
    21   1     0.21  -0.27   0.16     0.00   0.00  -0.02    -0.04   0.00   0.02
    22   6    -0.02   0.09   0.03     0.01  -0.03   0.01     0.13  -0.11  -0.11
    23   1    -0.02   0.11   0.03     0.01  -0.01   0.01     0.16   0.04   0.01
    24   1    -0.01   0.10   0.11    -0.01  -0.04   0.00    -0.02  -0.20  -0.18
    25   1    -0.04   0.14  -0.01     0.03  -0.05   0.01     0.33  -0.21  -0.15
    26   6     0.02   0.00  -0.12     0.00  -0.01   0.04    -0.01  -0.08   0.06
    27   1     0.07  -0.07  -0.15    -0.02   0.00   0.05    -0.09  -0.01   0.09
    28   1     0.00   0.02  -0.15     0.00  -0.02   0.06     0.02  -0.12   0.11
    29   1    -0.02   0.04  -0.14     0.01  -0.02   0.05     0.02  -0.11   0.08
    30   6    -0.22   0.21  -0.10     0.02   0.02   0.00    -0.15  -0.08  -0.07
    31   1    -0.21   0.19  -0.09     0.03   0.03  -0.02    -0.22  -0.08  -0.01
    32   1    -0.42   0.44  -0.21     0.03   0.02   0.01    -0.17  -0.12  -0.15
                      7                      8                      9
                      A                      A                      A
 Frequencies --    180.2005               195.1663               230.7504
 Red. masses --      4.0499                 4.5342                 6.4619
 Frc consts  --      0.0775                 0.1018                 0.2027
 IR Inten    --      2.0883                 2.2699                 1.4860
  Atom  AN      X      Y      Z        X      Y      Z        X      Y      Z
     1   6     0.11  -0.02  -0.08    -0.09   0.02  -0.18    -0.09   0.20   0.02
     2   6     0.06  -0.02   0.07    -0.04   0.04   0.08     0.02   0.20  -0.02
     3   6     0.03   0.02   0.12    -0.02   0.01   0.23     0.09   0.09  -0.05
     4   6     0.03   0.04   0.13    -0.02  -0.01   0.23     0.05   0.05  -0.03
     5   6     0.09   0.05   0.04    -0.08  -0.02   0.14    -0.06   0.04  -0.04
     6   6     0.13   0.00  -0.11    -0.10   0.00  -0.13    -0.13   0.13   0.00
     7   1     0.14  -0.05  -0.18    -0.10   0.03  -0.41    -0.14   0.27   0.07
     8   1     0.05  -0.05   0.08    -0.03   0.07   0.07     0.05   0.26  -0.01
     9   1     0.11   0.08   0.03    -0.09  -0.06   0.18    -0.09  -0.05  -0.04
    10   1     0.16   0.00  -0.24    -0.12  -0.02  -0.31    -0.20   0.12   0.01
    11   6     0.01   0.04   0.07     0.00  -0.02   0.05     0.07   0.03   0.03
    12   6     0.03   0.02   0.02    -0.02   0.00   0.11     0.08   0.07  -0.05
    13   6     0.03   0.03  -0.10    -0.01  -0.03  -0.12     0.07   0.04   0.02
    14   1     0.03   0.04  -0.21     0.00  -0.03  -0.30     0.08   0.03   0.06
    15   6     0.03   0.02  -0.14    -0.01  -0.02  -0.08     0.07   0.09  -0.03
    16   1     0.02   0.01  -0.29     0.00  -0.02  -0.26     0.10   0.09  -0.02
    17   8    -0.02   0.01   0.09     0.02   0.00  -0.06     0.06   0.00   0.08
    18  17     0.04   0.03   0.00    -0.04  -0.05  -0.03    -0.06  -0.27   0.03
    19   6    -0.07  -0.02   0.00     0.05   0.02  -0.02     0.03  -0.02   0.01
    20   6    -0.11  -0.02   0.02     0.07   0.00   0.00     0.01  -0.03   0.02
    21   1    -0.12   0.06   0.07     0.09  -0.04  -0.02     0.05  -0.03   0.09
    22   6    -0.17  -0.06  -0.01     0.14   0.07  -0.01    -0.09  -0.07   0.00
    23   1    -0.21  -0.16  -0.12     0.18   0.07   0.07    -0.13   0.03  -0.05
    24   1    -0.11  -0.03  -0.01     0.16   0.07  -0.03    -0.20  -0.14   0.00
    25   1    -0.28  -0.06   0.08     0.18   0.09  -0.08    -0.03  -0.16   0.06
    26   6    -0.06  -0.01  -0.06     0.04   0.01  -0.01     0.10   0.03  -0.06
    27   1     0.01  -0.02  -0.06     0.00  -0.01  -0.02     0.34   0.09  -0.04
    28   1    -0.08  -0.01  -0.13     0.05   0.02   0.04     0.02   0.08  -0.29
    29   1    -0.10  -0.01  -0.04     0.06   0.04  -0.05     0.02  -0.05   0.06
    30   6    -0.20  -0.11   0.01     0.11   0.04   0.00    -0.10  -0.06   0.00
    31   1    -0.29  -0.11   0.09     0.16   0.03  -0.03    -0.15  -0.08   0.07
    32   1    -0.19  -0.20  -0.07     0.10   0.09   0.03    -0.15  -0.07  -0.10
                     10                     11                     12
                      A                      A                      A
 Frequencies --    245.4738               283.4119               293.8746
 Red. masses --      1.1112                 2.8016                 1.0689
 Frc consts  --      0.0395                 0.1326                 0.0544
 IR Inten    --      0.2450                 1.1587                 0.0312
  Atom  AN      X      Y      Z        X      Y      Z        X      Y      Z
     1   6     0.01  -0.02   0.00    -0.01   0.02   0.00    -0.01  -0.01   0.00
     2   6    -0.01  -0.02   0.01     0.01   0.02   0.00     0.00  -0.01   0.00
     3   6    -0.01  -0.01   0.00     0.04  -0.01   0.00     0.00  -0.01   0.00
     4   6    -0.01   0.00   0.00     0.01  -0.02   0.00     0.00   0.00  -0.01
     5   6     0.00   0.00   0.00     0.00  -0.02   0.00    -0.01  -0.01   0.00
     6   6     0.01  -0.01   0.00    -0.02   0.00   0.00    -0.01  -0.01   0.00
     7   1     0.01  -0.02   0.00    -0.02   0.04  -0.01    -0.01  -0.01   0.00
     8   1    -0.01  -0.02   0.01     0.02   0.04   0.00     0.00   0.00   0.00
     9   1     0.01   0.01   0.00    -0.01  -0.04   0.00    -0.01  -0.01   0.00
    10   1     0.02  -0.01  -0.01    -0.04   0.00   0.00    -0.01  -0.01   0.01
    11   6     0.00   0.00   0.01    -0.02   0.00  -0.01     0.00   0.00  -0.01
    12   6    -0.02   0.00  -0.01     0.08  -0.01   0.00    -0.01   0.00   0.02
    13   6    -0.01   0.00   0.00     0.03   0.01   0.00    -0.01   0.00   0.00
    14   1    -0.02   0.00  -0.01     0.05  -0.02   0.00    -0.01   0.00  -0.01
    15   6    -0.01  -0.01  -0.02     0.05   0.01   0.00    -0.01  -0.01   0.02
    16   1    -0.01  -0.01  -0.04     0.03   0.01   0.00    -0.01   0.00   0.03
    17   8     0.00   0.01   0.02    -0.05   0.01  -0.04     0.01   0.01  -0.01
    18  17    -0.01   0.03   0.00     0.10  -0.07   0.01    -0.01   0.01   0.00
    19   6     0.00   0.00   0.00    -0.07   0.03   0.00     0.02   0.00   0.00
    20   6     0.03  -0.02   0.02    -0.09   0.08  -0.03     0.00   0.02   0.00
    21   1     0.08  -0.08   0.05    -0.23   0.22  -0.13    -0.02   0.06  -0.01
    22   6     0.00  -0.01   0.00     0.03   0.10   0.01     0.04   0.01   0.00
    23   1     0.00   0.42   0.16     0.08   0.29   0.17     0.04  -0.29  -0.11
    24   1    -0.38  -0.24  -0.04    -0.10   0.02   0.00     0.31   0.17   0.03
    25   1     0.41  -0.21  -0.10     0.24   0.07  -0.14    -0.25   0.15   0.07
    26   6     0.02   0.01  -0.03    -0.23  -0.08   0.04     0.01  -0.01   0.01
    27   1     0.31   0.17   0.03    -0.22   0.03   0.09     0.38   0.25   0.11
    28   1    -0.07  -0.01  -0.36    -0.21  -0.31  -0.10    -0.11  -0.09  -0.45
    29   1    -0.16  -0.10   0.19    -0.46  -0.09   0.18    -0.27  -0.18   0.34
    30   6     0.01  -0.01   0.01     0.01   0.04   0.01    -0.02  -0.01   0.00
    31   1     0.05  -0.06   0.04    -0.03   0.14  -0.07    -0.06   0.01   0.01
    32   1    -0.04   0.04  -0.02     0.14  -0.07   0.13     0.01  -0.06  -0.01
                     13                     14                     15
                      A                      A                      A
 Frequencies --    326.9133               332.2756               364.5021
 Red. masses --      3.6128                 2.4002                 3.6443
 Frc consts  --      0.2275                 0.1561                 0.2853
 IR Inten    --      1.7229                 1.8188                 1.1233
  Atom  AN      X      Y      Z        X      Y      Z        X      Y      Z
     1   6    -0.06  -0.01   0.03    -0.05  -0.02  -0.01    -0.03  -0.01  -0.01
     2   6    -0.02  -0.01   0.01    -0.02  -0.01   0.00    -0.01  -0.01  -0.05
     3   6     0.00  -0.04  -0.03     0.01  -0.04   0.01     0.00  -0.01   0.04
     4   6     0.02  -0.03   0.03     0.00  -0.03  -0.01     0.02  -0.02  -0.07
     5   6    -0.04  -0.05   0.00    -0.03  -0.04   0.00    -0.01  -0.02  -0.05
     6   6    -0.06  -0.03  -0.03    -0.05  -0.02   0.01    -0.03  -0.01   0.07
     7   1    -0.08   0.01   0.07    -0.05  -0.01  -0.02    -0.03   0.00  -0.03
     8   1     0.00   0.03   0.02    -0.01   0.01  -0.01     0.00   0.01  -0.10
     9   1    -0.05  -0.08  -0.01    -0.03  -0.06   0.01    -0.02  -0.04  -0.07
    10   1    -0.08  -0.03  -0.06    -0.06  -0.02   0.02    -0.04   0.00   0.16
    11   6     0.03   0.01   0.11    -0.03   0.02  -0.04     0.01   0.00  -0.11
    12   6    -0.03  -0.04  -0.09     0.03  -0.04   0.04    -0.01  -0.01   0.21
    13   6    -0.04   0.00   0.10    -0.02   0.02  -0.03    -0.01   0.00  -0.19
    14   1    -0.05   0.02   0.16     0.00   0.00  -0.05    -0.01   0.00  -0.29
    15   6    -0.04  -0.03  -0.06    -0.01   0.00   0.03    -0.02   0.00   0.13
    16   1    -0.05  -0.04  -0.09    -0.05   0.00   0.05    -0.04   0.01   0.20
    17   8     0.10   0.13   0.17     0.00   0.12   0.00     0.03   0.08   0.11
    18  17    -0.01   0.04   0.02     0.08  -0.02   0.00     0.01   0.00  -0.04
    19   6     0.09   0.03  -0.04    -0.02   0.11  -0.05     0.03   0.03   0.06
    20   6     0.05   0.09  -0.09     0.10  -0.02   0.01    -0.01   0.07   0.07
    21   1    -0.07   0.31  -0.07     0.37  -0.30   0.21    -0.09   0.20   0.05
    22   6     0.14   0.02  -0.04    -0.06  -0.01  -0.09     0.04  -0.13   0.00
    23   1     0.18   0.06   0.06    -0.08  -0.07  -0.16     0.05  -0.16   0.00
    24   1     0.13   0.01  -0.07    -0.06  -0.01  -0.16    -0.01  -0.17  -0.19
    25   1     0.23   0.02  -0.11    -0.10  -0.07   0.02     0.11  -0.26   0.11
    26   6    -0.02  -0.06  -0.05    -0.05   0.09   0.11    -0.04  -0.02  -0.17
    27   1    -0.19  -0.15  -0.08    -0.16   0.21   0.17    -0.01  -0.25  -0.27
    28   1     0.04  -0.15   0.09    -0.01   0.02   0.17    -0.04  -0.03  -0.18
    29   1    -0.03   0.05  -0.15    -0.02   0.02   0.17    -0.13   0.16  -0.31
    30   6    -0.11  -0.10  -0.10    -0.02  -0.08  -0.01    -0.01   0.04   0.09
    31   1    -0.39  -0.01   0.03     0.14  -0.37   0.22    -0.09   0.13   0.06
    32   1    -0.02  -0.39  -0.25    -0.27   0.13  -0.26     0.08  -0.06   0.13
                     16                     17                     18
                      A                      A                      A
 Frequencies --    381.8832               420.1370               430.4730
 Red. masses --      2.9255                 4.7378                 3.1159
 Frc consts  --      0.2514                 0.4927                 0.3402
 IR Inten    --      0.4859                 2.6931                 7.6400
  Atom  AN      X      Y      Z        X      Y      Z        X      Y      Z
     1   6     0.01   0.02  -0.02    -0.06  -0.06   0.02    -0.03  -0.02  -0.10
     2   6     0.02   0.02  -0.02    -0.14  -0.08  -0.04    -0.03   0.00   0.20
     3   6     0.02   0.01   0.04    -0.12  -0.04   0.02    -0.01  -0.03  -0.10
     4   6     0.02  -0.01  -0.05    -0.09   0.10   0.00     0.01   0.01  -0.12
     5   6     0.01  -0.01  -0.02    -0.04   0.13  -0.05    -0.02   0.02   0.20
     6   6     0.00   0.00   0.04     0.01   0.07   0.02    -0.01   0.01  -0.09
     7   1     0.00   0.03  -0.06     0.01  -0.15   0.02    -0.02  -0.03  -0.12
     8   1     0.03   0.02  -0.05    -0.15  -0.11  -0.11    -0.03   0.03   0.52
     9   1     0.01  -0.02  -0.03    -0.03   0.16  -0.12    -0.03   0.03   0.51
    10   1    -0.02   0.00   0.10     0.11   0.09   0.04     0.00   0.01  -0.09
    11   6     0.03  -0.03  -0.09    -0.07   0.11   0.02     0.00   0.03  -0.14
    12   6    -0.02   0.02   0.13     0.00  -0.07   0.05     0.00  -0.04  -0.10
    13   6     0.00  -0.03  -0.13    -0.03   0.12  -0.02    -0.02   0.04   0.00
    14   1    -0.01  -0.02  -0.15    -0.05   0.15  -0.05    -0.04   0.06   0.14
    15   6     0.00   0.00   0.05    -0.06   0.01  -0.01    -0.04   0.00   0.07
    16   1     0.03   0.00   0.07    -0.19  -0.01  -0.06    -0.09   0.01   0.26
    17   8     0.04  -0.01   0.06    -0.09   0.03   0.07     0.01   0.04  -0.03
    18  17    -0.04   0.02  -0.02     0.18  -0.07   0.01     0.04  -0.01   0.01
    19   6     0.05  -0.06   0.00    -0.04  -0.11   0.03     0.06  -0.02   0.02
    20   6     0.05  -0.01  -0.09    -0.03  -0.08  -0.07     0.03   0.02   0.02
    21   1    -0.04   0.09  -0.14    -0.11  -0.03  -0.16    -0.05   0.13  -0.01
    22   6    -0.11   0.15   0.11     0.07   0.03   0.08    -0.05  -0.03   0.05
    23   1    -0.17   0.41   0.08     0.12   0.04   0.20    -0.12   0.04  -0.06
    24   1    -0.24   0.08   0.38     0.13   0.07   0.17    -0.12  -0.06   0.12
    25   1    -0.06   0.23  -0.04     0.08   0.15  -0.09    -0.08  -0.06   0.12
    26   6     0.04  -0.06   0.12     0.15   0.02  -0.02     0.03  -0.05  -0.01
    27   1    -0.05   0.06   0.18     0.32  -0.01  -0.04     0.04  -0.09  -0.03
    28   1     0.08  -0.09   0.20     0.06   0.29  -0.05     0.04  -0.07  -0.02
    29   1     0.11  -0.15   0.18     0.33  -0.05  -0.05     0.00  -0.02  -0.04
    30   6    -0.03  -0.07  -0.12     0.00  -0.04  -0.09    -0.01   0.01   0.01
    31   1    -0.19   0.02  -0.08    -0.06   0.07  -0.17    -0.12   0.11  -0.01
    32   1     0.04  -0.23  -0.18     0.07  -0.10  -0.02     0.06  -0.10   0.02
                     19                     20                     21
                      A                      A                      A
 Frequencies --    459.3345               482.9581               499.1189
 Red. masses --      3.1227                 3.4060                 4.8464
 Frc consts  --      0.3882                 0.4681                 0.7113
 IR Inten    --      0.7453                 0.3493                 3.1336
  Atom  AN      X      Y      Z        X      Y      Z        X      Y      Z
     1   6     0.06   0.03  -0.02    -0.02   0.00   0.18    -0.01  -0.05  -0.01
     2   6     0.03   0.03   0.07    -0.01  -0.01  -0.09    -0.18  -0.06   0.02
     3   6     0.01   0.04  -0.08     0.00  -0.02  -0.15    -0.19   0.01  -0.02
     4   6    -0.03  -0.03  -0.06     0.01   0.02   0.21    -0.11   0.13  -0.05
     5   6     0.02  -0.02   0.08    -0.01   0.02   0.06    -0.03   0.22   0.00
     6   6     0.04  -0.03  -0.04    -0.01   0.00  -0.16     0.07   0.14   0.00
     7   1     0.05   0.04   0.02    -0.02   0.02   0.42     0.11  -0.20  -0.01
     8   1     0.01   0.00   0.23     0.00   0.00  -0.08    -0.22  -0.14   0.07
     9   1     0.04   0.03   0.22    -0.01   0.00  -0.06     0.00   0.32   0.04
    10   1     0.01  -0.03  -0.05     0.01  -0.01  -0.45     0.21   0.16   0.03
    11   6    -0.05  -0.06  -0.03     0.02   0.02   0.07     0.07  -0.09   0.01
    12   6     0.03   0.06   0.00    -0.01  -0.02  -0.09     0.00   0.01   0.02
    13   6     0.02  -0.07  -0.07     0.01   0.00  -0.18     0.17  -0.13  -0.01
    14   1     0.07  -0.13  -0.03     0.00   0.03  -0.41     0.16  -0.12   0.00
    15   6     0.06   0.04   0.08    -0.02  -0.01   0.16     0.15  -0.15   0.02
    16   1     0.12   0.05   0.23    -0.04   0.01   0.45     0.24  -0.14   0.03
    17   8    -0.05  -0.02   0.18     0.01  -0.01  -0.03     0.08  -0.09   0.04
    18  17    -0.03   0.00  -0.01     0.00   0.00   0.00    -0.03  -0.03   0.00
    19   6    -0.15  -0.01  -0.01     0.02   0.00   0.00     0.05   0.08  -0.01
    20   6    -0.08  -0.06  -0.07     0.01   0.00   0.01     0.07   0.09   0.01
    21   1     0.01  -0.22  -0.07     0.00   0.02   0.00     0.13   0.06   0.07
    22   6     0.11   0.03  -0.04    -0.03   0.01   0.01    -0.01   0.02  -0.05
    23   1     0.27  -0.07   0.26    -0.05   0.05  -0.03    -0.01   0.00  -0.07
[...]
 0002903,0.00001589,0.00004625,0.00001726,0.00001540,0.00001063,-0.0000
 0075,-0.00000162,0.00000441,0.00000122,-0.00000062,-0.00005971,0.00005
 426,-0.00004977,-0.00000695,-0.00000052,-0.00000433,-0.00041884,-0.000
 08369,-0.00010595,-0.00001833,-0.00000154,-0.00000010,0.00020531,0.000
 11400,0.00001830,0.00000263,0.00004039,-0.00003839,-0.00001907,0.00003
 259,0.00001202,0.00001731,0.00001122,-0.00000324,0.00183696,0.00014090
 ,-0.00056276,0.00004911,0.00002671,0.00000330,-0.00281141,-0.00862301,
 -0.01830806,-0.00012102,0.00133547,-0.00031107,0.00004385,0.00004225,0
 .00001080,-0.00237198,-0.00318476,0.00077556,0.00029692,-0.00000912,-0
 .00009287,0.00009542,-0.00065218,-0.00110637,0.00009107,0.00005816,0.0
 0030844,-0.04605951,-0.00197139,-0.00686727,0.04721523,-0.00000586,-0.
 00000150,0.00000161,-0.00000215,0.00000305,0.00000396,-0.00000969,-0.0
 0001725,-0.00001669,0.00001380,-0.00001256,-0.00000659,0.00001971,0.00
 002215,-0.00000768,-0.00000836,-0.00000916,0.00000309,-0.00000192,-0.0
 0000009,-0.00000088,0.00000005,-0.00000120,-0.00000282,-0.00000592,0.0
 0001585,0.00000836,0.00000709,-0.00000177,-0.00000094,-0.00004933,0.00
 015898,0.00012693,0.00000336,0.00001928,-0.00000010,0.00015623,0.00003
 880,0.00005559,-0.00000858,0.00004114,-0.00006804,0.00001112,0.0000279
 3,0.00001053,0.00000951,0.00000426,-0.00000745,0.00221915,0.00118131,0
 .00052207,0.00000306,0.00000032,0.00000136,0.00021390,-0.01232887,-0.0
 2457064,-0.00005196,0.00109740,-0.00223842,-0.00016380,-0.00009215,-0.
 00002013,-0.00330409,-0.00421266,0.00082543,-0.00004314,0.00007410,0.0
 0040791,-0.00052583,-0.00019118,-0.00165817,-0.00019588,0.00007754,-0.
 00014138,-0.00375592,-0.09135669,-0.09737700,0.00624104,0.09893689,-0.
 00001197,-0.00000744,0.00000083,0.00000974,0.00001730,0.00000332,0.000
 00098,-0.00001056,-0.00001168,0.00003583,-0.00005367,-0.00001699,-0.00
 006629,-0.00003118,0.00003176,0.00003985,0.00001771,0.00000695,0.00000
 471,0.00000146,-0.00000208,0.00000002,0.00000203,-0.00000250,-0.000090
 96,0.00001226,-0.00004887,-0.00001036,0.00000614,-0.00000483,-0.000103
 90,0.00021389,0.00024764,-0.00001520,0.00002580,-0.00000305,0.00008109
 ,0.00005924,0.00005299,-0.00000494,0.00002316,-0.00000334,0.00003692,0
 .00003520,-0.00001210,0.00000672,0.00000349,-0.00000290,0.00006423,0.0
 0063141,0.00071431,-0.00000056,0.00000295,0.00000298,0.00063154,0.0011
 4397,-0.00097683,0.00003137,0.00061734,0.00097938,0.00001760,0.0001105
 6,0.00003240,-0.00029108,-0.00085043,0.00086498,-0.00001871,0.00028171
 ,0.00017255,0.00009809,-0.00011412,-0.00003230,0.00021529,0.00011176,0
 .00023616,-0.00907224,-0.10106712,-0.27867182,0.00895446,0.10951292,0.
 29833573,0.00001385,0.00002048,0.00000281,-0.00002921,-0.00002411,-0.0
 0000466,-0.00002207,0.00005649,-0.00002279,-0.00033475,-0.00012830,0.0
 0001930,0.00003531,-0.00003671,0.00001535,-0.00004262,0.00002532,0.000
 00634,-0.00001347,0.00000656,-0.00000037,-0.00001327,0.00000326,-0.000
 00191,0.00004857,-0.00006866,-0.00002840,-0.00000282,0.00001315,-0.000
 00091,0.00152660,0.00079691,0.00089756,0.00004782,0.00001816,0.0000095
 2,-0.00037301,-0.00034511,-0.00013168,-0.00000237,0.00000323,0.0000273
 1,0.00007004,-0.00002538,-0.00006223,-0.00004290,-0.00002422,0.0000003
 2,-0.00586638,-0.00370754,0.00011298,-0.00013442,-0.00005975,-0.000004
 05,-0.01410073,0.00880640,0.00476728,0.00011370,0.00109671,-0.00045339
 ,0.00049211,-0.00023798,0.00001369,0.00003057,0.00077996,0.00049893,0.
 00050596,-0.00034161,-0.00044217,0.00039385,-0.00017300,-0.00011175,0.
 00007064,-0.00010419,0.00008583,-0.28039285,0.06360636,0.06889255,0.00
 276068,-0.00069975,-0.00090587,0.30362378,0.00000145,0.00000912,0.0000
 0666,-0.00000992,-0.00001752,-0.00000168,-0.00004028,0.00008147,-0.000
 03658,-0.00028734,-0.00026013,-0.00000724,-0.00006888,-0.00009295,-0.0
 0000715,0.00001566,0.00006410,0.00000332,0.00000365,0.00000528,-0.0000
 0030,-0.00001060,0.00000870,-0.00000341,-0.00007240,0.00002176,0.00002
 901,-0.00001432,0.00001208,-0.00000046,-0.00023952,0.00088780,0.000818
 75,-0.00000029,0.00001214,0.00000731,-0.00012966,-0.00006599,-0.000052
 98,0.00001765,-0.00001259,0.00000129,0.00005808,-0.00000508,-0.0000277
 2,-0.00002326,-0.00001256,0.00000080,-0.00697646,-0.00343627,0.0004474
 0,-0.00005937,-0.00002333,-0.00000115,-0.01980418,0.00851677,0.0065981
 8,-0.00016246,0.00036567,0.00045507,-0.00005894,-0.00066961,0.00020053
 ,0.00008071,0.00057962,0.00038805,-0.00023270,-0.00031625,-0.00044738,
 0.00019542,0.00000906,0.00016947,-0.00002500,-0.00003031,-0.00007048,0
 .06777913,-0.06762841,-0.01968462,0.01173922,-0.00368763,-0.00196011,-
 0.07072720,0.07065752,-0.00000186,-0.00000701,-0.00000287,0.00000711,0
 .00001077,-0.00000052,0.00000851,-0.00003403,-0.00001428,0.00008699,0.
 00004946,0.00000293,-0.00001382,0.00000757,0.00002486,0.00001345,-0.00
 000244,0.00001132,0.00000269,-0.00000116,-0.00000084,0.00000389,-0.000
 00144,-0.00000196,-0.00001254,0.00001621,-0.00005431,0.00000041,-0.000
 00267,-0.00000295,-0.00024519,-0.00014288,0.00039477,-0.00002135,0.000
 00018,0.00000250,0.00008161,0.00003806,-0.00000909,0.00000110,0.000001
 92,0.00002999,-0.00000165,0.00003331,-0.00004302,0.00001183,0.00000444
 ,0.00000482,0.00100971,0.00032980,0.00074526,0.00002114,0.00001007,0.0
 0000367,-0.00080426,-0.00066627,-0.00278989,0.00026189,0.00006892,0.00
 013624,-0.00003812,0.00026758,0.00005532,-0.00034844,-0.00004947,-0.00
 024738,-0.00042038,-0.00063790,-0.00028893,0.00007276,0.00011483,0.000
 00881,-0.00012585,-0.00007995,0.00006815,0.06950642,-0.01821250,-0.065
 82043,0.02739735,-0.00633456,-0.00624711,-0.07633679,0.02098992,0.0675
 7348,-0.00000439,0.00000011,0.00000392,0.00002275,0.00000475,-0.000001
 48,0.00000022,-0.00000949,0.00000264,0.00010199,0.00000173,0.00000552,
 -0.00006784,-0.00002264,-0.00004757,0.00001968,0.00002581,-0.00001299,
 0.00000960,-0.00000071,0.00000194,0.00000372,0.00000053,-0.00000009,-0
 .00016691,0.00005181,0.00014572,-0.00000298,-0.00000264,0.00000010,-0.
 00030977,-0.00016131,-0.00014147,-0.00001920,-0.00001277,-0.00000181,0
 .00015708,0.00009191,0.00005178,0.00002224,0.00003015,0.00001309,-0.00
 002422,0.00002571,0.00001316,0.00001098,0.00000749,0.00000008,0.002328
 83,0.00017640,-0.00055536,0.00003654,0.00002044,0.00000188,0.00454183,
 -0.01557510,0.01331649,-0.00216847,-0.00173518,-0.00055690,0.00019885,
 -0.00025954,0.00006901,0.00076454,0.00036748,0.00096416,-0.00001325,0.
 00014218,-0.00015499,-0.00003939,0.00012070,0.00019293,0.00008684,0.00
 008818,-0.00017014,-0.08148509,0.06539853,-0.06222927,-0.00089273,-0.0
 0009835,0.00037053,-0.00863276,0.01903307,-0.01997850,0.08501175,-0.00
 001417,-0.00000226,-0.00000039,0.00000116,0.00000797,-0.00000107,-0.00
 002374,-0.00001337,-0.00000657,-0.00000589,-0.00006960,0.00000138,-0.0
 0001157,-0.00000136,-0.00001977,0.00000951,0.00001338,-0.00001677,0.00
 000186,0.00000052,0.00000349,-0.00000153,0.00000055,0.00000317,-0.0000
 2632,0.00004413,0.00004235,0.00000169,0.00000084,0.00000620,-0.0002975
 3,0.00014435,-0.00016242,-0.00001750,0.00003299,0.00000588,0.00011599,
 0.00003426,-0.00004769,0.00005795,0.00006024,0.00005846,0.00001850,0.0
 0003966,0.00000978,0.00001003,0.00000218,0.00000920,0.00151703,0.00168
 907,-0.00118348,0.00000155,0.00000477,-0.00000137,0.01051335,-0.020693
 34,0.01722656,-0.00516016,-0.00289240,-0.00005863,0.00024201,0.0001816
 2,-0.00008806,0.00105730,0.00115765,0.00095042,0.00003499,-0.00006571,
 -0.00009320,-0.00008308,0.00050743,-0.00006300,-0.00054082,-0.00005490
 ,-0.00082178,0.06257726,-0.16990395,0.11574732,-0.00534587,0.00990075,
 -0.00842836,0.00175158,-0.00496425,0.00430844,-0.06720813,0.18546059,0
 .00001916,0.00000950,-0.00000369,-0.00002300,-0.00002696,-0.00000149,-
 0.00000284,0.00000761,0.00000144,-0.00006835,0.00006870,0.00001317,0.0
 0013305,0.00006766,0.00004448,-0.00006792,-0.00004594,0.00000188,-0.00
 001190,-0.00000171,-0.00000120,-0.00000121,-0.00000361,-0.00000048,0.0
 0019888,-0.00003831,-0.00012600,0.00001923,-0.00000846,-0.00000241,0.0
 0018995,-0.00006390,-0.00002855,0.00002785,-0.00001537,-0.00000213,-0.
 00003530,-0.00002594,0.00001357,-0.00001092,-0.00003302,-0.00000137,-0
 .00002414,-0.00004111,-0.00001341,-0.00000785,-0.00000471,-0.00000090,
 0.00022913,-0.00025048,0.00001402,-0.00001021,-0.00001401,-0.00000067,
 -0.00064476,-0.00074841,-0.00100599,0.00048424,0.00051960,0.00012506,-
 0.00016964,0.00005967,-0.00008980,0.00014669,-0.00116561,0.00048778,0.
 00018141,0.00006457,0.00001583,0.00017571,-0.00004692,0.00003595,-0.00
 019891,-0.00029492,0.00040933,-0.06130765,0.11736708,-0.16184168,-0.01
 020947,0.02017124,-0.01605182,0.00313089,-0.00748382,0.00650634,0.0678
 9585,-0.12826513,0.17081376,-0.00007393,-0.00000059,-0.00000028,0.0000
 1076,0.00006892,-0.00000386,-0.00008358,-0.00012702,-0.00002750,0.0002
 0830,-0.00011322,0.00021751,-0.00008035,0.00007109,0.00000213,0.000042
 59,0.00001799,0.00003265,-0.00000269,0.00000505,-0.00000612,-0.0000045
 2,-0.00000228,-0.00000406,0.00001347,0.00001173,-0.00004583,-0.0000053
 1,0.00001518,-0.00000844,-0.00079793,0.00012489,-0.00046116,-0.0000756
 7,0.00008184,0.00008946,-0.00140845,-0.00126831,-0.00149884,-0.0016475
 7,0.00052519,-0.00037333,-0.00014292,0.00048812,-0.00021045,0.00003910
 ,-0.00000836,-0.00003273,0.00111867,-0.00108094,-0.00060294,-0.0001237
 4,-0.00001105,0.00003186,0.01099884,0.00240843,-0.01176389,-0.13084142
 ,0.00095438,0.13855173,-0.00242775,-0.00459970,0.02669609,-0.00110543,
 0.00173475,-0.00124222,0.00020614,-0.00000349,-0.00021083,-0.00002142,
 -0.00009061,0.00012982,-0.00007187,-0.00010196,-0.00096509,-0.00113120
 ,0.00072745,-0.00129705,0.00010167,0.00019291,0.00000806,0.00032090,0.
 00008040,-0.00012850,0.00046863,0.00071727,-0.00000577,0.47095924,-0.0
 0008581,-0.00002184,-0.00000854,0.00003442,0.00009672,0.00000221,-0.00
 008716,-0.00022174,0.00001397,0.00049770,-0.00005890,-0.00008694,-0.00
 013229,0.00008701,-0.00002062,0.00008478,0.00001345,-0.00000998,-0.000
 00019,0.00000469,0.00000540,0.00000030,-0.00000561,0.00000932,-0.00001
 684,0.00004854,0.00003018,-0.00000783,0.00001481,0.00000627,-0.0019964
 4,-0.00116811,-0.00024342,-0.00002066,0.00020320,0.00006263,-0.0002980
 4,0.00000991,-0.00080187,-0.00036729,0.00048903,0.00004368,0.00010035,
 0.00031821,-0.00004889,0.00004458,0.00000727,0.00002503,0.00046210,0.0
 0082109,0.00116836,-0.00006275,0.00000010,-0.00000405,-0.00681502,-0.0
 0076790,0.02417731,-0.00144490,-0.10386250,0.10704421,0.00687689,0.008
 49898,-0.01431136,0.00176163,-0.00359757,0.00028138,-0.00029072,0.0000
 3197,0.00010654,0.00015692,0.00025099,0.00018075,0.00001415,0.00063196
 ,0.00131955,0.00218630,-0.00079987,0.00199491,0.00003736,0.00036236,-0
 .00019761,-0.00020766,0.00001479,-0.00009158,-0.00056026,-0.00081677,0
 .00030935,-0.21993261,0.39010665,0.00000348,0.00000053,0.00000377,-0.0
 0002080,0.00000079,0.00000741,0.00003042,0.00001381,-0.00000265,-0.000
 14574,-0.00010348,-0.00009463,0.00001215,-0.00005221,0.00003789,-0.000
 01101,0.00001158,0.00001112,-0.00000864,0.00000435,-0.00000342,-0.0000
 0777,0.00000217,-0.00000368,0.00002229,-0.00004618,-0.00002317,-0.0000
 0243,0.00000948,-0.00000792,0.00125521,0.00107338,0.00009526,0.0000337
 3,0.00003458,-0.00001290,-0.00031771,-0.00030110,-0.00015811,-0.000989
 69,-0.00015484,-0.00045401,0.00018432,-0.00005717,0.00000683,-0.000034
 89,-0.00001361,0.00001032,0.00010656,-0.00149066,-0.00139194,-0.000071
 49,-0.00004311,-0.00001180,0.00414632,0.01057050,-0.01809467,0.1423012
 5,0.10385748,-0.51621665,0.00281174,0.00550564,-0.00997729,-0.00106736
 ,0.00200458,0.00091710,0.00012033,-0.00009639,0.00020698,-0.00005624,-
 0.00032700,-0.00009510,-0.00006934,-0.00036361,-0.00066596,-0.00272675
 ,-0.00155848,-0.00104367,0.00011246,0.00074653,0.00034514,0.00012622,-
 0.00027148,-0.00010343,0.00063135,0.00050381,0.00071975,-0.17226733,-0
 .18080127,0.78575774,-0.00000857,-0.00001121,-0.00000019,-0.00001374,0
 .00001253,-0.00000005,-0.00000114,-0.00003836,-0.00000850,0.00000902,-
 0.00004438,0.00000671,0.00000081,0.00001245,0.00000129,0.00001235,-0.0
 0000007,-0.00000169,-0.00000384,0.00000166,0.00000007,-0.00000410,0.00
 000093,-0.00000097,0.00000255,-0.00001533,0.00000617,0.00000120,0.0000
 0150,0.00000152,0.00068206,0.00018543,0.00019536,-0.00002282,0.0000545
 0,0.00002053,-0.00019856,-0.00022310,-0.00006105,-0.00005601,0.0001142
 3,-0.00000778,0.00007885,0.00003651,-0.00003499,-0.00002720,-0.0000135
 0,-0.00001557,0.00005399,-0.00017035,-0.00086377,-0.00005169,-0.000027
 30,0.00000207,0.00376657,0.00537598,0.00500487,0.00804077,-0.00763106,
 0.00809372,-0.00242149,-0.00426832,-0.00213345,0.00065207,-0.00125122,
 0.00077013,-0.00003339,-0.00000888,0.00000710,0.00000453,-0.00005867,-
 0.00007018,-0.00001233,0.00010118,0.00047756,-0.00053451,0.00109377,-0
 .00103216,-0.00006797,-0.00006112,-0.00003336,-0.00002504,-0.00006181,
 -0.00000897,0.00022266,0.00033162,-0.00000150,-0.12063460,0.11029522,-
 0.07371303,0.11656029,0.00000930,-0.00000232,-0.00000096,0.00000178,-0
 .00001311,-0.00000188,0.00000479,0.00002493,-0.00000068,0.00002151,0.0
 0001676,-0.00000786,0.00001981,0.00000791,0.00000324,-0.00000137,-0.00
 000907,-0.00000066,0.00000485,-0.00000316,0.00000055,0.00000365,0.0000
 0062,0.00000033,-0.00000351,0.00001880,-0.00000217,0.00000269,-0.00000
 774,0.00000070,-0.00045001,-0.00020308,-0.00003302,-0.00001476,-0.0000
 4790,-0.00000228,-0.00002852,-0.00006123,0.00000912,-0.00004383,-0.000
 00913,-0.00002283,-0.00008507,-0.00002059,-0.00001843,0.00000308,0.000
 00618,-0.00000338,0.00023854,-0.00003670,0.00036324,0.00004885,0.00001
 999,0.00000590,0.00499585,0.00741499,0.00350091,0.00451534,-0.00057268
 ,0.00110284,-0.00433715,-0.00374896,-0.00227604,0.00066662,-0.00144302
 ,0.00098626,-0.00004595,0.00000840,0.00002797,0.00000834,-0.00008062,-
 0.00009255,-0.00004990,0.00015470,0.00051159,-0.00075895,0.00128103,-0
 .00125822,-0.00001228,-0.00003869,-0.00004862,-0.00004866,-0.00007499,
 0.00002434,0.00027639,0.00042467,-0.00002560,0.10796037,-0.18236644,0.
 11263873,-0.11723031,0.18412101,0.00000751,0.00000272,0.00000103,-0.00
 000830,-0.00001148,-0.00000052,-0.00000249,0.00002319,-0.00000348,-0.0
 0010325,-0.00001942,0.00000463,0.00001480,-0.00000616,0.00000507,-0.00
 001294,-0.00000071,0.00000585,-0.00000102,-0.00000005,-0.00000098,-0.0
 0000176,0.00000119,-0.00000103,0.00000731,-0.00000890,-0.00001326,0.00
 000137,-0.00000090,-0.00000244,0.00025742,0.00019488,0.00005869,-0.000
 01101,-0.00001725,-0.00000147,-0.00010930,-0.00018773,-0.00003175,0.00
 000194,0.00008850,-0.00003021,-0.00001610,0.00001302,-0.00000645,-0.00
 001450,-0.00000426,-0.00000881,-0.00034063,-0.00052188,0.00090309,-0.0
 0001151,-0.00000664,0.00000186,0.00620960,0.00122152,-0.00088979,-0.01
 585396,0.02309133,-0.01428435,-0.00187007,-0.00250783,-0.00016415,-0.0
 0014084,0.00035395,0.00018132,0.00000905,0.00000800,0.00000856,-0.0000
 2493,-0.00011478,-0.00006140,-0.00008671,-0.00005301,-0.00018445,-0.00
 078817,0.00074440,-0.00094364,0.00002904,0.00004463,0.00003110,0.00001
 591,-0.00002894,-0.00000805,0.00026631,0.00046291,-0.00000375,-0.06975
 885,0.10876785,-0.13438718,0.07577005,-0.12292621,0.14083948,0.0000209
 7,0.00001165,0.00000209,0.00000134,-0.00002775,-0.00000027,0.00001398,
 0.00007683,0.00002826,-0.00009953,0.00010071,-0.00000447,0.00005123,-0
 .00001159,-0.00000237,-0.00002952,-0.00001665,-0.00000630,0.00000329,-
 0.00000354,0.00000093,0.00000242,0.00000063,0.00000055,0.00000397,-0.0
 0000530,0.00001796,0.00000428,-0.00000892,0.00000193,0.00002824,0.0002
 6745,-0.00061828,0.00000662,-0.00008239,-0.00001790,0.00017732,0.00006
 406,0.00004689,0.00005252,0.00003017,-0.00009451,-0.00011460,-0.000075
 71,0.00000313,0.00000114,0.00000555,0.00000287,-0.00010417,-0.00008453
 ,-0.00122254,0.00005451,0.00001970,0.00000240,-0.00340758,-0.00249121,
 -0.00226310,-0.00263275,0.00599547,0.00438433,0.00478590,0.00428893,0.
 00334062,-0.00023670,0.00033234,-0.00030708,0.00005543,0.00000769,-0.0
 0003851,-0.00002847,0.00005400,0.00000347,0.00012586,-0.00008308,-0.00
 013638,0.00025858,-0.00039602,0.00067384,-0.00000235,-0.00009929,0.000
 01841,-0.00002570,0.00000015,-0.00000066,-0.00018172,-0.00022433,-0.00
 003072,-0.22380796,0.10977376,0.09961241,-0.00597071,0.00432848,0.0065
 6605,0.23099417,0.00004579,-0.00000007,0.00000510,-0.00002801,-0.00003
 965,0.00000718,0.00005369,0.00007851,-0.00000732,-0.00028852,0.0000641
 4,-0.00000820,0.00005254,-0.00004491,-0.00001248,-0.00003082,-0.000002
 52,-0.00002212,-0.00000286,-0.00000132,-0.00000015,-0.00000154,0.00000
 203,-0.00000248,-0.00000571,-0.00003051,0.00001379,0.00000349,-0.00000
 688,0.00000471,0.00142247,0.00077916,0.00047205,-0.00002272,-0.0000762
 1,-0.00002211,-0.00010669,0.00002424,0.00018297,0.00025427,-0.00016146
 ,-0.00014509,-0.00001112,-0.00009696,0.00004703,-0.00001876,-0.0000136
 5,-0.00001853,-0.00129229,-0.00065438,0.00054884,-0.00000486,-0.000015
 70,-0.00000329,-0.00305739,-0.00461436,-0.00175245,-0.00443966,0.00950
 527,0.00268148,0.00428394,0.00607924,0.00429511,0.00000942,0.00059871,
 -0.00057675,-0.00000091,-0.00000526,-0.00012838,-0.00003744,0.00005696
 ,0.00000667,0.00007765,-0.00007390,-0.00019417,0.00045426,-0.00052932,
 0.00073022,0.00002941,-0.00001070,-0.00006107,-0.00002475,0.00005197,-
 0.00001191,-0.00021726,-0.00022973,-0.00004104,0.11115415,-0.10832447,
 -0.05129732,0.01349747,-0.00476058,-0.00860193,-0.12174726,0.10245232,
 0.00004749,0.00001243,-0.00000014,0.00001742,-0.00006236,-0.00000320,0
 .00004601,0.00016580,0.00001966,-0.00007056,0.00008737,-0.00004891,0.0
 0006030,-0.00003672,-0.00000918,-0.00003351,-0.00003705,-0.00001948,0.
 00001101,-0.00000800,0.00000275,0.00001000,0.00000119,0.00000347,-0.00
 001277,0.00003055,0.00001083,0.00000516,-0.00001758,0.00000423,-0.0016
 8891,-0.00024052,-0.00074883,0.00005441,-0.00019674,-0.00004361,0.0003
 1435,0.00038545,0.00015572,0.00011961,-0.00011015,-0.00020881,-0.00028
 275,-0.00011093,0.00008291,0.00002459,0.00002401,0.00000207,0.00002637
 ,0.00029548,0.00133538,0.00016220,0.00006448,0.00000222,-0.00010709,-0
 .00327650,-0.00060049,0.02535008,-0.01388661,-0.00835891,0.00338293,0.
 00439001,-0.00287387,-0.00015493,0.00023351,-0.00013462,-0.00008472,0.
 00004179,0.00008899,0.00002171,0.00002135,-0.00000635,-0.00001027,0.00
 000391,-0.00010300,0.00015279,-0.00020614,0.00027891,0.00002805,0.0000
 0934,0.00003002,-0.00011586,-0.00003026,0.00006662,-0.00009590,-0.0000
 8169,-0.00002704,0.09515576,-0.04892277,-0.10537111,-0.01236991,0.0075
 4569,0.00898649,-0.10996305,0.05391166,0.10748728\\0.00001570,0.000026
 84,-0.00000216,0.00000701,-0.00000029,0.00000372,-0.00000655,0.0000249
 8,0.00000843,-0.00000008,0.00001230,-0.00000104,0.00001518,-0.00000286
 ,-0.00000833,0.00000266,0.00001636,-0.00001091,0.00001055,0.00001883,-
 0.00000454,0.00000179,0.00002108,0.00001175,0.00001147,0.00000328,-0.0
 0001392,0.00001667,0.00000959,-0.00001714,0.00001261,-0.00000050,0.000
 01027,0.00000008,-0.00000382,0.00001602,-0.00000724,0.00000190,0.00001
 036,-0.00000685,-0.00000059,0.00001184,-0.00001841,0.00000956,0.000017
 17,-0.00001322,0.00000593,0.00002468,-0.00001534,0.00000255,-0.0000029
 7,-0.00000730,0.00001718,0.00002645,0.00002307,-0.00002502,-0.00000617
 ,-0.00001811,0.00000849,0.00000486,-0.00000171,-0.00001468,-0.00000384
 ,-0.00001307,-0.00002350,-0.00000558,-0.00000826,-0.00002548,-0.000003
 89,-0.00001010,-0.00001360,0.00000649,-0.00000740,-0.00001660,-0.00000
 563,0.00000172,-0.00001228,-0.00001918,0.00000859,-0.00000783,-0.00001
 778,-0.00000091,-0.00002021,-0.00001614,0.00000359,-0.00001867,-0.0000
 1819,0.00000278,-0.00000676,0.00000503,0.00000059,0.00000256,0.0000017
 9,0.00000050,0.00001125,-0.00000147\\\@


 NO MATTER HOW THIN YOU SLICE IT, IT'S STILL BALONEY

                                   -- ALFRED E. SMITH
 Job cpu time:       0 days 16 hours 59 minutes 39.8 seconds.
 File lengths (MBytes):  RWF=   1177 Int=      0 D2E=      0 Chk=     30 Scr=      1
 Normal termination of Gaussian 09 at Fri Feb  4 16:08:59 2022.
