 Entering Gaussian System, Link 0=g09
 Input=ts_claisen_freq.com
 Output=ts_claisen_freq.log
 Initial command:
 /apps/applications/gaussian/G09.D01/2/default/g09/l1.exe "/nobackup/pmmass/Temp/Gau-202608.inp" -scrdir="/nobackup/pmmass/Temp/"
 Entering Link 1 = /apps/applications/gaussian/G09.D01/2/default/g09/l1.exe PID=    202609.
  
 Copyright (c) 1988,1990,1992,1993,1995,1998,2003,2009,2013,
            Gaussian, Inc.  All Rights Reserved.
  
 This is part of the Gaussian(R) 09 program.  It is based on
 the Gaussian(R) 03 system (copyright 2003, Gaussian, Inc.),
 the Gaussian(R) 98 system (copyright 1998, Gaussian, Inc.),
 the Gaussian(R) 94 system (copyright 1995, Gaussian, Inc.),
 the Gaussian 92(TM) system (copyright 1992, Gaussian, Inc.),
 the Gaussian 90(TM) system (copyright 1990, Gaussian, Inc.),
 the Gaussian 88(TM) system (copyright 1988, Gaussian, Inc.),
 the Gaussian 86(TM) system (copyright 1986, Carnegie Mellon
 University), and the Gaussian 82(TM) system (copyright 1983,
 Carnegie Mellon University). Gaussian is a federally registered
 trademark of Gaussian, Inc.
  
 This software contains proprietary and confidential information,
 including trade secrets, belonging to Gaussian, Inc.
  
 This software is provided under written license and may be
 used, copied, transmitted, or stored only in accord with that
 written license.
  
 The following legend is applicable only to US Government
 contracts under FAR:
  
                    RESTRICTED RIGHTS LEGEND
  
 Use, reproduction and disclosure by the US Government is
 subject to restrictions as set forth in subparagraphs (a)
 and (c) of the Commercial Computer Software - Restricted
 Rights clause in FAR 52.227-19.
  
 Gaussian, Inc.
 340 Quinnipiac St., Bldg. 40, Wallingford CT 06492
  
  
 ---------------------------------------------------------------
 Warning -- This program may not be used in any manner that
 competes with the business of Gaussian, Inc. or will provide
 assistance to any competitor of Gaussian, Inc.  The licensee
 of this program is prohibited from giving any competitor of
 Gaussian, Inc. access to this program.  By using this program,
 the user acknowledges that Gaussian, Inc. is engaged in the
 business of creating and licensing software in the field of
 computational chemistry and represents and warrants to the
 licensee that it is not a competitor of Gaussian, Inc. and that
 it will not use this program in any manner prohibited above.
 ---------------------------------------------------------------
  

 Cite this work as:
 Gaussian 09, Revision D.01,
 M. J. Frisch, G. W. Trucks, H. B. Schlegel, G. E. Scuseria, 
 M. A. Robb, J. R. Cheeseman, G. Scalmani, V. Barone, B. Mennucci, 
 G. A. Petersson, H. Nakatsuji, M. Caricato, X. Li, H. P. Hratchian, 
 A. F. Izmaylov, J. Bloino, G. Zheng, J. L. Sonnenberg, M. Hada, 
 M. Ehara, K. Toyota, R. Fukuda, J. Hasegawa, M. Ishida, T. Nakajima, 
 Y. Honda, O. Kitao, H. Nakai, T. Vreven, J. A. Montgomery, Jr., 
 J. E. Peralta, F. Ogliaro, M. Bearpark, J. J. Heyd, E. Brothers, 
 K. N. Kudin, V. N. Staroverov, T. Keith, R. Kobayashi, J. Normand, 
 K. Raghavachari, A. Rendell, J. C. Burant, S. S. Iyengar, J. Tomasi, 
 M. Cossi, N. Rega, J. M. Millam, M. Klene, J. E. Knox, J. B. Cross, 
 V. Bakken, C. Adamo, J. Jaramillo, R. Gomperts, R. E. Stratmann, 
 O. Yazyev, A. J. Austin, R. Cammi, C. Pomelli, J. W. Ochterski, 
 R. L. Martin, K. Morokuma, V. G. Zakrzewski, G. A. Voth, 
 P. Salvador, J. J. Dannenberg, S. Dapprich, A. D. Daniels, 
 O. Farkas, J. B. Foresman, J. V. Ortiz, J. Cioslowski, 
 and D. J. Fox, Gaussian, Inc., Wallingford CT, 2013.
 
 ******************************************
 Gaussian 09:  ES64L-G09RevD.01 24-Apr-2013
                 4-Feb-2022 
 ******************************************
 %nprocshared=8
 Will use up to    8 processors via shared memory.
 %mem=4GB
 %NoSave
 %chk="ts_claisen_freq.chk"
 -------------------------------------------------
 #n wB97XD/Def2TZVP scrf(smd,solvent=toluene) freq
 -------------------------------------------------
 1/10=4,30=1,38=1/1,3;
 2/12=2,17=6,18=5,40=1/2;
 3/5=44,7=101,11=2,16=1,25=1,30=1,70=32201,71=2,72=13,74=-58,140=1/1,2,3;
 4//1;
 5/5=2,38=5,53=13,98=1/2;
 8/6=4,10=90,11=11/1;
 11/6=1,8=1,9=11,15=111,16=1/1,2,10;
 10/6=1/2;
 6/7=2,8=2,9=2,10=2,18=1,28=1/1;
 7/8=1,10=1,25=1/1,2,3,16;
 1/10=4,30=1/3;
 99//99;
 -------------------------
 ts_claisen toluene - freq
 -------------------------
 Symbolic Z-matrix:
 Charge =  0 Multiplicity = 1
 C                    -2.24341   2.68904   0.34981 
 C                    -2.57565   1.35842   0.34253 
 C                    -1.6514    0.38669  -0.08703 
 C                    -0.36519   0.80629  -0.49572 
 C                    -0.06026   2.17563  -0.49694 
 C                    -0.97738   3.10598  -0.08006 
 H                    -2.96967   3.42076   0.68116 
 H                    -3.56104   1.04734   0.66111 
 H                     0.92186   2.47355  -0.83941 
 H                    -0.72772   4.15968  -0.08558 
 C                     0.63371  -0.16092  -0.95496 
 C                    -1.95684  -1.0155   -0.14996 
 C                     0.26613  -1.52461  -0.92924 
 H                     0.91251  -2.23283  -1.42643 
 C                    -1.05394  -1.92255  -0.5849 
 H                    -1.32475  -2.96851  -0.64943 
 O                     1.80529   0.20219  -1.264 
 Cl                   -3.54498  -1.56696   0.31926 
 C                     3.10795  -0.14549   0.44859 
 C                     2.7294   -1.48114   0.55929 
 H                     3.33232  -2.20659   0.02358 
 C                     4.38515   0.19745  -0.23873 
 H                     4.69701  -0.5814   -0.93262 
 H                     4.28068   1.1363   -0.78212 
 H                     5.17444   0.33647   0.50802 
 C                     2.54526   0.91991   1.32971 
 H                     1.49703   0.76785   1.57691 
 H                     3.10927   0.92523   2.2686 
 H                     2.65628   1.90051   0.87061 
 C                     1.50088  -1.88483   1.01448 
 H                     1.25156  -2.93738   1.03544 
 H                     0.86611  -1.24642   1.61355 
 

 GradGradGradGradGradGradGradGradGradGradGradGradGradGradGradGradGradGrad
 Berny optimization.
 Initialization pass.
 Trust Radius=3.00D-01 FncErr=1.00D-07 GrdErr=1.00D-07
 Number of steps in this run=      2 maximum allowed number of steps=      2.
 GradGradGradGradGradGradGradGradGradGradGradGradGradGradGradGradGradGrad

                          Input orientation:                          
 ---------------------------------------------------------------------
 Center     Atomic      Atomic             Coordinates (Angstroms)
 Number     Number       Type             X           Y           Z
 ---------------------------------------------------------------------
      1          6           0       -2.243410    2.689040    0.349810
      2          6           0       -2.575650    1.358420    0.342530
      3          6           0       -1.651400    0.386690   -0.087030
      4          6           0       -0.365190    0.806290   -0.495720
      5          6           0       -0.060260    2.175630   -0.496940
      6          6           0       -0.977380    3.105980   -0.080060
      7          1           0       -2.969670    3.420760    0.681160
      8          1           0       -3.561040    1.047340    0.661110
      9          1           0        0.921860    2.473550   -0.839410
     10          1           0       -0.727720    4.159680   -0.085580
     11          6           0        0.633710   -0.160920   -0.954960
     12          6           0       -1.956840   -1.015500   -0.149960
     13          6           0        0.266130   -1.524610   -0.929240
     14          1           0        0.912510   -2.232830   -1.426430
     15          6           0       -1.053940   -1.922550   -0.584900
     16          1           0       -1.324750   -2.968510   -0.649430
     17          8           0        1.805290    0.202190   -1.264000
     18         17           0       -3.544980   -1.566960    0.319260
     19          6           0        3.107950   -0.145490    0.448590
     20          6           0        2.729400   -1.481140    0.559290
     21          1           0        3.332320   -2.206590    0.023580
     22          6           0        4.385150    0.197450   -0.238730
     23          1           0        4.697010   -0.581400   -0.932620
     24          1           0        4.280680    1.136300   -0.782120
     25          1           0        5.174440    0.336470    0.508020
     26          6           0        2.545260    0.919910    1.329710
     27          1           0        1.497030    0.767850    1.576910
     28          1           0        3.109270    0.925230    2.268600
     29          1           0        2.656280    1.900510    0.870610
     30          6           0        1.500880   -1.884830    1.014480
     31          1           0        1.251560   -2.937380    1.035440
     32          1           0        0.866110   -1.246420    1.613550
 ---------------------------------------------------------------------
                    Distance matrix (angstroms):
                    1          2          3          4          5
     1  C    0.000000
     2  C    1.371490   0.000000
     3  C    2.417048   1.408197   0.000000
     4  C    2.790588   2.427683   1.413304   0.000000
     5  C    2.397232   2.774839   2.429004   1.402881   0.000000
     6  C    1.400521   2.405622   2.801587   2.415807   1.371295
     7  H    1.082895   2.126774   3.396105   3.873476   3.376823
     8  H    2.127965   1.081322   2.154738   3.407318   3.856109
     9  H    3.388158   3.856562   3.397459   2.134099   1.081943
    10  H    2.156308   3.383073   3.884410   3.397774   2.133348
    11  C    4.254705   3.780458   2.504976   1.464308   2.480089
    12  C    3.749068   2.502193   1.436451   2.443730   3.728367
    13  C    5.068393   4.243227   2.835367   2.453487   3.739678
    14  H    6.110619   5.309760   3.902501   3.425637   4.609203
    15  C    4.853379   3.733697   2.436683   2.815830   4.217845
    16  H    5.818100   4.612056   3.417654   3.897884   5.299468
    17  O    5.018045   4.807332   3.656228   2.380373   2.821901
    18  Cl   4.450680   3.081881   2.750903   4.050626   5.178459
    19  C    6.056515   5.880162   4.818871   3.722943   4.039700
    20  C    6.493314   6.021100   4.806030   3.990222   4.719088
    21  H    7.427138   6.907614   5.619146   4.797781   5.566363
    22  C    7.105787   7.080851   6.041420   4.796088   4.872529
    23  H    7.778807   7.634166   6.477232   5.267109   5.515673
    24  H    6.801178   6.951506   6.019521   4.666373   4.472728
    25  H    7.783580   7.818930   6.851912   5.649400   5.638665
    26  C    5.198210   5.233597   4.461326   3.437415   3.420850
    27  H    4.380369   4.296416   3.581423   2.786599   2.950907
    28  H    5.953483   6.017949   5.338820   4.441563   4.388352
    29  H    4.989987   5.286381   4.665279   3.491913   3.053764
    30  C    5.948259   5.252455   4.038564   3.606251   4.605310
    31  H    6.658942   5.794960   4.553741   4.355846   5.496538
    32  H    5.172427   4.499599   3.449185   3.190413   4.125864
                    6          7          8          9         10
     6  C    0.000000
     7  H    2.155867   0.000000
     8  H    3.385651   2.446067   0.000000
     9  H    2.140956   4.284080   4.937816   0.000000
    10  H    1.082887   2.481982   4.274565   2.476370   0.000000
    11  C    3.746158   5.337571   4.654836   2.652699   4.612689
    12  C    4.236841   4.625688   2.736165   4.575557   5.319527
    13  C    4.869270   6.125396   4.877640   4.052571   5.831865
    14  H    5.821279   7.174701   5.927056   4.742857   6.734420
    15  C    5.054388   5.815831   4.081463   4.826412   6.111404
    16  H    6.110996   6.730453   4.779703   5.890617   7.175337
    17  O    4.192489   6.078082   5.763491   2.473823   4.844228
    18  Cl   5.346812   5.033816   2.636605   6.133588   6.394940
    19  C    5.247995   7.050510   6.778159   3.646547   5.790699
    20  C    5.932171   7.518170   6.780355   4.567618   6.647284
    21  H    6.841612   8.474347   7.649374   5.334677   7.551505
    22  C    6.102577   8.082654   8.042012   4.187580   6.470252
    23  H    6.820728   8.797702   8.566689   4.857280   7.254172
    24  H    5.658597   7.741287   7.973920   3.615687   5.891525
    25  H    6.772069   8.710301   8.765694   4.946424   7.057251
    26  C    4.378966   6.090100   6.144116   3.123188   4.817837
    27  H    3.786173   5.271784   5.147900   3.013111   4.383822
    28  H    5.193514   6.760262   6.862359   4.103874   5.543133
    29  H    3.944669   5.830812   6.279081   2.502150   4.179666
    30  C    5.678730   6.945949   5.860506   4.771546   6.535510
    31  H    6.537179   7.640042   6.259332   5.736020   7.452684
    32  H    5.020972   6.112702   5.076232   4.456265   5.886701
                   11         12         13         14         15
    11  C    0.000000
    12  C    2.844166   0.000000
    13  C    1.412596   2.409993   0.000000
    14  H    2.143088   3.368150   1.080084   0.000000
    15  C    2.467478   1.351718   1.421095   2.161336   0.000000
    16  H    3.436783   2.112642   2.166573   2.479977   1.082374
    17  O    1.264893   4.108221   2.337288   2.598608   3.626416
    18  Cl   4.589339   1.745412   4.010624   4.833222   2.673804
    19  C    2.844654   5.173710   3.446205   3.562674   4.641915
    20  C    2.903076   4.762426   2.878421   2.794497   3.977144
    21  H    3.524883   5.424392   3.282451   2.821116   4.437364
    22  C    3.835977   6.457551   4.517590   4.401832   5.847900
    23  H    4.085059   6.713771   4.530160   4.158547   5.915490
    24  H    3.874667   6.628463   4.818578   4.807363   6.152530
    25  H    4.796450   7.288067   5.442503   5.339237   6.714936
    26  C    3.168901   5.118998   4.033977   4.494658   4.969864
    27  H    2.831660   4.253426   3.612655   4.285533   4.291751
    28  H    4.207072   5.939809   4.930653   5.334074   5.795225
    29  H    3.416576   5.552077   4.547936   5.040003   5.522683
    30  C    2.757271   3.750664   2.330754   2.534822   3.014390
    31  H    3.471622   3.923344   2.612845   2.583050   2.995115
    32  H    2.798136   3.336516   2.627384   3.196347   2.996152
                   16         17         18         19         20
    16  H    0.000000
    17  O    4.497575   0.000000
    18  Cl   2.798593   5.853374   0.000000
    19  C    5.368791   2.179626   6.804321   0.000000
    20  C    4.484351   2.648012   6.279556   1.392665   0.000000
    21  H    4.766735   3.129202   6.913307   2.116390   1.084793
    22  C    6.541784   2.776127   8.143185   1.490388   2.489178
    23  H    6.483833   3.014278   8.394577   2.150086   2.628082
    24  H    6.948951   2.689298   8.352341   2.129067   3.325183
    25  H    7.382551   3.809102   8.926755   2.122781   3.047057
    26  C    5.832134   2.791059   6.655566   1.492672   2.528339
    27  H    5.184536   2.913034   5.696919   2.168492   2.759029
    28  H    6.583057   3.834373   7.368173   2.111606   2.976014
    29  H    6.470431   2.857452   7.126216   2.137340   3.396737
    30  C    3.453570   3.104801   5.103438   2.434791   1.370921
    31  H    3.078495   3.930769   5.039619   3.403708   2.128700
    32  H    3.589783   3.355715   4.608215   2.755907   2.153696
                   21         22         23         24         25
    21  H    0.000000
    22  C    2.637549   0.000000
    23  H    2.327647   1.088737   0.000000
    24  H    3.566995   1.089783   1.773830   0.000000
    25  H    3.177301   1.095418   1.773660   1.761532   0.000000
    26  C    3.478569   2.523321   3.464404   2.741958   2.815700
    27  H    3.824711   3.458778   4.284634   3.667354   3.853824
    28  H    3.859814   2.905897   3.877971   3.274698   2.776906
    29  H    4.247677   2.668340   3.684575   2.440125   2.986440
    30  C    2.107032   3.771663   3.963001   4.481326   4.322698
    31  H    2.426412   4.611947   4.614654   5.392028   5.136658
    32  H    3.087414   4.230762   4.647691   4.803736   4.721170
                   26         27         28         29         30
    26  C    0.000000
    27  H    1.087665   0.000000
    28  H    1.095285   1.761398   0.000000
    29  H    1.088428   1.767948   1.763731   0.000000
    30  C    3.009430   2.711651   3.472200   3.960359   0.000000
    31  H    4.079086   3.752622   4.459992   5.040396   1.081879
    32  H    2.755557   2.111086   3.190129   3.695922   1.081381
                   31         32
    31  H    0.000000
    32  H    1.828149   0.000000
 Stoichiometry    C15H15ClO
 Framework group  C1[X(C15H15ClO)]
 Deg. of freedom    90
 Full point group                 C1      NOp   1
 Largest Abelian subgroup         C1      NOp   1
 Largest concise Abelian subgroup C1      NOp   1
                         Standard orientation:                         
 ---------------------------------------------------------------------
 Center     Atomic      Atomic             Coordinates (Angstroms)
 Number     Number       Type             X           Y           Z
 ---------------------------------------------------------------------
      1          6           0       -2.243408    2.689042    0.349810
      2          6           0       -2.575649    1.358422    0.342530
      3          6           0       -1.651400    0.386691   -0.087030
      4          6           0       -0.365189    0.806290   -0.495720
      5          6           0       -0.060258    2.175630   -0.496940
      6          6           0       -0.977378    3.105981   -0.080060
      7          1           0       -2.969668    3.420762    0.681160
      8          1           0       -3.561039    1.047343    0.661110
      9          1           0        0.921862    2.473549   -0.839410
     10          1           0       -0.727717    4.159681   -0.085580
     11          6           0        0.633710   -0.160920   -0.954960
     12          6           0       -1.956841   -1.015498   -0.149960
     13          6           0        0.266129   -1.524610   -0.929240
     14          1           0        0.912508   -2.232831   -1.426430
     15          6           0       -1.053941   -1.922549   -0.584900
     16          1           0       -1.324752   -2.968509   -0.649430
     17          8           0        1.805290    0.202189   -1.264000
     18         17           0       -3.544981   -1.566957    0.319260
     19          6           0        3.107950   -0.145492    0.448590
     20          6           0        2.729399   -1.481142    0.559290
     21          1           0        3.332318   -2.206592    0.023580
     22          6           0        4.385150    0.197447   -0.238730
     23          1           0        4.697009   -0.581403   -0.932620
     24          1           0        4.280681    1.136297   -0.782120
     25          1           0        5.174440    0.336466    0.508020
     26          6           0        2.545261    0.919908    1.329710
     27          1           0        1.497030    0.767849    1.576910
     28          1           0        3.109271    0.925228    2.268600
     29          1           0        2.656281    1.900508    0.870610
     30          6           0        1.500879   -1.884831    1.014480
     31          1           0        1.251558   -2.937381    1.035440
     32          1           0        0.866109   -1.246420    1.613550
 ---------------------------------------------------------------------
 Rotational constants (GHZ):      0.6862701      0.3304501      0.2499748
 Standard basis: def2TZVP (5D, 7F)
 There are   708 symmetry adapted cartesian basis functions of A   symmetry.
 There are   623 symmetry adapted basis functions of A   symmetry.
   623 basis functions,  1005 primitive gaussians,   708 cartesian basis functions
    65 alpha electrons       65 beta electrons
       nuclear repulsion energy      1298.1442197038 Hartrees.
 NAtoms=   32 NActive=   32 NUniq=   32 SFac= 1.00D+00 NAtFMM=   60 NAOKFM=F Big=F
 Integral buffers will be    131072 words long.
 Raffenetti 2 integral format.
 Two-electron integral symmetry is turned on.
 Nuclear repulsion after empirical dispersion term =     1298.1174408633 Hartrees.
 Force inversion solution in PCM.
 ------------------------------------------------------------------------------
 Polarizable Continuum Model (PCM)
 =================================
 Model                : PCM (using non-symmetric T matrix).
 Atomic radii         : SMD-Coulomb.
 Polarization charges : Total charges.
 Charge compensation  : None.
 Solution method      : Matrix inversion.
 Cavity type          : VdW (van der Waals Surface) (Alpha=1.000).
 Cavity algorithm     : GePol (No added spheres)
                        Default sphere list used, NSphG=   32.
                        Lebedev-Laikov grids with approx.  5.0 points / Ang**2.
                        Smoothing algorithm: Karplus/York (Gamma=1.0000).
                        Polarization charges: spherical gaussians, with
                                              point-specific exponents (IZeta= 3).
                        Self-potential: point-specific (ISelfS= 7).
                        Self-field    : sphere-specific E.n sum rule (ISelfD= 2).
 1st derivatives      : Analytical E(r).r(x)/FMM algorithm (CHGder, D1EAlg=3).
                        Cavity 1st derivative terms included.
 2nd derivatives      : Analytical E(r).r(xy)/FMM algorithm (CHGder, D2EAlg=3).
                        Cavity 2nd derivative terms included.
 Solvent              : Toluene, Eps=   2.374100 Eps(inf)=   2.238315
 ------------------------------------------------------------------------------
 ------------------------------------------------------------------------------
 Atomic radii for non-electrostatic terms: SMD-CDS.
 ------------------------------------------------------------------------------
 Nuclear repulsion after PCM non-electrostatic terms =     1298.1066900480 Hartrees.
 One-electron integrals computed using PRISM.
   1 Symmetry operations used in ECPInt.
 ECPInt:  NShTT=   31125 NPrTT=   96136 LenC2=   28837 LenP2D=   65244.
 LDataN:  DoStor=T MaxTD1= 6 Len=  172
 NBasis=   623 RedAO= T EigKep=  5.78D-06  NBF=   623
 NBsUse=   623 1.00D-06 EigRej= -1.00D+00 NBFU=   623
 ExpMin= 9.52D-02 ExpMax= 6.95D+04 ExpMxC= 2.37D+03 IAcc=2 IRadAn=         4 AccDes= 0.00D+00
 Harris functional with IExCor= 4639 and IRadAn=       4 diagonalized for initial guess.
 HarFok:  IExCor= 4639 AccDes= 0.00D+00 IRadAn=         4 IDoV= 1 UseB2=F ITyADJ=14
 ICtDFT=  3500011 ScaDFX=  1.000000  1.000000  1.000000  1.000000
 FoFCou: FMM=F IPFlag=           0 FMFlag=      100000 FMFlg1=           0
         NFxFlg=           0 DoJE=T BraDBF=F KetDBF=T FulRan=T
         wScrn=  0.000000 ICntrl=     500 IOpCl=  0 I1Cent=   200000004 NGrid=           0
         NMat0=    1 NMatS0=      1 NMatT0=    0 NMatD0=    1 NMtDS0=    0 NMtDT0=    0
 Petite list used in FoFCou.
 Requested convergence on RMS density matrix=1.00D-08 within 128 cycles.
 Requested convergence on MAX density matrix=1.00D-06.
 Requested convergence on             energy=1.00D-06.
 No special actions if energy rises.
 Inv3:  Mode=1 IEnd=    17641875.
 Iteration    1 A*A^-1 deviation from unit magnitude is 3.89D-15 for   2416.
 Iteration    1 A*A^-1 deviation from orthogonality  is 2.22D-15 for   1975   1569.
 Iteration    1 A^-1*A deviation from unit magnitude is 3.77D-15 for   2411.
 Iteration    1 A^-1*A deviation from orthogonality  is 2.01D-13 for   1454   1411.
 Error on total polarization charges =  0.02631
 SCF Done:  E(RwB97XD) =  -1116.03410816     A.U. after   16 cycles
            NFock= 16  Conv=0.57D-08     -V/T= 2.0035
 SMD-CDS (non-electrostatic) energy       (kcal/mol) =      -6.75
 (included in total energy above)
 DoSCS=F DFT=T ScalE2(SS,OS)=  1.000000  1.000000
 Range of M.O.s used for correlation:     1   623
 NBasis=   623 NAE=    65 NBE=    65 NFC=     0 NFV=     0
 NROrb=    623 NOA=    65 NOB=    65 NVA=   558 NVB=   558

 **** Warning!!: The largest alpha MO coefficient is  0.61172986D+02

   1 Symmetry operations used in ECPInt.
 ECPInt:  NShTT=   31125 NPrTT=   96136 LenC2=   28837 LenP2D=   65244.
 LDataN:  DoStor=T MaxTD1= 7 Len=  274
 Number of processors reduced to   4 by ecpmxn.
 Symmetrizing basis deriv contribution to polar:
 IMax=3 JMax=2 DiffMx= 0.00D+00
 G2DrvN: will do    33 centers at a time, making    1 passes.
 Calling FoFCou, ICntrl=  3107 FMM=F I1Cent=   0 AccDes= 0.00D+00.
 NEqPCM:  Using equilibrium solvation (IEInf=0, Eps=   2.3741, EpsInf=   2.2383)
 G2PCM: DoFxE=T DoFxN=T DoGrad=T DoDP/DQ/DG/TGxP=FFFF NFrqRd=   0 IEInf=0 SqF1=F DoCFld=F IF1Alg=4.
 End of G2Drv F.D. properties file   721 does not exist.
 End of G2Drv F.D. properties file   722 does not exist.
 End of G2Drv F.D. properties file   788 does not exist.
          IDoAtm=11111111111111111111111111111111
 NEqPCM:  Using equilibrium solvation (IEInf=0, Eps=   2.3741, EpsInf=   2.2383)
          Differentiating once with respect to electric field.
                with respect to dipole field.
          Differentiating once with respect to nuclear coordinates.
          There are    99 degrees of freedom in the 1st order CPHF.  IDoFFX=6 NUNeed=     3.
     96 vectors produced by pass  0 Test12= 3.66D-14 1.01D-09 XBig12= 1.72D+02 8.21D+00.
 AX will form    96 AO Fock derivatives at one time.
     96 vectors produced by pass  1 Test12= 3.66D-14 1.01D-09 XBig12= 1.59D+01 5.62D-01.
     96 vectors produced by pass  2 Test12= 3.66D-14 1.01D-09 XBig12= 4.19D-01 1.04D-01.
     96 vectors produced by pass  3 Test12= 3.66D-14 1.01D-09 XBig12= 5.25D-03 7.97D-03.
     96 vectors produced by pass  4 Test12= 3.66D-14 1.01D-09 XBig12= 5.66D-05 6.69D-04.
     96 vectors produced by pass  5 Test12= 3.66D-14 1.01D-09 XBig12= 5.61D-07 6.73D-05.
     96 vectors produced by pass  6 Test12= 3.66D-14 1.01D-09 XBig12= 4.72D-09 4.22D-06.
     46 vectors produced by pass  7 Test12= 3.66D-14 1.01D-09 XBig12= 3.22D-11 3.70D-07.
      4 vectors produced by pass  8 Test12= 3.66D-14 1.01D-09 XBig12= 2.55D-13 3.30D-08.
      3 vectors produced by pass  9 Test12= 3.66D-14 1.01D-09 XBig12= 1.32D-14 1.07D-08.
      1 vectors produced by pass 10 Test12= 3.66D-14 1.01D-09 XBig12= 3.18D-16 1.82D-09.
 InvSVY:  IOpt=1 It=  1 EMax= 1.42D-14
 Solved reduced A of dimension   726 with    99 vectors.
 Isotropic polarizability for W=    0.000000      254.66 Bohr**3.
 End of Minotr F.D. properties file   721 does not exist.
 End of Minotr F.D. properties file   722 does not exist.
 End of Minotr F.D. properties file   788 does not exist.

 **********************************************************************

            Population analysis using the SCF density.

 **********************************************************************

 Orbital symmetries:
       Occupied  (A) (A) (A) (A) (A) (A) (A) (A) (A) (A) (A) (A)
                 (A) (A) (A) (A) (A) (A) (A) (A) (A) (A) (A) (A)
                 (A) (A) (A) (A) (A) (A) (A) (A) (A) (A) (A) (A)
                 (A) (A) (A) (A) (A) (A) (A) (A) (A) (A) (A) (A)
                 (A) (A) (A) (A) (A) (A) (A) (A) (A) (A) (A) (A)
                 (A) (A) (A) (A) (A)
       Virtual   (A) (A) (A) (A) (A) (A) (A) (A) (A) (A) (A) (A)
                 (A) (A) (A) (A) (A) (A) (A) (A) (A) (A) (A) (A)
                 (A) (A) (A) (A) (A) (A) (A) (A) (A) (A) (A) (A)
                 (A) (A) (A) (A) (A) (A) (A) (A) (A) (A) (A) (A)
                 (A) (A) (A) (A) (A) (A) (A) (A) (A) (A) (A) (A)
                 (A) (A) (A) (A) (A) (A) (A) (A) (A) (A) (A) (A)
                 (A) (A) (A) (A) (A) (A) (A) (A) (A) (A) (A) (A)
                 (A) (A) (A) (A) (A) (A) (A) (A) (A) (A) (A) (A)
                 (A) (A) (A) (A) (A) (A) (A) (A) (A) (A) (A) (A)
                 (A) (A) (A) (A) (A) (A) (A) (A) (A) (A) (A) (A)
                 (A) (A) (A) (A) (A) (A) (A) (A) (A) (A) (A) (A)
                 (A) (A) (A) (A) (A) (A) (A) (A) (A) (A) (A) (A)
                 (A) (A) (A) (A) (A) (A) (A) (A) (A) (A) (A) (A)
                 (A) (A) (A) (A) (A) (A) (A) (A) (A) (A) (A) (A)
                 (A) (A) (A) (A) (A) (A) (A) (A) (A) (A) (A) (A)
                 (A) (A) (A) (A) (A) (A) (A) (A) (A) (A) (A) (A)
                 (A) (A) (A) (A) (A) (A) (A) (A) (A) (A) (A) (A)
                 (A) (A) (A) (A) (A) (A) (A) (A) (A) (A) (A) (A)
                 (A) (A) (A) (A) (A) (A) (A) (A) (A) (A) (A) (A)
                 (A) (A) (A) (A) (A) (A) (A) (A) (A) (A) (A) (A)
                 (A) (A) (A) (A) (A) (A) (A) (A) (A) (A) (A) (A)
                 (A) (A) (A) (A) (A) (A) (A) (A) (A) (A) (A) (A)
                 (A) (A) (A) (A) (A) (A) (A) (A) (A) (A) (A) (A)
                 (A) (A) (A) (A) (A) (A) (A) (A) (A) (A) (A) (A)
                 (A) (A) (A) (A) (A) (A) (A) (A) (A) (A) (A) (A)
                 (A) (A) (A) (A) (A) (A) (A) (A) (A) (A) (A) (A)
                 (A) (A) (A) (A) (A) (A) (A) (A) (A) (A) (A) (A)
                 (A) (A) (A) (A) (A) (A) (A) (A) (A) (A) (A) (A)
                 (A) (A) (A) (A) (A) (A) (A) (A) (A) (A) (A) (A)
                 (A) (A) (A) (A) (A) (A) (A) (A) (A) (A) (A) (A)
                 (A) (A) (A) (A) (A) (A) (A) (A) (A) (A) (A) (A)
                 (A) (A) (A) (A) (A) (A) (A) (A) (A) (A) (A) (A)
                 (A) (A) (A) (A) (A) (A) (A) (A) (A) (A) (A) (A)
                 (A) (A) (A) (A) (A) (A) (A) (A) (A) (A) (A) (A)
                 (A) (A) (A) (A) (A) (A) (A) (A) (A) (A) (A) (A)
                 (A) (A) (A) (A) (A) (A) (A) (A) (A) (A) (A) (A)
                 (A) (A) (A) (A) (A) (A) (A) (A) (A) (A) (A) (A)
                 (A) (A) (A) (A) (A) (A) (A) (A) (A) (A) (A) (A)
                 (A) (A) (A) (A) (A) (A) (A) (A) (A) (A) (A) (A)
                 (A) (A) (A) (A) (A) (A) (A) (A) (A) (A) (A) (A)
                 (A) (A) (A) (A) (A) (A) (A) (A) (A) (A) (A) (A)
                 (A) (A) (A) (A) (A) (A) (A) (A) (A) (A) (A) (A)
                 (A) (A) (A) (A) (A) (A) (A) (A) (A) (A) (A) (A)
                 (A) (A) (A) (A) (A) (A) (A) (A) (A) (A) (A) (A)
                 (A) (A) (A) (A) (A) (A) (A) (A) (A) (A) (A) (A)
                 (A) (A) (A) (A) (A) (A) (A) (A) (A) (A) (A) (A)
                 (A) (A) (A) (A) (A) (A)
 The electronic state is 1-A.
 Alpha  occ. eigenvalues -- -101.69351 -19.21640 -10.34291 -10.34224 -10.33663
 Alpha  occ. eigenvalues --  -10.31419 -10.30665 -10.29393 -10.29340 -10.29017
 Alpha  occ. eigenvalues --  -10.28788 -10.28655 -10.28535 -10.28436 -10.28144
 Alpha  occ. eigenvalues --  -10.28037 -10.27851  -9.57909  -7.32540  -7.31697
 Alpha  occ. eigenvalues --   -7.31675  -1.10816  -0.99439  -0.95310  -0.93761
 Alpha  occ. eigenvalues --   -0.90987  -0.85746  -0.85401  -0.84351  -0.80104
 Alpha  occ. eigenvalues --   -0.79118  -0.72796  -0.71944  -0.71452  -0.66454
 Alpha  occ. eigenvalues --   -0.62421  -0.60413  -0.60305  -0.58149  -0.57266
 Alpha  occ. eigenvalues --   -0.55166  -0.54875  -0.54193  -0.51982  -0.51167
 Alpha  occ. eigenvalues --   -0.51002  -0.49750  -0.49375  -0.48555  -0.47593
 Alpha  occ. eigenvalues --   -0.46713  -0.46524  -0.45837  -0.44985  -0.44315
 Alpha  occ. eigenvalues --   -0.43649  -0.43406  -0.41960  -0.39286  -0.38250
 Alpha  occ. eigenvalues --   -0.36768  -0.34097  -0.33209  -0.31248  -0.26701
 Alpha virt. eigenvalues --   -0.01251   0.02792   0.05045   0.09569   0.10885
 Alpha virt. eigenvalues --    0.11530   0.11767   0.13644   0.13700   0.14228
 Alpha virt. eigenvalues --    0.16105   0.16719   0.17005   0.17901   0.18292
 Alpha virt. eigenvalues --    0.18601   0.19126   0.20075   0.20978   0.21278
 Alpha virt. eigenvalues --    0.21976   0.22401   0.22793   0.23440   0.25231
 Alpha virt. eigenvalues --    0.25268   0.25792   0.26962   0.27167   0.27690
 Alpha virt. eigenvalues --    0.28226   0.28982   0.29767   0.30086   0.30469
 Alpha virt. eigenvalues --    0.30885   0.31673   0.31840   0.32930   0.33016
 Alpha virt. eigenvalues --    0.33835   0.34506   0.34834   0.35345   0.36072
 Alpha virt. eigenvalues --    0.37408   0.37735   0.37877   0.38844   0.39657
 Alpha virt. eigenvalues --    0.39982   0.40663   0.41623   0.42065   0.42268
 Alpha virt. eigenvalues --    0.42618   0.43525   0.44085   0.44465   0.44880
 Alpha virt. eigenvalues --    0.45313   0.45876   0.46569   0.46874   0.47199
 Alpha virt. eigenvalues --    0.47671   0.48319   0.48971   0.49538   0.49977
 Alpha virt. eigenvalues --    0.50108   0.50934   0.51508   0.51750   0.52549
 Alpha virt. eigenvalues --    0.52767   0.53048   0.53672   0.54313   0.54894
 Alpha virt. eigenvalues --    0.54960   0.56007   0.56181   0.56380   0.56833
 Alpha virt. eigenvalues --    0.57316   0.58045   0.58986   0.59235   0.60493
 Alpha virt. eigenvalues --    0.60943   0.61578   0.62071   0.62744   0.63625
 Alpha virt. eigenvalues --    0.64215   0.64954   0.66754   0.67367   0.67601
 Alpha virt. eigenvalues --    0.67768   0.68589   0.69921   0.70522   0.71490
 Alpha virt. eigenvalues --    0.72775   0.73041   0.74065   0.74457   0.74849
 Alpha virt. eigenvalues --    0.75982   0.77992   0.78615   0.78783   0.79855
 Alpha virt. eigenvalues --    0.80387   0.80944   0.81288   0.82164   0.83398
 Alpha virt. eigenvalues --    0.84413   0.85020   0.85695   0.86602   0.86961
 Alpha virt. eigenvalues --    0.87515   0.89748   0.90142   0.90790   0.91346
 Alpha virt. eigenvalues --    0.91722   0.93047   0.93738   0.95096   0.95867
 Alpha virt. eigenvalues --    0.97022   0.97745   0.98618   0.99168   0.99451
 Alpha virt. eigenvalues --    1.01169   1.01979   1.02918   1.03977   1.04543
 Alpha virt. eigenvalues --    1.05652   1.06755   1.08618   1.08974   1.09684
 Alpha virt. eigenvalues --    1.10069   1.11222   1.11379   1.13455   1.13992
 Alpha virt. eigenvalues --    1.15093   1.15986   1.16458   1.18714   1.19789
 Alpha virt. eigenvalues --    1.20602   1.21776   1.22740   1.24344   1.24661
 Alpha virt. eigenvalues --    1.26039   1.26176   1.27527   1.27971   1.28682
 Alpha virt. eigenvalues --    1.29966   1.30891   1.31647   1.32531   1.34012
 Alpha virt. eigenvalues --    1.35462   1.35887   1.35951   1.37475   1.37980
 Alpha virt. eigenvalues --    1.39450   1.40369   1.41131   1.42109   1.43773
 Alpha virt. eigenvalues --    1.45046   1.45840   1.46997   1.48837   1.49218
 Alpha virt. eigenvalues --    1.51703   1.52515   1.53836   1.54430   1.55028
 Alpha virt. eigenvalues --    1.55774   1.56646   1.58217   1.58797   1.59895
 Alpha virt. eigenvalues --    1.60678   1.61638   1.61952   1.62724   1.64080
 Alpha virt. eigenvalues --    1.64399   1.64770   1.66788   1.67210   1.68157
 Alpha virt. eigenvalues --    1.68733   1.69572   1.70260   1.71770   1.71909
 Alpha virt. eigenvalues --    1.72720   1.73791   1.74927   1.75917   1.75948
 Alpha virt. eigenvalues --    1.77322   1.77996   1.78469   1.80039   1.80229
 Alpha virt. eigenvalues --    1.81439   1.81874   1.82942   1.83110   1.84874
 Alpha virt. eigenvalues --    1.85957   1.88277   1.89176   1.89367   1.90872
 Alpha virt. eigenvalues --    1.92166   1.93416   1.93535   1.94316   1.94987
 Alpha virt. eigenvalues --    1.97377   1.98982   1.99398   2.00464   2.01766
 Alpha virt. eigenvalues --    2.01887   2.02145   2.04398   2.05423   2.07414
 Alpha virt. eigenvalues --    2.07507   2.09202   2.09863   2.11072   2.11631
 Alpha virt. eigenvalues --    2.12869   2.13131   2.13322   2.14769   2.16660
 Alpha virt. eigenvalues --    2.17801   2.18161   2.20327   2.21230   2.22475
 Alpha virt. eigenvalues --    2.23225   2.23394   2.25334   2.25599   2.26578
 Alpha virt. eigenvalues --    2.27416   2.28132   2.28315   2.28866   2.30288
 Alpha virt. eigenvalues --    2.31316   2.32735   2.32873   2.33953   2.35343
 Alpha virt. eigenvalues --    2.36823   2.38472   2.38837   2.39833   2.40426
 Alpha virt. eigenvalues --    2.42982   2.43431   2.44044   2.44474   2.44949
 Alpha virt. eigenvalues --    2.45558   2.45874   2.48148   2.49971   2.50316
 Alpha virt. eigenvalues --    2.51194   2.54020   2.55532   2.56167   2.56676
 Alpha virt. eigenvalues --    2.57705   2.58368   2.60705   2.61776   2.62185
 Alpha virt. eigenvalues --    2.63212   2.64111   2.64747   2.67137   2.67765
 Alpha virt. eigenvalues --    2.68651   2.69306   2.69826   2.70646   2.70823
 Alpha virt. eigenvalues --    2.71201   2.71904   2.73191   2.73670   2.74849
 Alpha virt. eigenvalues --    2.75198   2.76650   2.78089   2.80882   2.81120
 Alpha virt. eigenvalues --    2.81806   2.82605   2.83313   2.84465   2.84539
 Alpha virt. eigenvalues --    2.85696   2.86633   2.87512   2.88791   2.89180
 Alpha virt. eigenvalues --    2.89631   2.90056   2.91293   2.92336   2.93266
 Alpha virt. eigenvalues --    2.94143   2.94567   2.95313   2.96629   2.97061
 Alpha virt. eigenvalues --    2.98521   2.99203   2.99914   3.00894   3.02391
 Alpha virt. eigenvalues --    3.02771   3.03071   3.04600   3.05220   3.06116
 Alpha virt. eigenvalues --    3.06641   3.07790   3.08712   3.09900   3.10615
 Alpha virt. eigenvalues --    3.11184   3.13171   3.14170   3.14527   3.15504
 Alpha virt. eigenvalues --    3.16568   3.17501   3.18156   3.18972   3.19196
 Alpha virt. eigenvalues --    3.21567   3.23412   3.23695   3.24840   3.25090
 Alpha virt. eigenvalues --    3.25877   3.26121   3.28309   3.28589   3.29882
 Alpha virt. eigenvalues --    3.30669   3.31823   3.32469   3.32516   3.33806
 Alpha virt. eigenvalues --    3.34281   3.35285   3.35575   3.35691   3.36058
 Alpha virt. eigenvalues --    3.37062   3.37745   3.38978   3.39775   3.40270
 Alpha virt. eigenvalues --    3.41473   3.41989   3.42900   3.42938   3.45103
 Alpha virt. eigenvalues --    3.45654   3.46830   3.47669   3.48210   3.48992
 Alpha virt. eigenvalues --    3.49686   3.50156   3.50870   3.51660   3.52119
 Alpha virt. eigenvalues --    3.52537   3.54938   3.55789   3.56280   3.57329
 Alpha virt. eigenvalues --    3.58354   3.58748   3.59506   3.61139   3.62069
 Alpha virt. eigenvalues --    3.62964   3.63658   3.64019   3.65798   3.67021
 Alpha virt. eigenvalues --    3.67733   3.68617   3.70647   3.71179   3.71398
 Alpha virt. eigenvalues --    3.72402   3.73104   3.74951   3.75472   3.77944
 Alpha virt. eigenvalues --    3.78159   3.79267   3.80729   3.81394   3.83718
 Alpha virt. eigenvalues --    3.84970   3.87415   3.89797   3.91792   3.93454
 Alpha virt. eigenvalues --    3.93991   3.95106   3.96623   3.98184   3.99070
 Alpha virt. eigenvalues --    4.01262   4.02133   4.04112   4.06170   4.09026
 Alpha virt. eigenvalues --    4.10294   4.11180   4.12309   4.14329   4.15381
 Alpha virt. eigenvalues --    4.16216   4.16594   4.18910   4.19923   4.22522
 Alpha virt. eigenvalues --    4.24830   4.25375   4.27437   4.28157   4.29358
 Alpha virt. eigenvalues --    4.29494   4.31826   4.32539   4.34387   4.35211
 Alpha virt. eigenvalues --    4.35835   4.37134   4.37899   4.39899   4.41402
 Alpha virt. eigenvalues --    4.42048   4.43956   4.45181   4.47269   4.48844
 Alpha virt. eigenvalues --    4.49238   4.53155   4.55551   4.56553   4.57638
 Alpha virt. eigenvalues --    4.57817   4.62107   4.64110   4.67661   4.69780
 Alpha virt. eigenvalues --    4.73881   4.74244   4.78172   4.80375   4.82634
 Alpha virt. eigenvalues --    4.83713   4.85182   4.85673   4.88413   4.92401
 Alpha virt. eigenvalues --    4.97053   4.99955   5.01249   5.03043   5.05641
 Alpha virt. eigenvalues --    5.06872   5.08715   5.16291   5.20580   5.21264
 Alpha virt. eigenvalues --    5.26200   5.27499   5.31517   5.33655   5.33857
 Alpha virt. eigenvalues --    5.40478   5.41688   5.43072   5.48738   5.64550
 Alpha virt. eigenvalues --    5.68468   5.71150   5.76076   5.91461   5.94564
 Alpha virt. eigenvalues --    6.20310   6.49417   6.65315   6.76548   6.90215
 Alpha virt. eigenvalues --    7.06108   7.23971   7.27247  10.84683  10.95515
 Alpha virt. eigenvalues --   11.48708  22.22246  22.53373  22.57592  22.60586
 Alpha virt. eigenvalues --   22.70125  22.73263  22.80005  22.83334  22.88752
 Alpha virt. eigenvalues --   22.97945  23.04595  23.06335  23.14082  23.41160
 Alpha virt. eigenvalues --   23.82110  26.07097  44.28258
          Condensed to atoms (all electrons):
               1          2          3          4          5          6
     1  C    4.986649   0.398096   0.045169  -0.107457   0.073512   0.358038
     2  C    0.398096   5.313489   0.316725  -0.002717  -0.165914   0.069739
     3  C    0.045169   0.316725   5.524052   0.033243  -0.027133  -0.086279
     4  C   -0.107457  -0.002717   0.033243   6.486565   0.139483   0.010710
     5  C    0.073512  -0.165914  -0.027133   0.139483   5.432280   0.370336
     6  C    0.358038   0.069739  -0.086279   0.010710   0.370336   5.011348
     7  H    0.457834  -0.062242   0.015106  -0.004273   0.014641  -0.063676
     8  H   -0.042591   0.456038  -0.069239   0.017979  -0.004978   0.010473
     9  H    0.009893  -0.003631   0.008246  -0.074768   0.448178  -0.038793
    10  H   -0.062722   0.013744  -0.003318   0.015026  -0.065681   0.461152
    11  C   -0.014882   0.043181   0.146532  -0.356006  -0.115556   0.030288
    12  C    0.023421  -0.196319   0.138796   0.150763   0.028176  -0.013225
    13  C    0.002798  -0.018351  -0.193580   0.129661   0.039720  -0.004080
    14  H    0.000001   0.000112  -0.007301   0.033797  -0.001729  -0.000027
    15  C   -0.002275   0.033479   0.179109  -0.239333  -0.011577   0.002219
    16  H   -0.000008   0.000027   0.026973  -0.009237   0.000290   0.000005
    17  O    0.000010   0.000540   0.008522  -0.214605   0.046477   0.006303
    18  Cl  -0.001202   0.022237  -0.134102   0.014312  -0.001231   0.000719
    19  C   -0.000278   0.000385   0.005567  -0.033199  -0.008872   0.001779
    20  C    0.000027  -0.000079   0.000076  -0.008024   0.001379  -0.000024
    21  H    0.000000   0.000001   0.000013  -0.000091   0.000011   0.000001
    22  C    0.000001   0.000002  -0.000152   0.004393  -0.001718  -0.000137
    23  H    0.000000   0.000000  -0.000011   0.000389  -0.000039  -0.000003
    24  H    0.000006  -0.000001  -0.000052  -0.001786   0.000403   0.000041
    25  H    0.000000   0.000000   0.000004   0.000092   0.000005   0.000001
    26  C    0.000799  -0.000513   0.002786   0.011786   0.005743  -0.001915
    27  H    0.000346   0.000145   0.002821  -0.003371  -0.003905  -0.001458
    28  H   -0.000035   0.000005   0.000144  -0.001327   0.000528   0.000243
    29  H    0.000229  -0.000103  -0.000059   0.001027   0.000394  -0.000726
    30  C    0.000063  -0.000422  -0.010607   0.012040   0.004778  -0.000152
    31  H   -0.000001  -0.000003   0.000916  -0.000523  -0.000045   0.000000
    32  H   -0.000151   0.000287   0.001036  -0.002154  -0.000654   0.000292
               7          8          9         10         11         12
     1  C    0.457834  -0.042591   0.009893  -0.062722  -0.014882   0.023421
     2  C   -0.062242   0.456038  -0.003631   0.013744   0.043181  -0.196319
     3  C    0.015106  -0.069239   0.008246  -0.003318   0.146532   0.138796
     4  C   -0.004273   0.017979  -0.074768   0.015026  -0.356006   0.150763
     5  C    0.014641  -0.004978   0.448178  -0.065681  -0.115556   0.028176
     6  C   -0.063676   0.010473  -0.038793   0.461152   0.030288  -0.013225
     7  H    0.518539  -0.006769  -0.000074  -0.007193  -0.000036  -0.000024
     8  H   -0.006769   0.507127   0.000023  -0.000092   0.001400  -0.027171
     9  H   -0.000074   0.000023   0.486688  -0.006357  -0.006187   0.000110
    10  H   -0.007193  -0.000092  -0.006357   0.519276  -0.000373   0.000095
    11  C   -0.000036   0.001400  -0.006187  -0.000373   5.373627  -0.243529
    12  C   -0.000024  -0.027171   0.000110   0.000095  -0.243529   5.445122
    13  C    0.000018  -0.000535   0.002152  -0.000008   0.273270   0.148520
    14  H    0.000000  -0.000001  -0.000106   0.000000  -0.074074   0.018242
    15  C   -0.000016   0.001322  -0.000404   0.000006   0.175902   0.241579
    16  H    0.000000   0.000023   0.000005   0.000000   0.017032  -0.093151
    17  O   -0.000001   0.000006   0.022006  -0.000123   0.567012  -0.003398
    18  Cl  -0.000135   0.020243   0.000002   0.000002  -0.002145   0.317093
    19  C   -0.000001  -0.000001  -0.001267   0.000006  -0.001936  -0.001506
    20  C    0.000000   0.000000   0.000197  -0.000001  -0.031076   0.001856
    21  H    0.000000   0.000000   0.000002   0.000000  -0.001930   0.000003
    22  C    0.000000   0.000000  -0.000632   0.000002  -0.000180   0.000023
    23  H    0.000000   0.000000  -0.000038   0.000000   0.000178   0.000008
    24  H    0.000000   0.000000   0.000915  -0.000004   0.001153  -0.000004
    25  H    0.000000   0.000000  -0.000002   0.000000  -0.000292   0.000001
    26  C    0.000004   0.000001   0.000914  -0.000029  -0.001955  -0.001135
    27  H    0.000005  -0.000006  -0.000848   0.000005   0.005929  -0.001438
    28  H    0.000000   0.000000   0.000132   0.000000   0.000473   0.000003
    29  H    0.000001   0.000000  -0.000144  -0.000029  -0.002363   0.000058
    30  C    0.000000  -0.000003   0.000145  -0.000003  -0.006374   0.003669
    31  H    0.000000   0.000000   0.000001   0.000000  -0.000176  -0.002069
    32  H   -0.000001   0.000014  -0.000032   0.000002  -0.006384   0.003498
              13         14         15         16         17         18
     1  C    0.002798   0.000001  -0.002275  -0.000008   0.000010  -0.001202
     2  C   -0.018351   0.000112   0.033479   0.000027   0.000540   0.022237
     3  C   -0.193580  -0.007301   0.179109   0.026973   0.008522  -0.134102
     4  C    0.129661   0.033797  -0.239333  -0.009237  -0.214605   0.014312
     5  C    0.039720  -0.001729  -0.011577   0.000290   0.046477  -0.001231
     6  C   -0.004080  -0.000027   0.002219   0.000005   0.006303   0.000719
     7  H    0.000018   0.000000  -0.000016   0.000000  -0.000001  -0.000135
     8  H   -0.000535  -0.000001   0.001322   0.000023   0.000006   0.020243
     9  H    0.002152  -0.000106  -0.000404   0.000005   0.022006   0.000002
    10  H   -0.000008   0.000000   0.000006   0.000000  -0.000123   0.000002
    11  C    0.273270  -0.074074   0.175902   0.017032   0.567012  -0.002145
    12  C    0.148520   0.018242   0.241579  -0.093151  -0.003398   0.317093
    13  C    5.297699   0.450372   0.167669  -0.061572  -0.086028   0.013348
    14  H    0.450372   0.518880  -0.068253  -0.008915   0.013097  -0.000259
    15  C    0.167669  -0.068253   5.298153   0.470730   0.008303  -0.037541
    16  H   -0.061572  -0.008915   0.470730   0.514273  -0.000238   0.001213
    17  O   -0.086028   0.013097   0.008303  -0.000238   8.108072   0.000006
    18  Cl   0.013348  -0.000259  -0.037541   0.001213   0.000006  16.900042
    19  C   -0.040588  -0.004485   0.005734   0.000011   0.056331  -0.000004
    20  C   -0.039389   0.000853  -0.002503   0.000007   0.004247   0.000011
    21  H   -0.001195   0.000206   0.000148   0.000010  -0.000711   0.000000
    22  C    0.001234   0.000429  -0.000046  -0.000002  -0.006258   0.000000
    23  H   -0.000216   0.000183  -0.000025  -0.000001  -0.000462   0.000000
    24  H    0.000607  -0.000051  -0.000017   0.000000   0.000084   0.000000
    25  H   -0.000114   0.000010  -0.000001   0.000000   0.002144   0.000000
    26  C   -0.007053   0.000349   0.001981   0.000005  -0.015741   0.000002
    27  H   -0.003505  -0.000122   0.001349   0.000003  -0.005456   0.000005
    28  H   -0.000736  -0.000014   0.000052   0.000000   0.002468   0.000000
    29  H    0.000908   0.000030  -0.000112   0.000000  -0.002276   0.000000
    30  C    0.108753  -0.015637  -0.036946  -0.001209  -0.047572   0.000234
    31  H   -0.010132  -0.003295   0.003881   0.000841   0.000470  -0.000040
    32  H   -0.019806   0.001572  -0.001752   0.000009   0.001927   0.000024
              19         20         21         22         23         24
     1  C   -0.000278   0.000027   0.000000   0.000001   0.000000   0.000006
     2  C    0.000385  -0.000079   0.000001   0.000002   0.000000  -0.000001
     3  C    0.005567   0.000076   0.000013  -0.000152  -0.000011  -0.000052
     4  C   -0.033199  -0.008024  -0.000091   0.004393   0.000389  -0.001786
     5  C   -0.008872   0.001379   0.000011  -0.001718  -0.000039   0.000403
     6  C    0.001779  -0.000024   0.000001  -0.000137  -0.000003   0.000041
     7  H   -0.000001   0.000000   0.000000   0.000000   0.000000   0.000000
     8  H   -0.000001   0.000000   0.000000   0.000000   0.000000   0.000000
     9  H   -0.001267   0.000197   0.000002  -0.000632  -0.000038   0.000915
    10  H    0.000006  -0.000001   0.000000   0.000002   0.000000  -0.000004
    11  C   -0.001936  -0.031076  -0.001930  -0.000180   0.000178   0.001153
    12  C   -0.001506   0.001856   0.000003   0.000023   0.000008  -0.000004
    13  C   -0.040588  -0.039389  -0.001195   0.001234  -0.000216   0.000607
    14  H   -0.004485   0.000853   0.000206   0.000429   0.000183  -0.000051
    15  C    0.005734  -0.002503   0.000148  -0.000046  -0.000025  -0.000017
    16  H    0.000011   0.000007   0.000010  -0.000002  -0.000001   0.000000
    17  O    0.056331   0.004247  -0.000711  -0.006258  -0.000462   0.000084
    18  Cl  -0.000004   0.000011   0.000000   0.000000   0.000000   0.000000
    19  C    5.069841   0.438530  -0.037076   0.277637  -0.047143  -0.046441
    20  C    0.438530   5.186975   0.419221  -0.056765  -0.002189   0.009139
    21  H   -0.037076   0.419221   0.517965  -0.007076   0.003280   0.000014
    22  C    0.277637  -0.056765  -0.007076   4.954306   0.417807   0.427123
    23  H   -0.047143  -0.002189   0.003280   0.417807   0.524573  -0.018108
    24  H   -0.046441   0.009139   0.000014   0.427123  -0.018108   0.511431
    25  H   -0.024798  -0.007350   0.000173   0.394796  -0.020204  -0.026023
    26  C    0.268078  -0.055033   0.004100  -0.043450   0.007540  -0.012545
    27  H   -0.028852  -0.027321  -0.000215   0.006641  -0.000174  -0.000022
    28  H   -0.028603   0.000244  -0.000079  -0.004084  -0.000303   0.000376
    29  H   -0.054239   0.012017  -0.000051  -0.004775   0.000105   0.002808
    30  C   -0.028903   0.416929  -0.026581   0.007471   0.000869   0.000148
    31  H    0.006919  -0.033259  -0.004785  -0.000175  -0.000070  -0.000003
    32  H    0.003418  -0.035713   0.002982  -0.000326   0.000002  -0.000008
              25         26         27         28         29         30
     1  C    0.000000   0.000799   0.000346  -0.000035   0.000229   0.000063
     2  C    0.000000  -0.000513   0.000145   0.000005  -0.000103  -0.000422
     3  C    0.000004   0.002786   0.002821   0.000144  -0.000059  -0.010607
     4  C    0.000092   0.011786  -0.003371  -0.001327   0.001027   0.012040
     5  C    0.000005   0.005743  -0.003905   0.000528   0.000394   0.004778
     6  C    0.000001  -0.001915  -0.001458   0.000243  -0.000726  -0.000152
     7  H    0.000000   0.000004   0.000005   0.000000   0.000001   0.000000
     8  H    0.000000   0.000001  -0.000006   0.000000   0.000000  -0.000003
     9  H   -0.000002   0.000914  -0.000848   0.000132  -0.000144   0.000145
    10  H    0.000000  -0.000029   0.000005   0.000000  -0.000029  -0.000003
    11  C   -0.000292  -0.001955   0.005929   0.000473  -0.002363  -0.006374
    12  C    0.000001  -0.001135  -0.001438   0.000003   0.000058   0.003669
    13  C   -0.000114  -0.007053  -0.003505  -0.000736   0.000908   0.108753
    14  H    0.000010   0.000349  -0.000122  -0.000014   0.000030  -0.015637
    15  C   -0.000001   0.001981   0.001349   0.000052  -0.000112  -0.036946
    16  H    0.000000   0.000005   0.000003   0.000000   0.000000  -0.001209
    17  O    0.002144  -0.015741  -0.005456   0.002468  -0.002276  -0.047572
    18  Cl   0.000000   0.000002   0.000005   0.000000   0.000000   0.000234
    19  C   -0.024798   0.268078  -0.028852  -0.028603  -0.054239  -0.028903
    20  C   -0.007350  -0.055033  -0.027321   0.000244   0.012017   0.416929
    21  H    0.000173   0.004100  -0.000215  -0.000079  -0.000051  -0.026581
    22  C    0.394796  -0.043450   0.006641  -0.004084  -0.004775   0.007471
    23  H   -0.020204   0.007540  -0.000174  -0.000303   0.000105   0.000869
    24  H   -0.026023  -0.012545  -0.000022   0.000376   0.002808   0.000148
    25  H    0.535480   0.002872  -0.000099   0.001800  -0.000849  -0.001252
    26  C    0.002872   4.981428   0.420294   0.394302   0.429975   0.003853
    27  H   -0.000099   0.420294   0.528799  -0.021028  -0.023255   0.014588
    28  H    0.001800   0.394302  -0.021028   0.520624  -0.022119  -0.001778
    29  H   -0.000849   0.429975  -0.023255  -0.022119   0.524357  -0.002114
    30  C   -0.001252   0.003853   0.014588  -0.001778  -0.002114   5.071820
    31  H    0.000032   0.000579   0.000285   0.000008  -0.000007   0.409136
    32  H    0.000023  -0.005341  -0.004139   0.000818   0.000331   0.418264
              31         32
     1  C   -0.000001  -0.000151
     2  C   -0.000003   0.000287
     3  C    0.000916   0.001036
     4  C   -0.000523  -0.002154
     5  C   -0.000045  -0.000654
     6  C    0.000000   0.000292
     7  H    0.000000  -0.000001
     8  H    0.000000   0.000014
     9  H    0.000001  -0.000032
    10  H    0.000000   0.000002
    11  C   -0.000176  -0.006384
    12  C   -0.002069   0.003498
    13  C   -0.010132  -0.019806
    14  H   -0.003295   0.001572
    15  C    0.003881  -0.001752
    16  H    0.000841   0.000009
    17  O    0.000470   0.001927
    18  Cl  -0.000040   0.000024
    19  C    0.006919   0.003418
    20  C   -0.033259  -0.035713
    21  H   -0.004785   0.002982
    22  C   -0.000175  -0.000326
    23  H   -0.000070   0.000002
    24  H   -0.000003  -0.000008
    25  H    0.000032   0.000023
    26  C    0.000579  -0.005341
    27  H    0.000285  -0.004139
    28  H    0.000008   0.000818
    29  H   -0.000007   0.000331
    30  C    0.409136   0.418264
    31  H    0.477788  -0.013520
    32  H   -0.013520   0.471653
 Mulliken charges:
               1
     1  C   -0.125288
     2  C   -0.217935
     3  C    0.075997
     4  C   -0.002395
     5  C   -0.197302
     6  C   -0.123193
     7  H    0.138292
     8  H    0.136737
     9  H    0.153674
    10  H    0.136617
    11  C    0.229478
    12  C    0.061933
    13  C   -0.149843
    14  H    0.146136
    15  C   -0.190816
    16  H    0.142877
    17  O   -0.465155
    18  Cl  -0.112835
    19  C    0.253956
    20  C   -0.192982
    21  H    0.131660
    22  C   -0.366088
    23  H    0.134051
    24  H    0.150817
    25  H    0.143550
    26  C   -0.392681
    27  H    0.144000
    28  H    0.157884
    29  H    0.140982
    30  C   -0.293209
    31  H    0.167249
    32  H    0.183832
 Sum of Mulliken charges =   0.00000
 Mulliken charges with hydrogens summed into heavy atoms:
               1
     1  C    0.013004
     2  C   -0.081199
     3  C    0.075997
     4  C   -0.002395
     5  C   -0.043628
     6  C    0.013424
    11  C    0.229478
    12  C    0.061933
    13  C   -0.003707
    15  C   -0.047939
    17  O   -0.465155
    18  Cl  -0.112835
    19  C    0.253956
    20  C   -0.061322
    22  C    0.062330
    26  C    0.050186
    30  C    0.057871
 APT charges:
               1
     1  C   -0.016865
     2  C   -0.125302
     3  C    0.000090
     4  C   -0.035437
     5  C   -0.081765
     6  C   -0.031324
     7  H    0.041005
     8  H    0.075725
     9  H    0.080371
    10  H    0.041992
    11  C    0.403584
    12  C    0.311833
    13  C   -0.385758
    14  H    0.055004
    15  C    0.101653
    16  H    0.058224
    17  O   -0.691165
    18  Cl  -0.423010
    19  C    0.634021
    20  C   -0.576392
    21  H    0.044037
    22  C   -0.093725
    23  H    0.009392
    24  H    0.030432
    25  H   -0.020346
    26  C   -0.110984
    27  H    0.025519
    28  H    0.023451
    29  H    0.041829
    30  C    0.578612
    31  H    0.039102
    32  H   -0.003803
 Sum of APT charges =   0.00000
 APT charges with hydrogens summed into heavy atoms:
               1
     1  C    0.024140
     2  C   -0.049578
     3  C    0.000090
     4  C   -0.035437
     5  C   -0.001394
     6  C    0.010668
    11  C    0.403584
    12  C    0.311833
    13  C   -0.330755
    15  C    0.159877
    17  O   -0.691165
    18  Cl  -0.423010
    19  C    0.634021
    20  C   -0.532354
    22  C   -0.074247
    26  C   -0.020185
    30  C    0.613911
 Electronic spatial extent (au):  <R**2>=           4416.5161
 Charge=              0.0000 electrons
 Dipole moment (field-independent basis, Debye):
    X=              3.2078    Y=             -0.1572    Z=              2.3004  Tot=              3.9505
 Quadrupole moment (field-independent basis, Debye-Ang):
   XX=           -102.2534   YY=            -95.3734   ZZ=           -111.8995
   XY=             -4.4924   XZ=              2.5671   YZ=              3.0564
 Traceless Quadrupole moment (field-independent basis, Debye-Ang):
   XX=              0.9220   YY=              7.8021   ZZ=             -8.7240
   XY=             -4.4924   XZ=              2.5671   YZ=              3.0564
 Octapole moment (field-independent basis, Debye-Ang**2):
  XXX=             50.6265  YYY=             -1.6822  ZZZ=              5.8127  XYY=              4.1654
  XXY=             17.8998  XXZ=             12.5768  XZZ=             -0.0809  YZZ=             -6.0105
  YYZ=             -3.2693  XYZ=              0.3280
 Hexadecapole moment (field-independent basis, Debye-Ang**3):
 XXXX=          -3559.2124 YYYY=          -1594.1275 ZZZZ=           -466.7395 XXXY=            -14.2401
 XXXZ=            -32.7332 YYYX=            -16.5875 YYYZ=             15.4986 ZZZX=             -2.0677
 ZZZY=              4.1234 XXYY=           -892.0094 XXZZ=           -717.7047 YYZZ=           -387.9854
 XXYZ=             36.5429 YYXZ=            -28.8460 ZZXY=             19.1332
 N-N= 1.298106690048D+03 E-N=-5.215563387655D+03  KE= 1.112180170059D+03
  Exact polarizability: 340.759  -8.768 266.355   3.313   3.318 156.863
 Approx polarizability: 294.072   2.863 258.333  -6.497   0.887 177.457
   1 Symmetry operations used in ECPInt.
 ECPInt:  NShTT=   31125 NPrTT=   96136 LenC2=   28837 LenP2D=   65244.
 LDataN:  DoStor=T MaxTD1= 8 Len=  415
 D2PCM: PCM CHGder 2nd derivatives, FixD1E=F FixD2E=F DoIter=F DoCFld=F I1PDM=0
 Calling FoFJK, ICntrl=    100127 FMM=F ISym2X=0 I1Cent= 0 IOpClX= 0 NMat=1 NMatS=1 NMatT=0.
 Full mass-weighted force constant matrix:
 Low frequencies --- -355.2192  -16.7974   -0.0004    0.0021    0.0028    3.4234
 Low frequencies ---   14.3502   51.4435   72.3301
 ******    1 imaginary frequencies (negative Signs) ****** 
 Diagonal vibrational polarizability:
       85.7749785      14.3938080      35.7883941
 Harmonic frequencies (cm**-1), IR intensities (KM/Mole), Raman scattering
 activities (A**4/AMU), depolarization ratios for plane and unpolarized
 incident light, reduced masses (AMU), force constants (mDyne/A),
 and normal coordinates:
                      1                      2                      3
                      A                      A                      A
 Frequencies --   -355.2186                51.4069                72.2738
 Red. masses --      8.5070                 4.0510                 4.5323
 Frc consts  --      0.6324                 0.0063                 0.0139
 IR Inten    --    121.2601                 0.0088                 0.6023
  Atom  AN      X      Y      Z        X      Y      Z        X      Y      Z
     1   6     0.00   0.01   0.00     0.03   0.03  -0.06     0.10  -0.04   0.15
     2   6     0.00  -0.01   0.00     0.03   0.03  -0.01     0.09  -0.04   0.12
     3   6     0.00   0.01   0.02     0.02   0.02  -0.01     0.05  -0.02  -0.01
     4   6    -0.03   0.03   0.01     0.01   0.01  -0.05     0.02  -0.01  -0.09
     5   6    -0.02   0.00  -0.01     0.01   0.01  -0.09     0.02  -0.01  -0.08
     6   6    -0.02   0.01   0.00     0.02   0.02  -0.09     0.06  -0.03   0.04
     7   1    -0.01   0.00   0.00     0.04   0.04  -0.06     0.14  -0.05   0.26
     8   1     0.00  -0.01   0.00     0.04   0.03   0.02     0.12  -0.04   0.20
     9   1    -0.02  -0.01  -0.02     0.01   0.00  -0.11    -0.01   0.00  -0.16
    10   1    -0.01   0.01   0.02     0.02   0.02  -0.13     0.06  -0.03   0.05
    11   6     0.03   0.03  -0.04     0.00   0.00  -0.05     0.01  -0.01  -0.12
    12   6     0.02  -0.04   0.02     0.02   0.02   0.02     0.03  -0.02  -0.05
    13   6     0.16  -0.09   0.32    -0.01   0.01  -0.08    -0.01   0.00  -0.14
    14   1    -0.02   0.00  -0.05    -0.04   0.01  -0.12     0.02  -0.01  -0.09
    15   6     0.02  -0.04   0.12     0.00   0.01  -0.04     0.00  -0.01  -0.13
    16   1     0.02  -0.03   0.12    -0.01   0.02  -0.03    -0.01   0.00  -0.15
    17   8    -0.18   0.05  -0.26     0.02   0.00  -0.02     0.02  -0.02  -0.07
    18  17     0.00   0.00  -0.01     0.06   0.02   0.13     0.06  -0.03   0.05
    19   6     0.21  -0.11   0.26    -0.07  -0.01   0.05    -0.09   0.04   0.03
    20   6     0.01   0.06  -0.05     0.01  -0.04  -0.08    -0.14   0.06   0.11
    21   1    -0.07   0.04  -0.13     0.07   0.05  -0.14    -0.12  -0.01   0.23
    22   6     0.10  -0.02   0.10    -0.06   0.15   0.15    -0.02  -0.08   0.10
    23   1     0.12  -0.05   0.14     0.04   0.22   0.11    -0.03  -0.12   0.15
    24   1    -0.10  -0.10  -0.01    -0.10   0.18   0.22     0.08  -0.09   0.06
    25   1     0.19   0.20  -0.04    -0.11   0.15   0.21    -0.06  -0.11   0.15
    26   6     0.03  -0.01   0.04    -0.19  -0.12   0.11    -0.09   0.12  -0.07
    27   1     0.03  -0.05   0.00    -0.19  -0.21   0.05    -0.09   0.17  -0.08
    28   1    -0.04   0.20   0.08    -0.24  -0.16   0.14    -0.11   0.19  -0.06
    29   1    -0.02  -0.07  -0.09    -0.24  -0.07   0.20    -0.05   0.08  -0.15
    30   6    -0.28   0.10  -0.38     0.03  -0.15  -0.13    -0.20   0.13   0.04
    31   1    -0.18   0.07  -0.24     0.09  -0.17  -0.24    -0.23   0.15   0.10
    32   1    -0.09  -0.01  -0.06     0.00  -0.25  -0.07    -0.24   0.21  -0.09
                      4                      5                      6
                      A                      A                      A
 Frequencies --     80.0559               133.4047               161.5524
 Red. masses --      5.2817                 4.0550                 2.7779
 Frc consts  --      0.0199                 0.0425                 0.0427
 IR Inten    --      1.7133                 0.9732                22.7349
  Atom  AN      X      Y      Z        X      Y      Z        X      Y      Z
     1   6     0.15  -0.02   0.13    -0.02   0.00   0.07     0.04   0.01  -0.03
     2   6     0.09   0.00   0.11     0.07  -0.02   0.24     0.03   0.01  -0.03
     3   6     0.02  -0.03   0.04     0.05   0.00   0.14     0.04   0.00   0.01
     4   6     0.01  -0.07  -0.02     0.00   0.03   0.01     0.04   0.00   0.03
     5   6     0.06  -0.09  -0.04    -0.10   0.06  -0.20     0.06   0.00   0.03
     6   6     0.13  -0.06   0.04    -0.13   0.04  -0.21     0.06   0.00   0.01
     7   1     0.20   0.01   0.20    -0.01  -0.02   0.12     0.03   0.02  -0.06
     8   1     0.09   0.04   0.17     0.14  -0.05   0.42     0.02   0.02  -0.06
     9   1     0.05  -0.12  -0.10    -0.17   0.09  -0.36     0.07  -0.01   0.05
    10   1     0.17  -0.07   0.04    -0.22   0.06  -0.42     0.06   0.00   0.02
    11   6    -0.02  -0.11  -0.02     0.01   0.04   0.04     0.03   0.00   0.04
    12   6    -0.03  -0.02   0.02     0.04   0.01   0.09     0.05  -0.01   0.03
    13   6    -0.02  -0.11   0.08     0.03   0.04   0.04     0.07  -0.01   0.09
    14   1    -0.05  -0.14   0.10     0.03   0.05   0.01     0.05   0.00   0.06
    15   6    -0.04  -0.06   0.08     0.03   0.02   0.03     0.06  -0.01   0.08
    16   1    -0.08  -0.05   0.09     0.02   0.03  -0.06     0.07  -0.02   0.10
    17   8    -0.04  -0.12  -0.09     0.02   0.04   0.05     0.02   0.01   0.04
    18  17    -0.11   0.07  -0.12    -0.01   0.00  -0.10     0.04  -0.02  -0.03
    19   6    -0.02   0.11   0.00     0.00  -0.04  -0.01    -0.12   0.01  -0.04
    20   6     0.08   0.08  -0.01     0.01  -0.05   0.00    -0.09   0.01   0.00
    21   1     0.11   0.13  -0.03     0.01  -0.05   0.00    -0.11   0.01  -0.02
    22   6    -0.06   0.23  -0.01     0.01  -0.06   0.00    -0.18   0.03  -0.15
    23   1     0.06   0.23   0.04    -0.07  -0.01  -0.09    -0.45   0.19  -0.45
    24   1    -0.18   0.18  -0.07     0.08   0.01   0.11    -0.11   0.21   0.16
    25   1    -0.08   0.39  -0.01     0.04  -0.23   0.01    -0.02  -0.36  -0.25
    26   6    -0.12   0.06  -0.02    -0.01  -0.04  -0.01    -0.06  -0.02   0.05
    27   1    -0.12   0.01  -0.07     0.02  -0.09   0.06    -0.03  -0.05   0.16
    28   1    -0.16   0.07   0.01     0.05   0.03  -0.05     0.04  -0.02  -0.01
    29   1    -0.13   0.08   0.01    -0.10  -0.06  -0.06    -0.14   0.00   0.06
    30   6     0.12  -0.01   0.03     0.01  -0.06   0.00    -0.12   0.02  -0.05
    31   1     0.20  -0.03   0.04     0.01  -0.06  -0.02    -0.10   0.01  -0.02
    32   1     0.10  -0.06   0.07     0.01  -0.07   0.01    -0.11   0.00  -0.02
                      7                      8                      9
                      A                      A                      A
 Frequencies --    177.9645               192.1319               210.3124
 Red. masses --      1.2630                 3.2068                 4.8001
 Frc consts  --      0.0236                 0.0697                 0.1251
 IR Inten    --      8.6457                 0.9524                17.4653
  Atom  AN      X      Y      Z        X      Y      Z        X      Y      Z
     1   6     0.00   0.01   0.00    -0.04   0.00   0.04    -0.07  -0.05  -0.16
     2   6     0.01   0.01   0.01    -0.03   0.00  -0.05     0.02  -0.07   0.03
     3   6     0.01   0.01   0.01     0.00   0.03  -0.04     0.09  -0.06   0.18
     4   6     0.01   0.02   0.01     0.00   0.04  -0.02     0.10  -0.06   0.22
     5   6     0.01   0.02   0.00    -0.02   0.05   0.04     0.06  -0.05   0.18
     6   6     0.00   0.02  -0.01    -0.02   0.02   0.10    -0.04  -0.05  -0.06
     7   1     0.00   0.01  -0.01    -0.05  -0.02   0.06    -0.16  -0.04  -0.37
     8   1     0.01   0.01   0.01    -0.03  -0.03  -0.09     0.01  -0.09  -0.03
     9   1     0.01   0.02   0.01    -0.02   0.09   0.06     0.07  -0.03   0.22
    10   1    -0.01   0.02  -0.02    -0.02   0.02   0.18    -0.10  -0.04  -0.19
    11   6     0.01   0.01   0.02     0.01   0.03   0.01     0.04  -0.04   0.07
    12   6     0.02   0.01   0.01     0.04   0.02   0.03     0.05  -0.04   0.08
    13   6     0.02   0.01   0.02     0.05   0.02   0.09    -0.01  -0.03  -0.08
    14   1     0.02   0.02   0.01     0.05   0.02   0.10    -0.05   0.01  -0.19
    15   6     0.02   0.01   0.01     0.07   0.01   0.13    -0.02  -0.03  -0.09
    16   1     0.02   0.01   0.00     0.10  -0.01   0.21    -0.08  -0.01  -0.25
    17   8     0.01   0.01   0.03     0.02   0.00  -0.03     0.04  -0.04   0.05
    18  17     0.03  -0.01  -0.01     0.03   0.02  -0.02    -0.02   0.10   0.00
    19   6    -0.03  -0.03  -0.01    -0.05  -0.04  -0.09    -0.04   0.05  -0.07
    20   6    -0.02  -0.03   0.02     0.02  -0.05  -0.01    -0.04   0.04  -0.05
    21   1    -0.03  -0.04   0.03     0.07  -0.06   0.05     0.02   0.04   0.01
    22   6    -0.06   0.00  -0.06     0.05  -0.07   0.08     0.04   0.02   0.06
    23   1     0.21  -0.20   0.30     0.07  -0.05   0.06     0.14  -0.01   0.14
    24   1    -0.32  -0.26  -0.48     0.21  -0.02   0.14     0.10  -0.01   0.00
    25   1    -0.15   0.59  -0.07    -0.04  -0.22   0.19    -0.06   0.07   0.15
    26   6    -0.03  -0.03  -0.01    -0.20   0.00  -0.23    -0.05   0.09  -0.12
    27   1    -0.05   0.02  -0.08    -0.25   0.02  -0.42    -0.01   0.06  -0.01
    28   1    -0.09  -0.09   0.02    -0.38   0.06  -0.13     0.04   0.21  -0.17
    29   1     0.05  -0.02   0.02    -0.12  -0.02  -0.27    -0.12   0.06  -0.22
    30   6    -0.03  -0.01   0.01     0.04  -0.08   0.02    -0.07   0.03  -0.15
    31   1    -0.05  -0.01   0.02     0.07  -0.09   0.04    -0.05   0.02  -0.15
    32   1    -0.03   0.00   0.00     0.05  -0.09   0.04    -0.11   0.02  -0.18
                     10                     11                     12
                      A                      A                      A
 Frequencies --    217.8380               243.6583               270.1739
 Red. masses --      6.8650                 1.2758                 4.7066
 Frc consts  --      0.1919                 0.0446                 0.2024
 IR Inten    --      2.8218                 3.5496                20.6035
  Atom  AN      X      Y      Z        X      Y      Z        X      Y      Z
     1   6     0.12   0.19  -0.10     0.02   0.02   0.03     0.07  -0.03   0.08
     2   6     0.03   0.19   0.04    -0.01   0.02  -0.02     0.00  -0.01  -0.03
     3   6    -0.05   0.07   0.13    -0.02   0.01  -0.03    -0.05  -0.02  -0.10
     4   6    -0.01   0.00   0.13    -0.01   0.01  -0.01    -0.04  -0.03  -0.08
     5   6     0.10  -0.03   0.05     0.00   0.00  -0.02    -0.02  -0.04  -0.12
     6   6     0.17   0.08  -0.08     0.02   0.01   0.02     0.04  -0.04  -0.01
     7   1     0.15   0.26  -0.22     0.04   0.02   0.06     0.13  -0.03   0.22
     8   1    -0.02   0.32   0.05    -0.02   0.03  -0.04     0.00   0.01   0.01
     9   1     0.14  -0.15   0.05    -0.01   0.00  -0.04    -0.03  -0.07  -0.15
    10   1     0.23   0.07  -0.18     0.03   0.01   0.04     0.07  -0.05   0.03
    11   6    -0.05   0.01   0.05     0.00   0.00   0.02     0.03  -0.02   0.10
    12   6    -0.07   0.05   0.09    -0.02   0.01  -0.02    -0.04  -0.03  -0.04
    13   6    -0.08   0.03  -0.01     0.00   0.00   0.01     0.04  -0.02   0.10
    14   1    -0.12   0.02  -0.05    -0.01   0.00   0.00     0.02  -0.03   0.10
    15   6    -0.07   0.08   0.02    -0.01   0.01  -0.01     0.00  -0.03   0.05
    16   1    -0.10   0.09  -0.04    -0.01   0.01   0.01     0.04  -0.04   0.11
    17   8    -0.06   0.01  -0.01     0.01  -0.01   0.06     0.08   0.03   0.30
    18  17    -0.02  -0.29  -0.04     0.00  -0.02   0.00    -0.05   0.00   0.03
    19   6    -0.01   0.02  -0.05    -0.01   0.00   0.01    -0.04   0.06  -0.12
    20   6    -0.02   0.02  -0.07     0.02  -0.01   0.03    -0.05   0.05  -0.14
    21   1    -0.02   0.02  -0.07     0.06   0.01   0.04    -0.06   0.06  -0.19
    22   6     0.08  -0.01   0.09    -0.01   0.00   0.01     0.08   0.01   0.05
    23   1     0.12  -0.01   0.10     0.03  -0.03   0.06     0.20  -0.03   0.14
    24   1     0.20   0.01   0.11    -0.04  -0.04  -0.06     0.19  -0.01  -0.01
    25   1    -0.01  -0.09   0.19    -0.02   0.09   0.01    -0.06   0.03   0.19
    26   6    -0.03   0.04  -0.08     0.01   0.05  -0.04     0.06   0.04  -0.02
    27   1    -0.07   0.11  -0.22     0.15  -0.19   0.40    -0.02   0.23  -0.24
    28   1    -0.15  -0.04  -0.01     0.37   0.45  -0.26    -0.10  -0.25   0.08
    29   1     0.10   0.04  -0.03    -0.42  -0.04  -0.32     0.35   0.09   0.15
    30   6     0.00   0.02  -0.03     0.00  -0.06  -0.05    -0.07   0.06  -0.20
    31   1     0.00   0.02  -0.03     0.05  -0.07  -0.08    -0.07   0.06  -0.18
    32   1     0.02   0.02  -0.01    -0.04  -0.11  -0.04    -0.02   0.05  -0.13
                     13                     14                     15
                      A                      A                      A
 Frequencies --    305.8014               339.4542               350.5759
 Red. masses --      2.7015                 4.7361                 3.3559
 Frc consts  --      0.1488                 0.3215                 0.2430
 IR Inten    --     15.5963                21.7285                 7.8846
  Atom  AN      X      Y      Z        X      Y      Z        X      Y      Z
     1   6    -0.02  -0.02  -0.01     0.08  -0.03  -0.05     0.06  -0.03  -0.02
     2   6     0.00  -0.02  -0.02     0.00  -0.02  -0.03     0.01  -0.02  -0.01
     3   6     0.02  -0.01   0.01    -0.03  -0.07   0.03    -0.02  -0.05   0.01
     4   6     0.01   0.01  -0.04    -0.07  -0.06  -0.02    -0.03  -0.04   0.03
     5   6     0.00   0.02   0.00     0.03  -0.10  -0.03     0.03  -0.07  -0.01
     6   6    -0.01  -0.01   0.03     0.10  -0.06   0.00     0.06  -0.04  -0.03
     7   1    -0.03  -0.03  -0.02     0.09   0.00  -0.09     0.08  -0.01  -0.03
     8   1     0.00  -0.04  -0.03    -0.03   0.06  -0.04    -0.01   0.04  -0.01
     9   1    -0.01   0.04   0.00     0.05  -0.19  -0.05     0.03  -0.13  -0.03
    10   1    -0.01   0.00   0.07     0.15  -0.07   0.03     0.08  -0.05  -0.04
    11   6    -0.02   0.01  -0.07    -0.04   0.05  -0.06     0.01   0.04   0.02
    12   6     0.04   0.00   0.11     0.04  -0.08   0.11    -0.02  -0.05  -0.02
    13   6    -0.03   0.03  -0.04     0.04   0.03  -0.11     0.06   0.03   0.01
    14   1    -0.01  -0.01   0.03     0.04   0.05  -0.13     0.08   0.03   0.04
    15   6     0.05  -0.01   0.15     0.09  -0.04   0.08     0.03  -0.01  -0.04
    16   1     0.09  -0.03   0.25     0.16  -0.06   0.12     0.08  -0.01  -0.09
    17   8     0.01  -0.02  -0.08    -0.10   0.29  -0.01    -0.04   0.20   0.02
    18  17     0.00   0.00  -0.03    -0.05   0.04  -0.01    -0.05   0.02   0.03
    19   6    -0.09   0.02  -0.11    -0.05   0.07   0.07     0.05  -0.09  -0.07
    20   6    -0.12   0.02  -0.14    -0.01   0.05   0.03     0.04  -0.08   0.01
    21   1    -0.19   0.02  -0.23     0.08   0.14   0.01    -0.03  -0.20   0.10
    22   6     0.03   0.00   0.11    -0.04  -0.15  -0.01     0.04   0.08   0.00
    23   1     0.23  -0.05   0.25    -0.16  -0.32   0.12     0.15   0.19  -0.07
    24   1     0.13  -0.04   0.01     0.06  -0.24  -0.18    -0.05   0.13   0.10
    25   1    -0.16   0.09   0.29     0.00  -0.12  -0.06    -0.01   0.09   0.05
    26   6     0.07  -0.05   0.08     0.00   0.12   0.05    -0.08  -0.17  -0.07
    27   1     0.16  -0.12   0.41    -0.03   0.17  -0.02    -0.01  -0.34   0.09
    28   1     0.39  -0.05  -0.11    -0.05   0.08   0.08     0.04   0.01  -0.14
    29   1    -0.12  -0.02   0.08     0.09   0.11   0.05    -0.35  -0.18  -0.13
    30   6    -0.02   0.05   0.07     0.07  -0.16  -0.01    -0.02   0.16   0.09
    31   1    -0.07   0.06   0.09     0.21  -0.20  -0.18    -0.19   0.21   0.28
    32   1     0.03   0.09   0.07    -0.06  -0.30   0.01     0.07   0.34  -0.01
                     16                     17                     18
                      A                      A                      A
 Frequencies --    365.4198               390.7905               424.7963
 Red. masses --      4.5391                 6.4872                 2.3662
 Frc consts  --      0.3571                 0.5837                 0.2516
 IR Inten    --      1.3572                 0.9051                 1.5992
  Atom  AN      X      Y      Z        X      Y      Z        X      Y      Z
     1   6     0.03   0.00   0.01     0.02  -0.07  -0.03     0.01  -0.01  -0.02
     2   6    -0.01   0.01   0.05     0.14  -0.09   0.02     0.02  -0.01   0.02
     3   6    -0.04   0.00  -0.02     0.10  -0.05  -0.07     0.00  -0.01  -0.02
     4   6    -0.03  -0.03   0.08     0.14   0.06   0.00     0.00   0.01  -0.02
     5   6     0.02  -0.05   0.03     0.07   0.09   0.07     0.02   0.01   0.03
     6   6     0.01  -0.02  -0.07    -0.03   0.05  -0.05     0.00   0.01  -0.02
     7   1     0.05   0.03   0.02    -0.05  -0.14  -0.02     0.00  -0.02  -0.01
     8   1    -0.01   0.04   0.09     0.18  -0.15   0.09     0.04  -0.02   0.07
     9   1     0.03  -0.09   0.03     0.08   0.15   0.15     0.04   0.00   0.07
    10   1     0.00  -0.02  -0.17    -0.14   0.08  -0.09    -0.01   0.01  -0.02
    11   6    -0.06  -0.04   0.11     0.15   0.10  -0.01     0.00   0.02  -0.02
    12   6    -0.01   0.02  -0.21    -0.11  -0.03  -0.14     0.00  -0.01  -0.02
    13   6     0.05  -0.07   0.18     0.09   0.11   0.15     0.01   0.01   0.01
    14   1     0.11  -0.03   0.20     0.08   0.08   0.18     0.02   0.02   0.01
    15   6    -0.03  -0.02  -0.14     0.00   0.04  -0.07     0.02  -0.01   0.01
    16   1    -0.10   0.00  -0.21     0.13   0.01  -0.14     0.05  -0.02   0.04
    17   8    -0.15   0.05  -0.02     0.16   0.02  -0.12    -0.01   0.04  -0.02
    18  17     0.13   0.05   0.00    -0.22  -0.08   0.09    -0.02   0.00   0.01
    19   6    -0.06   0.03  -0.04    -0.04   0.05   0.01    -0.03  -0.10   0.01
    20   6    -0.10   0.05  -0.16    -0.06   0.06  -0.08    -0.05  -0.11   0.03
    21   1    -0.24   0.13  -0.41    -0.15   0.14  -0.28    -0.05  -0.11   0.01
    22   6     0.00  -0.05   0.04    -0.03  -0.07  -0.02    -0.07   0.14   0.07
    23   1     0.03  -0.10   0.11    -0.09  -0.18   0.07     0.10   0.35  -0.09
    24   1     0.11  -0.07  -0.02     0.04  -0.14  -0.14    -0.23   0.24   0.28
    25   1    -0.06  -0.05   0.11     0.00  -0.04  -0.05    -0.13   0.13   0.13
    26   6     0.00   0.03   0.00    -0.05   0.03   0.04     0.16   0.07  -0.10
    27   1     0.01   0.03   0.08    -0.03  -0.03   0.07     0.11   0.37  -0.12
    28   1     0.07   0.06  -0.04    -0.02   0.07   0.02     0.14   0.02  -0.08
    29   1    -0.04   0.03  -0.02    -0.11   0.04   0.04     0.45  -0.01  -0.20
    30   6     0.04  -0.06   0.14     0.03  -0.06   0.07    -0.05  -0.12   0.04
    31   1     0.12  -0.08   0.11     0.11  -0.08  -0.05    -0.08  -0.12   0.01
    32   1     0.18  -0.16   0.40     0.10  -0.20   0.29    -0.02  -0.10   0.05
                     19                     20                     21
                      A                      A                      A
 Frequencies --    438.9335               467.0386               490.2657
 Red. masses --      2.8109                 2.4098                 3.9359
 Frc consts  --      0.3191                 0.3097                 0.5574
 IR Inten    --      4.8006                 4.6948                 0.3402
  Atom  AN      X      Y      Z        X      Y      Z        X      Y      Z
     1   6    -0.02   0.03  -0.03    -0.01  -0.01  -0.04     0.11  -0.06   0.17
     2   6     0.04   0.01   0.16     0.03  -0.02   0.06     0.01  -0.03  -0.15
     3   6    -0.07   0.03  -0.13     0.00   0.00  -0.05     0.01  -0.03  -0.10
     4   6    -0.03  -0.01  -0.05    -0.02   0.01  -0.07     0.10   0.03   0.26
     5   6     0.05  -0.03   0.18     0.03   0.00   0.06     0.03   0.07   0.00
     6   6    -0.04   0.00  -0.11     0.00  -0.01  -0.02    -0.03   0.06  -0.13
     7   1     0.00   0.03   0.00    -0.01  -0.01  -0.04     0.14  -0.12   0.37
     8   1     0.13  -0.01   0.44     0.08  -0.04   0.18    -0.03  -0.01  -0.26
     9   1     0.14  -0.06   0.41     0.07  -0.01   0.18    -0.03   0.07  -0.19
    10   1    -0.05   0.00  -0.20     0.00   0.00   0.00    -0.19   0.10  -0.39
    11   6    -0.03  -0.01  -0.06    -0.01   0.00  -0.04    -0.04   0.03   0.11
    12   6    -0.04   0.02  -0.13     0.01   0.00   0.03    -0.02  -0.03  -0.09
    13   6     0.00  -0.02  -0.02    -0.06   0.01  -0.09    -0.11   0.04  -0.13
    14   1     0.01  -0.05   0.03    -0.05  -0.02  -0.04    -0.08   0.13  -0.23
    15   6     0.03  -0.01   0.10     0.00  -0.02   0.07     0.02  -0.09   0.12
    16   1     0.10  -0.05   0.36     0.03  -0.03   0.18     0.13  -0.14   0.37
    17   8    -0.01   0.01   0.00     0.02  -0.01   0.11    -0.07  -0.01  -0.03
    18  17     0.01   0.01   0.00     0.01   0.00  -0.01     0.00   0.00   0.00
    19   6    -0.04   0.03  -0.06     0.11  -0.05   0.16     0.02   0.00   0.03
    20   6     0.06   0.01   0.08    -0.06  -0.01  -0.14     0.00   0.00   0.00
    21   1     0.18  -0.03   0.27    -0.26   0.05  -0.45     0.00  -0.01   0.02
    22   6     0.01  -0.02   0.00     0.00   0.00  -0.02     0.00   0.00   0.00
    23   1     0.04  -0.06   0.05    -0.11   0.03  -0.10    -0.02   0.00  -0.01
[...]
 22,-0.00001329,0.00000637,0.00000630,0.00000625,0.00000886,0.00007344,
 -0.00005190,0.00016986,0.00001458,-0.00001620,0.00000787,0.00123448,0.
 00050495,-0.00015491,-0.00004688,0.00045796,-0.00003107,-0.00019076,-0
 .00058399,0.00025086,-0.00002591,0.00000713,-0.00005119,0.00038432,-0.
 00019608,-0.00014622,0.00002005,0.00001122,-0.00000542,-0.00092901,-0.
 00017835,-0.00073634,0.00009599,0.00001654,-0.00002835,-0.00988730,-0.
 00208412,0.00241944,0.00020956,-0.00010587,0.00030476,0.00000377,0.000
 04373,-0.00007881,0.00039648,0.00220928,0.00075817,-0.00042017,-0.0002
 7794,0.00023566,0.00007965,-0.00001359,-0.00012109,0.00026628,-0.00004
 424,-0.00023296,-0.30545892,-0.03943037,0.06221740,0.33119500,-0.00012
 619,-0.00019872,0.00003828,-0.00009483,0.00021268,0.00007532,0.0000181
 6,-0.00018999,-0.00007680,-0.00005706,0.00001848,-0.00005309,-0.000265
 42,0.00017237,0.00010796,0.00025024,-0.00022771,-0.00028931,-0.0000082
 5,-0.00000191,0.00001890,-0.00000348,0.00000364,0.00000077,-0.00011203
 ,-0.00009631,0.00011390,0.00000505,-0.00000198,0.00002552,-0.00079530,
 -0.00000305,0.00019394,-0.00000611,0.00035688,0.00005711,-0.00060307,0
 .00018886,-0.00042230,0.00004235,-0.00003401,0.00007809,0.00027142,-0.
 00012337,-0.00015049,-0.00000132,-0.00000756,-0.00001352,0.00100718,-0
 .00020318,0.00034847,-0.00002544,-0.00004480,0.00001106,0.02445514,0.0
 0868248,-0.00283935,-0.00186430,-0.00061048,0.00101357,-0.00013888,0.0
 0028630,-0.00023063,0.00024148,-0.00303219,-0.00274058,0.00089957,0.00
 042783,-0.00081966,0.00010252,0.00010186,-0.00029134,-0.00027549,-0.00
 018302,0.00022040,-0.04059528,-0.05682710,0.00878011,0.04530435,0.0612
 9152,-0.00002825,-0.00004533,-0.00004442,0.00005197,0.00003491,-0.0000
 7884,-0.00023305,-0.00022360,0.00013908,-0.00102713,-0.00011580,-0.000
 95963,0.00008073,0.00042357,-0.00003246,0.00002320,-0.00001271,0.00007
 445,0.00003077,-0.00001676,0.00000033,0.00002898,-0.00000646,0.0000118
 4,0.00007304,0.00015217,-0.00007075,0.00001228,-0.00003706,-0.00000518
 ,-0.00062588,-0.00100198,-0.00089231,-0.00016110,0.00016092,0.00007865
 ,-0.00021036,0.00020607,-0.00007322,0.00001387,0.00003106,0.00002759,0
 .00014594,-0.00000706,-0.00004030,0.00001950,0.00001546,0.00000670,0.0
 0060412,0.00031571,0.00070101,0.00014150,0.00005973,-0.00005045,0.0204
 4617,0.00468387,-0.00765530,-0.00083735,0.00049771,0.00025003,-0.00001
 742,0.00010108,-0.00015739,0.00063293,-0.00396212,-0.00191373,0.001224
 76,-0.00000569,-0.00036359,-0.00031455,-0.00014733,0.00030122,0.000131
 16,0.00012525,0.00025836,0.05934733,0.00887868,-0.05654604,-0.06590745
 ,-0.00709085,0.06172961,-0.00016221,-0.00014248,0.00009193,-0.00008013
 ,0.00017494,0.00010856,0.00023985,0.00010681,-0.00015135,-0.00014205,0
 .00019260,0.00011595,-0.00032096,0.00016639,-0.00024190,0.00022591,-0.
 00019221,-0.00021563,-0.00001597,-0.00000136,0.00000114,-0.00000951,0.
 00000963,0.00000151,-0.00001546,-0.00004295,0.00010608,0.00000787,0.00
 000833,0.00000094,0.00057951,0.00079023,0.00052333,0.00012209,0.000092
 88,-0.00008508,0.00033622,-0.00036273,0.00033875,-0.00002286,0.0000065
 5,-0.00007910,-0.00008707,-0.00020331,0.00000453,0.00001337,0.00000965
 ,-0.00000568,0.00015652,-0.00009308,0.00041846,0.00010094,0.00000811,-
 0.00003728,0.00547134,-0.00148442,0.00945646,0.00071773,0.00098658,-0.
 00005800,-0.00027829,-0.00000577,-0.00046442,-0.00080610,-0.00041780,-
 0.00067554,0.00007018,0.00000291,-0.00028250,0.00009513,0.00022346,0.0
 0007176,-0.00039951,0.00030220,0.00041726,-0.11437711,0.00161899,-0.11
 384677,-0.01435426,0.00042582,-0.02690578,0.12218565,-0.00015773,-0.00
 010609,0.00001756,0.00000860,0.00023027,0.00003034,-0.00019262,-0.0005
 6544,-0.00004607,0.00029744,-0.00034935,0.00007535,-0.00000487,0.00008
 591,0.00019423,0.00022673,0.00006482,-0.00003620,0.00000380,0.00000938
 ,-0.00001000,-0.00000508,-0.00000095,0.00000491,-0.00002385,0.00006692
 ,-0.00016422,-0.00000062,0.00001210,0.00001581,0.00018174,-0.00025153,
 0.00028111,-0.00011317,0.00056800,0.00012775,-0.00104811,0.00027132,-0
 .00044420,0.00005751,-0.00003921,0.00012959,0.00063352,0.00009729,-0.0
 0024428,-0.00002340,-0.00002286,-0.00001347,0.00036346,0.00012649,-0.0
 0123200,-0.00020119,-0.00006388,0.00007029,-0.01276641,-0.00180660,-0.
 02049723,0.00025764,-0.00197598,0.00030132,0.00050529,-0.00016772,0.00
 089932,-0.00020248,0.00020202,0.00044026,-0.00003767,-0.00011297,0.000
 27872,-0.00002593,0.00009793,0.00013038,0.00013124,0.00014468,0.000014
 38,0.00013664,-0.04409874,-0.00174772,-0.00267300,-0.00085225,-0.00432
 442,-0.00202530,0.04637933,0.00003588,-0.00000640,0.00000125,-0.000028
 35,0.00002440,-0.00000070,-0.00003663,-0.00009814,0.00000982,-0.000032
 25,0.00005425,0.00010285,-0.00004327,0.00006550,-0.00003504,-0.0000132
 0,0.00002208,-0.00000494,-0.00001590,0.00001036,0.00000596,-0.00000575
 ,-0.00000552,-0.00000663,0.00003988,-0.00008682,0.00005342,-0.00000325
 ,0.00001697,-0.00000251,0.00134268,0.00012941,-0.00045245,0.00005329,-
 0.00004290,-0.00001976,-0.00012194,-0.00024441,0.00027807,-0.00000296,
 -0.00000192,-0.00003977,0.00004738,0.00016775,0.00005176,-0.00003388,-
 0.00002524,-0.00000078,-0.00081708,-0.00091617,-0.00105934,-0.00021214
 ,-0.00005658,0.00007481,-0.00977869,-0.00217080,-0.01801336,0.00205623
 ,0.00098659,0.00032782,0.00028084,-0.00018298,0.00043319,0.00000076,-0
 .00000257,0.00048517,0.00030037,-0.00014945,0.00037833,-0.00016560,-0.
 00018254,0.00014438,0.00057299,0.00001879,0.00005988,-0.11676783,0.001
 03242,-0.23824369,0.00388815,0.00009632,0.00722365,0.12718332,0.002129
 57,0.25962357,0.00011782,0.00010687,-0.00002789,0.00012194,-0.00017231
 ,-0.00008594,0.00006791,0.00037638,0.00001477,-0.00007217,0.00008288,0
 .00001166,-0.00058429,-0.00012800,-0.00036951,-0.00012049,0.00015252,0
 .00017460,0.00002640,-0.00000113,-0.00001626,0.00000976,0.00000167,-0.
 00000178,-0.00042448,0.00048471,-0.00077540,-0.00002420,0.00001313,-0.
 00002381,0.00036353,-0.00004766,-0.00017426,0.00003843,-0.00044827,-0.
 00008529,0.00067346,-0.00017001,0.00048861,-0.00002285,0.00002539,-0.0
 0009403,-0.00040945,0.00009466,0.00019141,0.00001020,0.00001142,0.0000
 1731,-0.00079410,0.00017262,-0.00005841,0.00008553,0.00005838,-0.00002
 825,0.00078656,0.00837533,-0.00745084,0.00087064,0.00234834,0.00188228
 ,0.00047390,0.00036760,0.00035647,-0.00008110,0.00074759,-0.00016704,0
 .00002727,-0.00017239,-0.00013870,-0.00015066,0.00033208,0.00053036,-0
 .00007557,0.00012450,-0.00008513,-0.05264011,-0.02569226,0.01539379,-0
 .00117389,-0.02750577,0.01312244,0.00138938,0.01562734,-0.00669335,0.0
 5263610,-0.00012661,-0.00004215,-0.00000093,0.00005530,0.00011283,-0.0
 0002482,-0.00006412,-0.00036046,0.00001380,0.00027663,-0.00034036,-0.0
 0023157,0.00055952,-0.00015201,0.00039162,0.00014718,0.00004797,0.0000
 0844,0.00000896,0.00000330,-0.00000586,0.00000198,-0.00000305,0.000014
 28,0.00024063,0.00003227,0.00037294,0.00000797,0.00000095,0.00000821,-
 0.00171920,-0.00084314,0.00031934,-0.00003105,0.00030155,0.00010129,-0
 .00032398,0.00076561,-0.00062845,0.00003622,-0.00001794,0.00012735,0.0
 0024307,0.00008615,-0.00012355,0.00000336,-0.00000404,0.00000448,0.001
 73705,0.00101422,0.00067850,-0.00009693,-0.00002832,0.00001945,-0.0034
 0324,-0.02226752,0.00984371,0.00195617,-0.00250979,-0.00233259,-0.0006
 2150,-0.00097104,-0.00051219,-0.00120051,0.00078309,0.00087428,-0.0003
 5841,0.00041369,-0.00011074,0.00059794,0.00052626,-0.00060154,-0.00000
 794,-0.00002066,-0.00003680,-0.02516549,-0.26803686,0.10558001,0.00008
 227,-0.00292688,0.00108227,0.00032341,0.00171191,-0.00070443,0.0251602
 9,0.29220952,0.00002179,-0.00010875,0.00001950,-0.00004200,0.00005869,
 0.00002315,-0.00003956,-0.00002808,-0.00000177,0.00019282,-0.00000082,
 0.00006997,-0.00108948,0.00023534,-0.00055642,0.00014802,0.00000941,-0
 .00015838,0.00001592,0.00000140,0.00000580,0.00000185,-0.00000074,-0.0
 0001313,-0.00059698,0.00046979,-0.00047242,0.00001110,-0.00003002,0.00
 001381,-0.00053552,-0.00017384,0.00006073,0.00000953,0.00005693,0.0000
 0884,0.00002682,0.00009716,-0.00019686,0.00001276,-0.00001130,0.000010
 39,0.00008492,-0.00000446,0.00000906,0.00000735,0.00000275,-0.00000888
 ,0.00062852,-0.00023407,0.00056182,0.00002803,0.00000807,-0.00000144,-
 0.00267615,-0.02109368,0.00756990,0.00222032,-0.00233981,-0.00208513,-
 0.00054639,-0.00093079,-0.00028805,-0.00052324,-0.00056192,0.00057034,
 -0.00020498,0.00001166,0.00007480,0.00022799,0.00003136,-0.00029322,-0
 .00005883,0.00016234,0.00000703,0.01456626,0.11013333,-0.09684071,-0.0
 0053346,0.00446579,-0.00325886,0.00388903,0.02413659,-0.01100858,-0.01
 541216,-0.11447697,0.10591410,0.00370516,0.00351235,-0.00103929,0.0014
 3102,-0.00573019,-0.00114017,0.00317740,0.01209402,0.00064642,-0.00778
 657,0.00765167,0.00498134,0.00127120,-0.00510754,-0.00130756,-0.004413
 73,0.00065647,0.00167777,0.00011451,-0.00005253,-0.00003231,0.00007373
 ,-0.00005250,0.00000098,-0.00001654,-0.00015606,0.00013942,-0.00000611
 ,-0.00020422,0.00006162,0.04216475,0.03686256,-0.01896144,0.00415604,-
 0.01687452,-0.00627394,0.03113792,-0.02885122,0.04582698,-0.00281090,0
 .00177516,-0.00594585,-0.02883806,0.00252228,0.00250333,0.00054646,0.0
 0036909,0.00046390,-0.05395702,-0.00867518,-0.01167345,0.00149663,0.00
 062374,-0.00005223,-0.00282696,-0.07211944,0.02962745,-0.31161335,-0.0
 3057068,0.11898095,-0.01606345,-0.00743354,0.00418891,0.00581070,0.000
 82519,0.00401882,0.00029131,0.00030426,-0.00057404,-0.00013160,-0.0000
 2454,-0.00143902,0.00111270,0.00111043,-0.00181458,-0.00137674,0.00372
 048,0.00036334,-0.00077285,0.00097985,0.00044469,-0.00069396,0.0012698
 6,-0.00106588,-0.00176293,0.00175852,0.00039463,0.54820981,0.00013862,
 -0.00005927,-0.00004507,0.00004152,-0.00005819,-0.00005249,0.00019315,
 -0.00035530,0.00000204,0.00046553,-0.00003831,-0.00075037,-0.00009787,
 0.00004764,0.00015050,0.00016445,0.00016615,0.00002399,0.00000911,0.00
 000543,0.00000340,0.00003412,-0.00002155,-0.00000187,-0.00003258,0.000
 18291,0.00002331,-0.00001062,-0.00001539,-0.00003433,0.00009803,0.0007
 2151,0.00358911,-0.00006096,-0.00035376,-0.00000958,0.00118322,-0.0123
 2515,-0.00069941,-0.00157029,0.00067078,-0.00318262,-0.00026446,0.0005
 6612,-0.00063687,-0.00009758,-0.00006546,-0.00008892,-0.00369430,-0.00
 372660,0.00167332,-0.00014026,-0.00006347,0.00004902,-0.03296551,-0.01
 631773,0.01734180,-0.08641757,-0.13177487,0.02154680,0.01890630,0.0089
 6360,-0.00918800,0.00061423,-0.00472424,-0.00010856,0.00005898,0.00030
 686,0.00014963,-0.00113326,-0.00007634,0.00032920,-0.00027135,-0.00002
 406,-0.00015314,0.00014834,-0.00056125,0.00117154,-0.00148040,-0.00189
 694,0.00013222,-0.00033776,0.00034260,0.00015853,-0.00041908,0.0003305
 1,0.00003802,0.06999557,0.65836862,0.00261599,0.00244374,-0.00075407,0
 .00104858,-0.00411534,-0.00099004,0.00248002,0.00909089,0.00080125,-0.
 00439843,0.00501216,0.00240113,0.00081579,-0.00358765,-0.00076981,-0.0
 0311241,0.00052194,0.00115024,0.00008345,-0.00003531,-0.00001634,0.000
 06740,-0.00003171,0.00001758,-0.00003539,-0.00007288,0.00005782,-0.000
 02269,-0.00011319,0.00005096,0.01872259,0.01657862,-0.01289769,0.00481
 285,-0.01235643,-0.00246547,0.02887963,-0.01438213,0.01572524,-0.00514
 579,0.00225097,-0.00965286,-0.01637101,0.00080612,0.00454159,0.0002657
 9,0.00025217,0.00031474,-0.01999141,-0.00259721,-0.00093616,0.00106422
 ,0.00067945,-0.00054055,0.00444655,-0.00770986,0.00781236,0.14396771,0
 .03410117,-0.11208258,0.01633748,0.00621678,-0.00415653,0.00342825,-0.
 00082082,0.00438561,-0.00039901,0.00012307,0.00029508,-0.00052640,-0.0
 0006440,0.00034752,0.00092923,0.00075244,-0.00058299,-0.00287716,0.001
 41044,-0.00246961,0.00027692,-0.00008909,0.00039292,0.00054282,-0.0003
 6723,-0.00038369,-0.00019529,0.00050835,0.00027810,-0.28944120,0.06628
 419,0.27731952,-0.00001298,0.00005963,0.00001249,0.00002597,-0.0000608
 8,0.00000348,-0.00006468,0.00011824,-0.00009585,-0.00016710,0.00007629
 ,0.00002895,0.00003320,-0.00012452,-0.00002382,-0.00010824,-0.00005530
 ,0.00002427,0.00000048,-0.00000361,-0.00000147,-0.00001381,0.00001605,
 0.00000363,0.00000165,-0.00002902,0.00000033,-0.00000096,0.00000453,0.
 00000567,-0.00045688,-0.00138505,0.00072240,-0.00020282,0.00031869,0.0
 0021834,-0.00164129,0.00367394,-0.00266982,0.00027921,-0.00003788,0.00
 046331,0.00070980,0.00043588,-0.00046390,-0.00014593,-0.00011413,-0.00
 009445,0.00109028,0.00071374,-0.00026508,0.00005534,-0.00001020,-0.000
 02049,-0.00395583,-0.00000831,0.00473619,-0.00201018,-0.03157829,0.001
 42205,-0.00043919,0.00071190,-0.00240571,-0.00030224,-0.00098865,-0.00
 059361,0.00004747,0.00006770,-0.00000528,-0.00024826,-0.00013699,0.000
 09244,-0.00024718,-0.00013506,0.00015627,-0.00022499,0.00062329,0.0001
 6158,0.00030171,0.00002191,-0.00012896,0.00007477,-0.00004169,-0.00003
 947,0.00014287,-0.00006926,-0.00005015,-0.06370110,-0.06086971,0.01000
 857,0.06541718,0.00009894,0.00014565,-0.00001845,0.00008382,-0.0001692
 7,-0.00004714,0.00000919,0.00041307,0.00006669,-0.00009322,0.00025833,
 0.00017279,-0.00000094,-0.00011468,0.00001528,-0.00013267,0.00005700,0
 .00004443,0.00000150,0.00000365,-0.00000219,0.00000157,-0.00000746,0.0
 0000022,0.00000145,0.00001251,-0.00000599,-0.00000582,0.00000464,-0.00
 000551,-0.00040884,-0.00018569,-0.00014762,0.00033607,-0.00064300,-0.0
 0026839,0.00085618,-0.00030710,0.00016184,-0.00028373,0.00036388,-0.00
 003497,-0.00069273,0.00052105,-0.00005623,0.00009908,0.00002714,0.0001
 2139,0.00022017,0.00008301,-0.00010172,-0.00001972,0.00002165,0.000002
 52,-0.00159816,0.00080848,-0.00089799,0.00191491,-0.00278755,-0.002195
 27,0.00021719,0.00076370,0.00081622,0.00040627,-0.00041273,0.00033042,
 -0.00000988,0.00000960,0.00000110,-0.00017444,-0.00001270,0.00005758,0
 .00005570,0.00001565,-0.00006943,0.00023002,0.00002722,0.00016378,-0.0
 0025539,0.00010004,0.00009808,-0.00008769,0.00001059,0.00003354,-0.000
 10220,-0.00003691,-0.00000117,-0.06803444,-0.33701064,0.00095074,0.072
 84592,0.34949086,-0.00041501,-0.00030873,0.00012022,-0.00017504,0.0005
 2715,0.00014910,-0.00034528,-0.00099992,-0.00004816,0.00050482,-0.0008
 0549,-0.00000225,-0.00003257,0.00049233,0.00008928,0.00035536,-0.00018
 108,-0.00016761,-0.00000913,-0.00000621,0.00000146,-0.00001801,0.00001
 835,0.00000021,0.00000967,-0.00005625,-0.00001567,0.00000454,0.0000154
 7,-0.00000074,-0.00221296,-0.00337727,0.00076560,-0.00060765,0.0015240
 4,0.00050084,-0.00469402,0.00769119,-0.00619409,0.00041063,0.00027248,
 0.00054453,0.00259477,-0.00014895,-0.00068570,-0.00020851,-0.00007049,
 -0.00000390,0.00388150,0.00157200,0.00007308,0.00005055,-0.00001305,-0
 .00004158,0.00326103,0.00206789,0.00323507,-0.00002439,0.00484814,0.00
 497098,-0.00242397,0.00127656,-0.00321286,-0.00070993,0.00059926,-0.00
 070025,-0.00000951,0.00000279,-0.00000131,0.00015235,-0.00005692,-0.00
 008679,-0.00014372,-0.00013407,0.00025759,0.00007881,-0.00013142,0.000
 04307,-0.00018320,0.00026444,-0.00003963,0.00013588,-0.00003944,-0.000
 04118,-0.00026308,-0.00005955,0.00004758,0.01571581,0.00156648,-0.0383
 6566,-0.01079518,-0.00072649,0.03455476,-0.00008199,-0.00015779,0.0000
 1449,-0.00012623,0.00023961,0.00005242,-0.00012044,-0.00017645,0.00007
 411,0.00046988,-0.00040767,-0.00054627,-0.00007267,0.00019417,0.000129
 76,0.00017623,0.00004532,-0.00006231,-0.00000770,-0.00000048,-0.000002
 08,-0.00000483,0.00000160,-0.00000490,-0.00000064,-0.00001147,-0.00000
 326,-0.00000422,0.00000168,-0.00000405,-0.00170452,-0.00188489,0.00003
 543,-0.00003610,0.00031019,0.00110726,-0.00162551,-0.00025139,-0.00574
 849,-0.00027103,0.00002132,-0.00030665,0.00215862,-0.00021031,-0.00112
 835,-0.00002278,-0.00002690,-0.00001949,0.00172878,0.00059014,0.000312
 23,-0.00023097,-0.00002205,-0.00001002,-0.00061014,0.00354817,-0.00298
 957,-0.01333655,0.01779974,0.01699288,-0.00186245,-0.00309699,0.004488
 65,-0.00020513,-0.00019915,-0.00022662,0.00013493,-0.00008990,-0.00010
 850,-0.00003103,-0.00007129,0.00007461,-0.00009548,-0.00009230,0.00001
 520,-0.00003006,-0.00019047,-0.00015763,0.00093825,-0.00154683,-0.0001
 7809,-0.00002102,-0.00015766,0.00007565,0.00049459,-0.00000822,-0.0001
 7875,-0.14792746,0.09781239,0.10172237,0.00576374,-0.00547808,-0.00388
 460,0.15656393,0.00012681,0.00017391,-0.00001954,0.00009980,-0.0002599
 9,-0.00002852,0.00004776,0.00054644,-0.00018139,-0.00057302,0.00064532
 ,0.00028399,0.00005201,-0.00024664,-0.00012162,-0.00021125,-0.00005290
 ,0.00006419,0.00000564,-0.00000382,-0.00000400,-0.00000907,0.00000753,
 -0.00000292,-0.00000454,-0.00000381,0.00002113,0.00000213,-0.00000933,
 0.00000861,0.00155138,0.00113364,0.00103530,-0.00016157,-0.00031382,-0
 .00052608,0.00142194,-0.00051004,0.00331472,-0.00003234,0.00000244,0.0
 0022752,-0.00141863,-0.00013976,0.00043773,0.00006461,-0.00000580,-0.0
 0004381,-0.00130510,-0.00060843,-0.00025263,0.00006404,-0.00001278,0.0
 0002431,0.00088217,-0.00093661,0.00136042,-0.00324748,0.01094879,0.005
 04134,-0.00250425,0.00040058,-0.00003289,-0.00002168,0.00006433,-0.000
 27558,0.00006884,0.00003162,-0.00004907,0.00006039,0.00002416,-0.00004
 529,-0.00004531,-0.00000268,-0.00003000,-0.00086292,-0.00082310,-0.000
 07271,-0.00152500,-0.00438148,-0.00000156,-0.00005264,-0.00000798,-0.0
 0006959,0.00019540,0.00022129,0.00007780,0.09785509,-0.16120424,-0.101
 64001,0.01596084,-0.01144999,-0.01562323,-0.10648406,0.16677314,-0.000
 32891,-0.00036900,0.00009275,-0.00016822,0.00053680,0.00010339,-0.0002
 6436,-0.00101824,0.00002525,0.00059475,-0.00069080,-0.00051302,-0.0001
 4673,0.00061434,0.00019180,0.00048226,-0.00004367,-0.00019329,-0.00000
 776,-0.00000295,0.00000307,0.00000385,0.00000092,-0.00000054,-0.000000
 85,0.00000483,-0.00001803,-0.00000293,0.00000912,-0.00001595,-0.003637
 80,-0.00295923,-0.00063732,-0.00064961,0.00141983,0.00097778,-0.002951
 97,0.00053102,-0.00927609,-0.00022398,0.00011188,-0.00015306,0.0030970
 3,-0.00020300,-0.00068696,-0.00004033,-0.00003599,-0.00002973,0.003455
 03,0.00127054,0.00045393,-0.00019296,-0.00003618,-0.00002187,-0.001974
 93,0.00346282,-0.00440373,-0.00071047,-0.00934915,0.00171829,0.0035420
 7,-0.00073161,0.00554905,-0.00025337,-0.00009775,-0.00022965,-0.000013
 94,0.00000346,0.00006997,-0.00005690,0.00005691,0.00013799,-0.00005078
 ,-0.00010023,0.00004263,0.00081431,-0.00075584,0.00015334,-0.00069899,
 -0.00080291,0.00098665,-0.00035866,-0.00011097,0.00005849,-0.00003727,
 -0.00009836,-0.00006110,0.11072459,-0.09928188,-0.12882761,-0.00040672
 ,0.00154193,0.00425401,-0.10953543,0.10712337,0.13024958\\-0.00000217,
 0.00001120,-0.00000472,0.00000026,0.00000374,-0.00000530,0.00000043,-0
 .00000012,-0.00000483,0.00000223,0.00000957,-0.00000299,0.00000536,-0.
 00000552,-0.00000441,0.00001483,0.00001015,-0.00000980,0.00000908,0.00
 000683,-0.00001187,0.00000139,0.00000989,-0.00000710,0.00000666,-0.000
 00249,-0.00000223,0.00000771,-0.00000138,-0.00000880,0.00000557,-0.000
 00060,0.00000297,-0.00000512,0.00001120,0.00000045,0.00000723,0.000001
 19,-0.00000139,-0.00000429,-0.00000264,0.00000502,-0.00000895,-0.00000
 021,0.00000366,-0.00000616,0.00000278,0.00000324,-0.00000343,-0.000009
 47,0.00000034,-0.00000262,0.00000997,-0.00000260,0.00000107,-0.0000009
 7,0.00000482,-0.00000934,-0.00000329,0.00000736,-0.00000326,-0.0000089
 0,0.00000584,-0.00000033,-0.00000514,0.00000603,-0.00000019,-0.0000124
 2,0.00000403,0.00000301,-0.00001097,0.00000322,-0.00000035,-0.00001011
 ,0.00000566,0.00000446,0.00000146,0.00000181,-0.00000308,0.00000060,0.
 00000007,-0.00000181,-0.00000200,-0.00000076,0.00000010,-0.00000489,-0
 .00000157,-0.00000445,-0.00000626,0.00000491,-0.00000719,0.00000405,0.
 00000554,-0.00000666,0.00000476,0.00000341\\\@


 THOSE WHO TRY TO PASS CHEMISTRY OFF AS A NEW SCIENCE
 SHOW HOW LITTLE KNOWLEDGE THEY HAVE OF THE CHARACTER
 AND LITERATURE OF THE ANCIENTS.
   -- NICOLAS LEFEVRE
 "COURS DE CHYMIE" J.-N.LELOUP, PARIS, 1751
 Job cpu time:       0 days 21 hours  1 minutes 56.3 seconds.
 File lengths (MBytes):  RWF=   1178 Int=      0 D2E=      0 Chk=     31 Scr=      1
 Normal termination of Gaussian 09 at Fri Feb  4 16:43:54 2022.
