 Entering Gaussian System, Link 0=g09
 Input=ts_claisen.com
 Output=ts_claisen.log
 Initial command:
 /apps/applications/gaussian/G09.D01/2/default/g09/l1.exe "/nobackup/pmmass/Temp/Gau-126332.inp" -scrdir="/nobackup/pmmass/Temp/"
 Entering Link 1 = /apps/applications/gaussian/G09.D01/2/default/g09/l1.exe PID=    126333.
  
 Copyright (c) 1988,1990,1992,1993,1995,1998,2003,2009,2013,
            Gaussian, Inc.  All Rights Reserved.
  
 This is part of the Gaussian(R) 09 program.  It is based on
 the Gaussian(R) 03 system (copyright 2003, Gaussian, Inc.),
 the Gaussian(R) 98 system (copyright 1998, Gaussian, Inc.),
 the Gaussian(R) 94 system (copyright 1995, Gaussian, Inc.),
 the Gaussian 92(TM) system (copyright 1992, Gaussian, Inc.),
 the Gaussian 90(TM) system (copyright 1990, Gaussian, Inc.),
 the Gaussian 88(TM) system (copyright 1988, Gaussian, Inc.),
 the Gaussian 86(TM) system (copyright 1986, Carnegie Mellon
 University), and the Gaussian 82(TM) system (copyright 1983,
 Carnegie Mellon University). Gaussian is a federally registered
 trademark of Gaussian, Inc.
  
 This software contains proprietary and confidential information,
 including trade secrets, belonging to Gaussian, Inc.
  
 This software is provided under written license and may be
 used, copied, transmitted, or stored only in accord with that
 written license.
  
 The following legend is applicable only to US Government
 contracts under FAR:
  
                    RESTRICTED RIGHTS LEGEND
  
 Use, reproduction and disclosure by the US Government is
 subject to restrictions as set forth in subparagraphs (a)
 and (c) of the Commercial Computer Software - Restricted
 Rights clause in FAR 52.227-19.
  
 Gaussian, Inc.
 340 Quinnipiac St., Bldg. 40, Wallingford CT 06492
  
  
 ---------------------------------------------------------------
 Warning -- This program may not be used in any manner that
 competes with the business of Gaussian, Inc. or will provide
 assistance to any competitor of Gaussian, Inc.  The licensee
 of this program is prohibited from giving any competitor of
 Gaussian, Inc. access to this program.  By using this program,
 the user acknowledges that Gaussian, Inc. is engaged in the
 business of creating and licensing software in the field of
 computational chemistry and represents and warrants to the
 licensee that it is not a competitor of Gaussian, Inc. and that
 it will not use this program in any manner prohibited above.
 ---------------------------------------------------------------
  

 Cite this work as:
 Gaussian 09, Revision D.01,
 M. J. Frisch, G. W. Trucks, H. B. Schlegel, G. E. Scuseria, 
 M. A. Robb, J. R. Cheeseman, G. Scalmani, V. Barone, B. Mennucci, 
 G. A. Petersson, H. Nakatsuji, M. Caricato, X. Li, H. P. Hratchian, 
 A. F. Izmaylov, J. Bloino, G. Zheng, J. L. Sonnenberg, M. Hada, 
 M. Ehara, K. Toyota, R. Fukuda, J. Hasegawa, M. Ishida, T. Nakajima, 
 Y. Honda, O. Kitao, H. Nakai, T. Vreven, J. A. Montgomery, Jr., 
 J. E. Peralta, F. Ogliaro, M. Bearpark, J. J. Heyd, E. Brothers, 
 K. N. Kudin, V. N. Staroverov, T. Keith, R. Kobayashi, J. Normand, 
 K. Raghavachari, A. Rendell, J. C. Burant, S. S. Iyengar, J. Tomasi, 
 M. Cossi, N. Rega, J. M. Millam, M. Klene, J. E. Knox, J. B. Cross, 
 V. Bakken, C. Adamo, J. Jaramillo, R. Gomperts, R. E. Stratmann, 
 O. Yazyev, A. J. Austin, R. Cammi, C. Pomelli, J. W. Ochterski, 
 R. L. Martin, K. Morokuma, V. G. Zakrzewski, G. A. Voth, 
 P. Salvador, J. J. Dannenberg, S. Dapprich, A. D. Daniels, 
 O. Farkas, J. B. Foresman, J. V. Ortiz, J. Cioslowski, 
 and D. J. Fox, Gaussian, Inc., Wallingford CT, 2013.
 
 ******************************************
 Gaussian 09:  ES64L-G09RevD.01 24-Apr-2013
                 2-Feb-2022 
 ******************************************
 %nprocshared=8
 Will use up to    8 processors via shared memory.
 %mem=4GB
 %NoSave
 %chk="ts_claisen.chk"
 ----------------------------------------------------------------------
 #n wB97XD/Def2TZVP scrf(smd,solvent=toluene) opt=(calcfc,ts,noeigentes
 t)
 ----------------------------------------------------------------------
 1/5=1,10=4,11=1,14=-1,18=20,26=3,38=1/1,3;
 2/9=110,12=2,17=6,18=5,40=1/2;
 3/5=44,7=101,11=2,16=1,25=1,30=1,70=32201,71=2,72=13,74=-58,140=1/1,2,3;
 4//1;
 5/5=2,38=5,53=13/2;
 8/6=4,10=90,11=11/1;
 11/6=1,8=1,9=11,15=111,16=1/1,2,10;
 10/6=1,13=1/2;
 6/7=2,8=2,9=2,10=2,28=1/1;
 7/10=1,18=20,25=1/1,2,3,16;
 1/5=1,10=4,11=1,14=-1,18=20,26=3/3(2);
 2/9=110/2;
 99//99;
 2/9=110/2;
 3/5=44,7=101,11=2,16=1,25=1,30=1,70=32205,71=1,72=13,74=-58/1,2,3;
 4/5=5,16=3,69=1/1;
 5/5=2,38=5,53=13/2;
 7//1,2,3,16;
 1/5=1,11=1,14=-1,18=20,26=3/3(-5);
 2/9=110/2;
 6/7=2,8=2,9=2,10=2,19=2,28=1/1;
 99/9=1/99;
 ------------------------
 ts_claisen toluene - opt
 ------------------------
 Symbolic Z-matrix:
 Charge =  0 Multiplicity = 1
 C                    -2.26163   2.69545   0.33442 
 C                    -2.59089   1.35475   0.32762 
 C                    -1.64814   0.38375  -0.08329 
 C                    -0.35213   0.80995  -0.47474 
 C                    -0.04869   2.18664  -0.48026 
 C                    -0.98364   3.11934  -0.07887 
 H                    -3.0015    3.43071   0.65448 
 H                    -3.58492   1.03036   0.63436 
 H                     0.94573   2.48407  -0.81506 
 H                    -0.73756   4.18214  -0.0843 
 C                     0.66008  -0.15584  -0.9229 
 C                    -1.94928  -1.0281   -0.14609 
 C                     0.30759  -1.53496  -0.87749 
 H                     0.96086  -2.23637  -1.39364 
 C                    -1.03032  -1.94001  -0.56283 
 H                    -1.30727  -2.99299  -0.62639 
 O                     1.83819   0.21127  -1.20476 
 Cl                   -3.55152  -1.57187   0.28266 
 C                     3.08724  -0.14608   0.41975 
 C                     2.71671  -1.4889    0.57761 
 H                     3.32558  -2.23634   0.06101 
 C                     4.37397   0.18107  -0.27264 
 H                     4.69815  -0.63565  -0.92902 
 H                     4.24687   1.09294  -0.87099 
 H                     5.16131   0.37268   0.4744 
 C                     2.54365   0.9332    1.30871 
 H                     1.48601   0.78898   1.56151 
 H                     3.11993   0.93425   2.24845 
 H                     2.66053   1.91765   0.83852 
 C                     1.4547   -1.86597   1.00145 
 H                     1.19407  -2.92416   1.05729 
 H                     0.82706  -1.2023    1.5996 
 
 Add virtual bond connecting atoms C19        and O17        Dist= 3.93D+00.
 Add virtual bond connecting atoms C30        and C13        Dist= 4.21D+00.

 GradGradGradGradGradGradGradGradGradGradGradGradGradGradGradGradGradGrad
 Berny optimization.
 Initialization pass.
                           ----------------------------
                           !    Initial Parameters    !
                           ! (Angstroms and Degrees)  !
 --------------------------                            --------------------------
 ! Name  Definition              Value          Derivative Info.                !
 --------------------------------------------------------------------------------
 ! R1    R(1,2)                  1.3806         calculate D2E/DX2 analytically  !
 ! R2    R(1,6)                  1.4085         calculate D2E/DX2 analytically  !
 ! R3    R(1,7)                  1.0911         calculate D2E/DX2 analytically  !
 ! R4    R(2,3)                  1.4144         calculate D2E/DX2 analytically  !
 ! R5    R(2,8)                  1.0897         calculate D2E/DX2 analytically  !
 ! R6    R(3,4)                  1.4193         calculate D2E/DX2 analytically  !
 ! R7    R(3,12)                 1.445          calculate D2E/DX2 analytically  !
 ! R8    R(4,5)                  1.4097         calculate D2E/DX2 analytically  !
 ! R9    R(4,11)                 1.4691         calculate D2E/DX2 analytically  !
 ! R10   R(5,6)                  1.3803         calculate D2E/DX2 analytically  !
 ! R11   R(5,9)                  1.0906         calculate D2E/DX2 analytically  !
 ! R12   R(6,10)                 1.0909         calculate D2E/DX2 analytically  !
 ! R13   R(11,13)                1.4242         calculate D2E/DX2 analytically  !
 ! R14   R(11,17)                1.2658         calculate D2E/DX2 analytically  !
 ! R15   R(12,15)                1.3601         calculate D2E/DX2 analytically  !
 ! R16   R(12,18)                1.7455         calculate D2E/DX2 analytically  !
 ! R17   R(13,14)                1.0886         calculate D2E/DX2 analytically  !
 ! R18   R(13,15)                1.4329         calculate D2E/DX2 analytically  !
 ! R19   R(13,30)                2.2262         calculate D2E/DX2 analytically  !
 ! R20   R(15,16)                1.0906         calculate D2E/DX2 analytically  !
 ! R21   R(17,19)                2.0801         calculate D2E/DX2 analytically  !
 ! R22   R(19,20)                1.4019         calculate D2E/DX2 analytically  !
 ! R23   R(19,22)                1.4974         calculate D2E/DX2 analytically  !
 ! R24   R(19,26)                1.5002         calculate D2E/DX2 analytically  !
 ! R25   R(20,21)                1.0937         calculate D2E/DX2 analytically  !
 ! R26   R(20,30)                1.3837         calculate D2E/DX2 analytically  !
 ! R27   R(22,23)                1.0968         calculate D2E/DX2 analytically  !
 ! R28   R(22,24)                1.098          calculate D2E/DX2 analytically  !
 ! R29   R(22,25)                1.1021         calculate D2E/DX2 analytically  !
 ! R30   R(26,27)                1.097          calculate D2E/DX2 analytically  !
 ! R31   R(26,28)                1.1024         calculate D2E/DX2 analytically  !
 ! R32   R(26,29)                1.0972         calculate D2E/DX2 analytically  !
 ! R33   R(30,31)                1.0912         calculate D2E/DX2 analytically  !
 ! R34   R(30,32)                1.0919         calculate D2E/DX2 analytically  !
 ! A1    A(2,1,6)              120.4797         calculate D2E/DX2 analytically  !
 ! A2    A(2,1,7)              119.6135         calculate D2E/DX2 analytically  !
 ! A3    A(6,1,7)              119.9047         calculate D2E/DX2 analytically  !
 ! A4    A(1,2,3)              120.608          calculate D2E/DX2 analytically  !
 ! A5    A(1,2,8)              120.3495         calculate D2E/DX2 analytically  !
 ! A6    A(3,2,8)              119.0417         calculate D2E/DX2 analytically  !
 ! A7    A(2,3,4)              118.8558         calculate D2E/DX2 analytically  !
 ! A8    A(2,3,12)             122.9904         calculate D2E/DX2 analytically  !
 ! A9    A(4,3,12)             118.1452         calculate D2E/DX2 analytically  !
 ! A10   A(3,4,5)              119.3972         calculate D2E/DX2 analytically  !
 ! A11   A(3,4,11)             121.0557         calculate D2E/DX2 analytically  !
 ! A12   A(5,4,11)             119.505          calculate D2E/DX2 analytically  !
 ! A13   A(4,5,6)              120.8606         calculate D2E/DX2 analytically  !
 ! A14   A(4,5,9)              117.6318         calculate D2E/DX2 analytically  !
 ! A15   A(6,5,9)              121.5073         calculate D2E/DX2 analytically  !
 ! A16   A(1,6,5)              119.774          calculate D2E/DX2 analytically  !
 ! A17   A(1,6,10)             119.956          calculate D2E/DX2 analytically  !
 ! A18   A(5,6,10)             120.2695         calculate D2E/DX2 analytically  !
 ! A19   A(4,11,13)            117.1522         calculate D2E/DX2 analytically  !
 ! A20   A(4,11,17)            121.2358         calculate D2E/DX2 analytically  !
 ! A21   A(13,11,17)           121.2196         calculate D2E/DX2 analytically  !
 ! A22   A(3,12,15)            121.8454         calculate D2E/DX2 analytically  !
 ! A23   A(3,12,18)            119.0136         calculate D2E/DX2 analytically  !
 ! A24   A(15,12,18)           119.1186         calculate D2E/DX2 analytically  !
 ! A25   A(11,13,14)           117.4047         calculate D2E/DX2 analytically  !
 ! A26   A(11,13,15)           120.7871         calculate D2E/DX2 analytically  !
 ! A27   A(11,13,30)            92.4853         calculate D2E/DX2 analytically  !
 ! A28   A(14,13,15)           118.8355         calculate D2E/DX2 analytically  !
 ! A29   A(14,13,30)            89.7226         calculate D2E/DX2 analytically  !
 ! A30   A(15,13,30)           104.6999         calculate D2E/DX2 analytically  !
 ! A31   A(12,15,13)           120.5743         calculate D2E/DX2 analytically  !
 ! A32   A(12,15,16)           119.5789         calculate D2E/DX2 analytically  !
 ! A33   A(13,15,16)           119.817          calculate D2E/DX2 analytically  !
 ! A34   A(11,17,19)           109.5822         calculate D2E/DX2 analytically  !
 ! A35   A(17,19,20)            95.3814         calculate D2E/DX2 analytically  !
 ! A36   A(17,19,22)            96.7388         calculate D2E/DX2 analytically  !
 ! A37   A(17,19,26)            96.9847         calculate D2E/DX2 analytically  !
 ! A38   A(20,19,22)           119.2397         calculate D2E/DX2 analytically  !
 ! A39   A(20,19,26)           121.7764         calculate D2E/DX2 analytically  !
 ! A40   A(22,19,26)           115.3531         calculate D2E/DX2 analytically  !
 ! A41   A(19,20,21)           117.0169         calculate D2E/DX2 analytically  !
 ! A42   A(19,20,30)           122.4517         calculate D2E/DX2 analytically  !
 ! A43   A(21,20,30)           117.7876         calculate D2E/DX2 analytically  !
 ! A44   A(19,22,23)           111.594          calculate D2E/DX2 analytically  !
 ! A45   A(19,22,24)           109.5086         calculate D2E/DX2 analytically  !
 ! A46   A(19,22,25)           109.7823         calculate D2E/DX2 analytically  !
 ! A47   A(23,22,24)           109.056          calculate D2E/DX2 analytically  !
 ! A48   A(23,22,25)           108.902          calculate D2E/DX2 analytically  !
 ! A49   A(24,22,25)           107.919          calculate D2E/DX2 analytically  !
 ! A50   A(19,26,27)           113.0376         calculate D2E/DX2 analytically  !
 ! A51   A(19,26,28)           108.4458         calculate D2E/DX2 analytically  !
 ! A52   A(19,26,29)           110.6684         calculate D2E/DX2 analytically  !
 ! A53   A(27,26,28)           107.9205         calculate D2E/DX2 analytically  !
 ! A54   A(27,26,29)           108.6281         calculate D2E/DX2 analytically  !
 ! A55   A(28,26,29)           107.9851         calculate D2E/DX2 analytically  !
 ! A56   A(13,30,20)            99.8414         calculate D2E/DX2 analytically  !
 ! A57   A(13,30,31)            93.6871         calculate D2E/DX2 analytically  !
 ! A58   A(13,30,32)            94.3469         calculate D2E/DX2 analytically  !
 ! A59   A(20,30,31)           119.8532         calculate D2E/DX2 analytically  !
 ! A60   A(20,30,32)           121.7666         calculate D2E/DX2 analytically  !
 ! A61   A(31,30,32)           115.0934         calculate D2E/DX2 analytically  !
 ! D1    D(6,1,2,3)              0.5326         calculate D2E/DX2 analytically  !
 ! D2    D(6,1,2,8)           -179.1296         calculate D2E/DX2 analytically  !
 ! D3    D(7,1,2,3)            179.9985         calculate D2E/DX2 analytically  !
 ! D4    D(7,1,2,8)              0.3363         calculate D2E/DX2 analytically  !
 ! D5    D(2,1,6,5)             -0.6865         calculate D2E/DX2 analytically  !
 ! D6    D(2,1,6,10)           179.0831         calculate D2E/DX2 analytically  !
 ! D7    D(7,1,6,5)            179.8491         calculate D2E/DX2 analytically  !
 ! D8    D(7,1,6,10)            -0.3813         calculate D2E/DX2 analytically  !
 ! D9    D(1,2,3,4)              0.6886         calculate D2E/DX2 analytically  !
 ! D10   D(1,2,3,12)          -178.2192         calculate D2E/DX2 analytically  !
 ! D11   D(8,2,3,4)           -179.6448         calculate D2E/DX2 analytically  !
 ! D12   D(8,2,3,12)             1.4474         calculate D2E/DX2 analytically  !
 ! D13   D(2,3,4,5)             -1.7456         calculate D2E/DX2 analytically  !
 ! D14   D(2,3,4,11)          -179.3752         calculate D2E/DX2 analytically  !
 ! D15   D(12,3,4,5)           177.2155         calculate D2E/DX2 analytically  !
 ! D16   D(12,3,4,11)           -0.4142         calculate D2E/DX2 analytically  !
 ! D17   D(2,3,12,15)          179.0561         calculate D2E/DX2 analytically  !
 ! D18   D(2,3,12,18)            0.7949         calculate D2E/DX2 analytically  !
 ! D19   D(4,3,12,15)            0.141          calculate D2E/DX2 analytically  !
 ! D20   D(4,3,12,18)         -178.1202         calculate D2E/DX2 analytically  !
 ! D21   D(3,4,5,6)              1.6226         calculate D2E/DX2 analytically  !
 ! D22   D(3,4,5,9)           -178.1732         calculate D2E/DX2 analytically  !
 ! D23   D(11,4,5,6)           179.2894         calculate D2E/DX2 analytically  !
 ! D24   D(11,4,5,9)            -0.5064         calculate D2E/DX2 analytically  !
 ! D25   D(3,4,11,13)           -3.3028         calculate D2E/DX2 analytically  !
 ! D26   D(3,4,11,17)         -176.1958         calculate D2E/DX2 analytically  !
 ! D27   D(5,4,11,13)          179.0701         calculate D2E/DX2 analytically  !
 ! D28   D(5,4,11,17)            6.1771         calculate D2E/DX2 analytically  !
 ! D29   D(4,5,6,1)             -0.4044         calculate D2E/DX2 analytically  !
 ! D30   D(4,5,6,10)           179.8267         calculate D2E/DX2 analytically  !
 ! D31   D(9,5,6,1)            179.3834         calculate D2E/DX2 analytically  !
 ! D32   D(9,5,6,10)            -0.3856         calculate D2E/DX2 analytically  !
 ! D33   D(4,11,13,14)         167.6358         calculate D2E/DX2 analytically  !
 ! D34   D(4,11,13,15)           7.3674         calculate D2E/DX2 analytically  !
 ! D35   D(4,11,13,30)        -101.3875         calculate D2E/DX2 analytically  !
 ! D36   D(17,11,13,14)        -19.4699         calculate D2E/DX2 analytically  !
 ! D37   D(17,11,13,15)       -179.7383         calculate D2E/DX2 analytically  !
 ! D38   D(17,11,13,30)         71.5067         calculate D2E/DX2 analytically  !
 ! D39   D(4,11,17,19)          98.1804         calculate D2E/DX2 analytically  !
 ! D40   D(13,11,17,19)        -74.4233         calculate D2E/DX2 analytically  !
 ! D41   D(3,12,15,13)           3.9454         calculate D2E/DX2 analytically  !
 ! D42   D(3,12,15,16)        -178.0423         calculate D2E/DX2 analytically  !
 ! D43   D(18,12,15,13)       -177.7952         calculate D2E/DX2 analytically  !
 ! D44   D(18,12,15,16)          0.2172         calculate D2E/DX2 analytically  !
 ! D45   D(11,13,15,12)         -7.8908         calculate D2E/DX2 analytically  !
 ! D46   D(11,13,15,16)        174.1015         calculate D2E/DX2 analytically  !
 ! D47   D(14,13,15,12)       -167.8829         calculate D2E/DX2 analytically  !
 ! D48   D(14,13,15,16)         14.1095         calculate D2E/DX2 analytically  !
 ! D49   D(30,13,15,12)         94.1431         calculate D2E/DX2 analytically  !
 ! D50   D(30,13,15,16)        -83.8645         calculate D2E/DX2 analytically  !
 ! D51   D(11,13,30,20)        -59.011          calculate D2E/DX2 analytically  !
 ! D52   D(11,13,30,31)        179.8283         calculate D2E/DX2 analytically  !
 ! D53   D(11,13,30,32)         64.291          calculate D2E/DX2 analytically  !
 ! D54   D(14,13,30,20)         58.4085         calculate D2E/DX2 analytically  !
 ! D55   D(14,13,30,31)        -62.7522         calculate D2E/DX2 analytically  !
 ! D56   D(14,13,30,32)       -178.2895         calculate D2E/DX2 analytically  !
 ! D57   D(15,13,30,20)        178.2336         calculate D2E/DX2 analytically  !
 ! D58   D(15,13,30,31)         57.0729         calculate D2E/DX2 analytically  !
 ! D59   D(15,13,30,32)        -58.4644         calculate D2E/DX2 analytically  !
 ! D60   D(11,17,19,20)         51.7815         calculate D2E/DX2 analytically  !
 ! D61   D(11,17,19,22)        172.1242         calculate D2E/DX2 analytically  !
 ! D62   D(11,17,19,26)        -71.2043         calculate D2E/DX2 analytically  !
 ! D63   D(17,19,20,21)         92.5978         calculate D2E/DX2 analytically  !
 ! D64   D(17,19,20,30)        -68.2024         calculate D2E/DX2 analytically  !
 ! D65   D(22,19,20,21)         -8.227          calculate D2E/DX2 analytically  !
 ! D66   D(22,19,20,30)       -169.0272         calculate D2E/DX2 analytically  !
 ! D67   D(26,19,20,21)       -165.7464         calculate D2E/DX2 analytically  !
 ! D68   D(26,19,20,30)         33.4534         calculate D2E/DX2 analytically  !
 ! D69   D(17,19,22,23)        -77.1632         calculate D2E/DX2 analytically  !
 ! D70   D(17,19,22,24)         43.6841         calculate D2E/DX2 analytically  !
 ! D71   D(17,19,22,25)        161.9987         calculate D2E/DX2 analytically  !
 ! D72   D(20,19,22,23)         22.8789         calculate D2E/DX2 analytically  !
 ! D73   D(20,19,22,24)        143.7263         calculate D2E/DX2 analytically  !
 ! D74   D(20,19,22,25)        -97.9592         calculate D2E/DX2 analytically  !
 ! D75   D(26,19,22,23)       -178.2028         calculate D2E/DX2 analytically  !
 ! D76   D(26,19,22,24)        -57.3555         calculate D2E/DX2 analytically  !
 ! D77   D(26,19,22,25)         60.959          calculate D2E/DX2 analytically  !
 ! D78   D(17,19,26,27)         62.3441         calculate D2E/DX2 analytically  !
 ! D79   D(17,19,26,28)       -178.0316         calculate D2E/DX2 analytically  !
 ! D80   D(17,19,26,29)        -59.7563         calculate D2E/DX2 analytically  !
 ! D81   D(20,19,26,27)        -38.4359         calculate D2E/DX2 analytically  !
 ! D82   D(20,19,26,28)         81.1885         calculate D2E/DX2 analytically  !
 ! D83   D(20,19,26,29)       -160.5362         calculate D2E/DX2 analytically  !
 ! D84   D(22,19,26,27)        163.231          calculate D2E/DX2 analytically  !
 ! D85   D(22,19,26,28)        -77.1446         calculate D2E/DX2 analytically  !
 ! D86   D(22,19,26,29)         41.1306         calculate D2E/DX2 analytically  !
 ! D87   D(19,20,30,13)         76.5785         calculate D2E/DX2 analytically  !
 ! D88   D(19,20,30,31)        176.6464         calculate D2E/DX2 analytically  !
 ! D89   D(19,20,30,32)        -24.8357         calculate D2E/DX2 analytically  !
 ! D90   D(21,20,30,13)        -84.082          calculate D2E/DX2 analytically  !
 ! D91   D(21,20,30,31)         15.9859         calculate D2E/DX2 analytically  !
 ! D92   D(21,20,30,32)        174.5037         calculate D2E/DX2 analytically  !
 --------------------------------------------------------------------------------
 Trust Radius=3.00D-01 FncErr=1.00D-07 GrdErr=1.00D-06
 Number of steps in this run=    192 maximum allowed number of steps=    192.
 Search for a saddle point of order  1.
 GradGradGradGradGradGradGradGradGradGradGradGradGradGradGradGradGradGrad

                          Input orientation:                          
 ---------------------------------------------------------------------
 Center     Atomic      Atomic             Coordinates (Angstroms)
 Number     Number       Type             X           Y           Z
 ---------------------------------------------------------------------
      1          6           0       -2.261630    2.695450    0.334420
      2          6           0       -2.590890    1.354750    0.327620
      3          6           0       -1.648140    0.383750   -0.083290
      4          6           0       -0.352130    0.809950   -0.474740
      5          6           0       -0.048690    2.186640   -0.480260
      6          6           0       -0.983640    3.119340   -0.078870
      7          1           0       -3.001500    3.430710    0.654480
      8          1           0       -3.584920    1.030360    0.634360
      9          1           0        0.945730    2.484070   -0.815060
     10          1           0       -0.737560    4.182140   -0.084300
     11          6           0        0.660080   -0.155840   -0.922900
     12          6           0       -1.949280   -1.028100   -0.146090
     13          6           0        0.307590   -1.534960   -0.877490
     14          1           0        0.960860   -2.236370   -1.393640
     15          6           0       -1.030320   -1.940010   -0.562830
     16          1           0       -1.307270   -2.992990   -0.626390
     17          8           0        1.838190    0.211270   -1.204760
     18         17           0       -3.551520   -1.571870    0.282660
     19          6           0        3.087240   -0.146080    0.419750
     20          6           0        2.716710   -1.488900    0.577610
     21          1           0        3.325580   -2.236340    0.061010
     22          6           0        4.373970    0.181070   -0.272640
     23          1           0        4.698150   -0.635650   -0.929020
     24          1           0        4.246870    1.092940   -0.870990
     25          1           0        5.161310    0.372680    0.474400
     26          6           0        2.543650    0.933200    1.308710
     27          1           0        1.486010    0.788980    1.561510
     28          1           0        3.119930    0.934250    2.248450
     29          1           0        2.660530    1.917650    0.838520
     30          6           0        1.454700   -1.865970    1.001450
     31          1           0        1.194070   -2.924160    1.057290
     32          1           0        0.827060   -1.202300    1.599600
 ---------------------------------------------------------------------
                    Distance matrix (angstroms):
                    1          2          3          4          5
     1  C    0.000000
     2  C    1.380556   0.000000
     3  C    2.427923   1.414378   0.000000
     4  C    2.802863   2.439802   1.419338   0.000000
     5  C    2.412404   2.794189   2.442588   1.409745   0.000000
     6  C    1.408457   2.421211   2.815143   2.426685   1.380281
     7  H    1.091079   2.141273   3.414653   3.893929   3.399181
     8  H    2.147926   1.089685   2.164311   3.424852   3.883849
     9  H    3.413670   3.884426   3.416869   2.145445   1.090608
    10  H    2.169876   3.405678   3.906011   3.416528   2.147870
    11  C    4.271662   3.796642   2.514753   1.469070   2.487066
    12  C    3.767397   2.512775   1.444974   2.457097   3.749462
    13  C    5.095683   4.266603   2.852557   2.469016   3.759659
    14  H    6.139502   5.336085   3.922872   3.442148   4.627793
    15  C    4.879413   3.752829   2.451840   2.833722   4.242600
    16  H    5.847419   4.632565   3.437081   3.923983   5.332349
    17  O    5.034754   4.824156   3.666325   2.385131   2.826182
    18  Cl   4.458309   3.080574   2.753402   4.059904   5.194060
    19  C    6.057391   5.873852   4.791408   3.680132   4.010693
    20  C    6.507826   6.026563   4.795365   3.976170   4.719759
    21  H    7.457494   6.926155   5.623485   4.805462   5.589403
    22  C    7.121925   7.088520   6.028494   4.772039   4.860590
    23  H    7.818635   7.659696   6.483042   5.272709   5.540686
    24  H    6.810406   6.946954   5.989538   4.624705   4.449796
    25  H    7.779132   7.815536   6.832258   5.611603   5.598743
    26  C    5.210133   5.244401   4.450917   3.403149   3.389949
    27  H    4.380089   4.296940   3.562650   2.743267   2.911629
    28  H    5.977167   6.039857   5.336155   4.414342   4.365145
    29  H    5.008667   5.306156   4.665535   3.468108   3.025130
    30  C    5.921367   5.214775   3.983154   3.550256   4.569387
    31  H    6.636597   5.759115   4.507921   4.322202   5.479853
    32  H    5.131583   4.454079   3.387372   3.121302   4.071568
                    6          7          8          9         10
     6  C    0.000000
     7  H    2.169450   0.000000
     8  H    3.411626   2.470317   0.000000
     9  H    2.160558   4.316978   4.974021   0.000000
    10  H    1.090930   2.497172   4.307859   2.500183   0.000000
    11  C    3.760453   5.362708   4.674629   2.657508   4.634082
    12  C    4.258901   4.650706   2.742568   4.600428   5.349643
    13  C    4.895669   6.160754   4.900836   4.069855   5.865724
    14  H    5.847506   7.211857   5.953858   4.755790   6.767294
    15  C    5.082659   5.849105   4.096626   4.851894   6.147798
    16  H    6.145331   6.765720   4.792132   5.925352   7.218097
    17  O    4.205618   6.102800   5.784755   2.472644   4.863921
    18  Cl   5.360239   5.046442   2.626102   6.154746   6.415735
    19  C    5.242485   7.065499   6.778480   3.609503   5.797987
    20  C    5.946380   7.543633   6.786784   4.567318   6.673140
    21  H    6.875482   8.514670   7.665186   5.358494   7.597836
    22  C    6.113507   8.112784   8.055301   4.165436   6.493980
    23  H    6.863340   8.850275   8.592380   4.881219   7.312427
    24  H    5.664979   7.767309   7.975395   3.582722   5.916636
    25  H    6.753566   8.718684   8.772381   4.887923   7.044203
    26  C    4.375656   6.116720   6.166325   3.077165   4.823114
    27  H    3.771020   5.285753   5.160640   2.968723   4.377955
    28  H    5.199069   6.800365   6.897067   4.063764   5.556144
    29  H    3.945331   5.863600   6.311467   2.448611   4.186470
    30  C    5.653840   6.930579   5.824195   4.741477   6.524147
    31  H    6.523586   7.625578   6.217382   5.728553   7.452109
    32  H    4.977195   6.084070   5.038058   4.408400   5.854549
                   11         12         13         14         15
    11  C    0.000000
    12  C    2.858851   0.000000
    13  C    1.424178   2.425967   0.000000
    14  H    2.154221   3.388984   1.088645   0.000000
    15  C    2.484022   1.360051   1.432857   2.177814   0.000000
    16  H    3.465228   2.122182   2.190131   2.511087   1.090646
    17  O    1.265764   4.123318   2.345029   2.606976   3.642586
    18  Cl   4.603921   1.745476   4.029893   4.859333   2.684554
    19  C    2.773790   5.144382   3.367235   3.489869   4.597602
    20  C    2.873727   4.744211   2.814835   2.743638   3.942631
    21  H    3.521569   5.415430   3.237434   2.776312   4.410312
    22  C    3.785410   6.439068   4.454890   4.330124   5.812877
    23  H    4.066481   6.704873   4.482012   4.092128   5.886495
    24  H    3.798317   6.589125   4.735380   4.706945   6.094463
    25  H    4.742663   7.273767   5.387513   5.285877   6.690341
    26  C    3.116717   5.113664   3.983874   4.455793   4.952904
    27  H    2.783368   4.244867   3.569046   4.261624   4.276929
    28  H    4.158920   5.939826   4.876244   5.289540   5.778342
    29  H    3.376946   5.558529   4.516806   5.012714   5.519755
    30  C    2.694270   3.688625   2.226173   2.473364   2.937308
    31  H    3.445271   3.863136   2.541475   2.556267   2.922542
    32  H    2.736050   3.284181   2.552741   3.169651   2.944517
                   16         17         18         19         20
    16  H    0.000000
    17  O    4.527219   0.000000
    18  Cl   2.807599   5.868644   0.000000
    19  C    5.339571   2.080110   6.791525   0.000000
    20  C    4.461426   2.615190   6.275714   1.401919   0.000000
    21  H    4.744295   3.131341   6.912681   2.134171   1.093739
    22  C    6.517383   2.701840   8.136003   1.497366   2.501647
    23  H    6.458615   2.995443   8.390574   2.157288   2.631364
    24  H    6.899502   2.586597   8.321479   2.132117   3.332526
    25  H    7.374415   3.726762   8.929247   2.138660   3.074443
    26  C    5.830023   2.708577   6.669277   1.500195   2.535947
    27  H    5.185809   2.847811   5.708395   2.177588   2.769733
    28  H    6.579363   3.753694   7.392781   2.124223   2.970850
    29  H    6.481033   2.786210   7.146698   2.148588   3.416989
    30  C    3.398311   3.054399   5.066102   2.441635   1.383651
    31  H    3.015994   3.919526   4.994934   3.421736   2.146741
    32  H    3.566086   3.299242   4.587251   2.759721   2.167344
                   21         22         23         24         25
    21  H    0.000000
    22  C    2.655996   0.000000
    23  H    2.329445   1.096795   0.000000
    24  H    3.577919   1.098036   1.787469   0.000000
    25  H    3.216797   1.102129   1.789088   1.779059   0.000000
    26  C    3.494875   2.533069   3.480028   2.770842   2.803997
    27  H    3.845527   3.474762   4.306989   3.692126   3.855249
    28  H    3.857438   2.914754   3.879649   3.320555   2.762218
    29  H    4.278136   2.680721   3.714220   2.473670   2.961995
    30  C    2.126451   3.786267   3.969933   4.478548   4.362143
    31  H    2.451327   4.639281   4.632632   5.401384   5.191137
    32  H    3.111125   4.242590   4.658363   4.802816   4.746826
                   26         27         28         29         30
    26  C    0.000000
    27  H    1.096955   0.000000
    28  H    1.102366   1.778394   0.000000
    29  H    1.097215   1.782164   1.779333   0.000000
    30  C    3.019201   2.713560   3.488443   3.974463   0.000000
    31  H    4.094363   3.758574   4.473827   5.063743   1.091243
    32  H    2.755296   2.097823   3.200485   3.697965   1.091867
                   31         32
    31  H    0.000000
    32  H    1.842172   0.000000
 Stoichiometry    C15H15ClO
 Framework group  C1[X(C15H15ClO)]
 Deg. of freedom    90
 Full point group                 C1      NOp   1
 Largest Abelian subgroup         C1      NOp   1
 Largest concise Abelian subgroup C1      NOp   1
                         Standard orientation:                         
 ---------------------------------------------------------------------
 Center     Atomic      Atomic             Coordinates (Angstroms)
 Number     Number       Type             X           Y           Z
 ---------------------------------------------------------------------
      1          6           0       -2.261627    2.695451    0.334420
      2          6           0       -2.590888    1.354751    0.327620
      3          6           0       -1.648139    0.383751   -0.083290
      4          6           0       -0.352128    0.809950   -0.474740
      5          6           0       -0.048687    2.186639   -0.480260
      6          6           0       -0.983637    3.119340   -0.078870
      7          1           0       -3.001496    3.430712    0.654480
      8          1           0       -3.584918    1.030362    0.634360
      9          1           0        0.945733    2.484069   -0.815060
     10          1           0       -0.737556    4.182140   -0.084300
     11          6           0        0.660081   -0.155841   -0.922900
     12          6           0       -1.949280   -1.028099   -0.146090
     13          6           0        0.307590   -1.534961   -0.877490
     14          1           0        0.960860   -2.236371   -1.393640
     15          6           0       -1.030320   -1.940010   -0.562830
     16          1           0       -1.307271   -2.992990   -0.626390
     17          8           0        1.838191    0.211268   -1.204760
     18         17           0       -3.551520   -1.571868    0.282660
     19          6           0        3.087241   -0.146083    0.419750
     20          6           0        2.716710   -1.488903    0.577610
     21          1           0        3.325580   -2.236343    0.061010
     22          6           0        4.373971    0.181066   -0.272640
     23          1           0        4.698151   -0.635654   -0.929020
     24          1           0        4.246872    1.092936   -0.870990
     25          1           0        5.161311    0.372676    0.474400
     26          6           0        2.543652    0.933198    1.308710
     27          1           0        1.486012    0.788978    1.561510
     28          1           0        3.119932    0.934247    2.248450
     29          1           0        2.660533    1.917648    0.838520
     30          6           0        1.454700   -1.865972    1.001450
     31          1           0        1.194069   -2.924161    1.057290
     32          1           0        0.827060   -1.202301    1.599600
 ---------------------------------------------------------------------
 Rotational constants (GHZ):      0.6890559      0.3320521      0.2495024
 Standard basis: def2TZVP (5D, 7F)
 There are   708 symmetry adapted cartesian basis functions of A   symmetry.
 There are   623 symmetry adapted basis functions of A   symmetry.
   623 basis functions,  1005 primitive gaussians,   708 cartesian basis functions
    65 alpha electrons       65 beta electrons
       nuclear repulsion energy      1298.7645159289 Hartrees.
 NAtoms=   32 NActive=   32 NUniq=   32 SFac= 1.00D+00 NAtFMM=   60 NAOKFM=F Big=F
 Integral buffers will be    131072 words long.
 Raffenetti 2 integral format.
 Two-electron integral symmetry is turned on.
 Nuclear repulsion after empirical dispersion term =     1298.7376501217 Hartrees.
 Force inversion solution in PCM.
 ------------------------------------------------------------------------------
 Polarizable Continuum Model (PCM)
 =================================
 Model                : PCM (using non-symmetric T matrix).
 Atomic radii         : SMD-Coulomb.
 Polarization charges : Total charges.
 Charge compensation  : None.
 Solution method      : Matrix inversion.
 Cavity type          : VdW (van der Waals Surface) (Alpha=1.000).
 Cavity algorithm     : GePol (No added spheres)
                        Default sphere list used, NSphG=   32.
                        Lebedev-Laikov grids with approx.  5.0 points / Ang**2.
                        Smoothing algorithm: Karplus/York (Gamma=1.0000).
                        Polarization charges: spherical gaussians, with
                                              point-specific exponents (IZeta= 3).
                        Self-potential: point-specific (ISelfS= 7).
                        Self-field    : sphere-specific E.n sum rule (ISelfD= 2).
 1st derivatives      : Analytical E(r).r(x)/FMM algorithm (CHGder, D1EAlg=3).
                        Cavity 1st derivative terms included.
 2nd derivatives      : Analytical E(r).r(xy)/FMM algorithm (CHGder, D2EAlg=3).
                        Cavity 2nd derivative terms included.
 Solvent              : Toluene, Eps=   2.374100 Eps(inf)=   2.238315
 ------------------------------------------------------------------------------
 ------------------------------------------------------------------------------
 Atomic radii for non-electrostatic terms: SMD-CDS.
 ------------------------------------------------------------------------------
 Nuclear repulsion after PCM non-electrostatic terms =     1298.7270434780 Hartrees.
 One-electron integrals computed using PRISM.
   1 Symmetry operations used in ECPInt.
 ECPInt:  NShTT=   31125 NPrTT=   96136 LenC2=   28843 LenP2D=   65287.
 LDataN:  DoStor=T MaxTD1= 6 Len=  172
 NBasis=   623 RedAO= T EigKep=  6.22D-06  NBF=   623
 NBsUse=   623 1.00D-06 EigRej= -1.00D+00 NBFU=   623
 ExpMin= 9.52D-02 ExpMax= 6.95D+04 ExpMxC= 2.37D+03 IAcc=2 IRadAn=         4 AccDes= 0.00D+00
 Harris functional with IExCor= 4639 and IRadAn=       4 diagonalized for initial guess.
 HarFok:  IExCor= 4639 AccDes= 0.00D+00 IRadAn=         4 IDoV= 1 UseB2=F ITyADJ=14
 ICtDFT=  3500011 ScaDFX=  1.000000  1.000000  1.000000  1.000000
 FoFCou: FMM=F IPFlag=           0 FMFlag=      100000 FMFlg1=           0
         NFxFlg=           0 DoJE=T BraDBF=F KetDBF=T FulRan=T
         wScrn=  0.000000 ICntrl=     500 IOpCl=  0 I1Cent=   200000004 NGrid=           0
         NMat0=    1 NMatS0=      1 NMatT0=    0 NMatD0=    1 NMtDS0=    0 NMtDT0=    0
 Petite list used in FoFCou.
 Requested convergence on RMS density matrix=1.00D-08 within 128 cycles.
 Requested convergence on MAX density matrix=1.00D-06.
 Requested convergence on             energy=1.00D-06.
 No special actions if energy rises.
 Inv3:  Mode=1 IEnd=    17700123.
 Iteration    1 A*A^-1 deviation from unit magnitude is 4.66D-15 for   2426.
 Iteration    1 A*A^-1 deviation from orthogonality  is 2.95D-15 for   1243    402.
 Iteration    1 A^-1*A deviation from unit magnitude is 4.88D-15 for   2426.
 Iteration    1 A^-1*A deviation from orthogonality  is 1.75D-13 for   1702   1583.
 Error on total polarization charges =  0.02681
 SCF Done:  E(RwB97XD) =  -1116.03180135     A.U. after   16 cycles
            NFock= 16  Conv=0.41D-08     -V/T= 2.0038
 SMD-CDS (non-electrostatic) energy       (kcal/mol) =      -6.66
 (included in total energy above)
 DoSCS=F DFT=T ScalE2(SS,OS)=  1.000000  1.000000
 Range of M.O.s used for correlation:     1   623
 NBasis=   623 NAE=    65 NBE=    65 NFC=     0 NFV=     0
 NROrb=    623 NOA=    65 NOB=    65 NVA=   558 NVB=   558

 **** Warning!!: The largest alpha MO coefficient is  0.58922446D+02

   1 Symmetry operations used in ECPInt.
 ECPInt:  NShTT=   31125 NPrTT=   96136 LenC2=   28843 LenP2D=   65287.
 LDataN:  DoStor=T MaxTD1= 7 Len=  274
 Number of processors reduced to   4 by ecpmxn.
 Symmetrizing basis deriv contribution to polar:
 IMax=3 JMax=2 DiffMx= 0.00D+00
 G2DrvN: will do    33 centers at a time, making    1 passes.
 Calling FoFCou, ICntrl=  3107 FMM=F I1Cent=   0 AccDes= 0.00D+00.
 NEqPCM:  Using equilibrium solvation (IEInf=0, Eps=   2.3741, EpsInf=   2.2383)
 G2PCM: DoFxE=T DoFxN=T DoGrad=T DoDP/DQ/DG/TGxP=FFFF NFrqRd=   0 IEInf=0 SqF1=F DoCFld=F IF1Alg=4.
 End of G2Drv F.D. properties file   721 does not exist.
 End of G2Drv F.D. properties file   722 does not exist.
 End of G2Drv F.D. properties file   788 does not exist.
          IDoAtm=11111111111111111111111111111111
 NEqPCM:  Using equilibrium solvation (IEInf=0, Eps=   2.3741, EpsInf=   2.2383)
          Differentiating once with respect to nuclear coordinates.
          There are    99 degrees of freedom in the 1st order CPHF.  IDoFFX=6 NUNeed=     0.
     93 vectors produced by pass  0 Test12= 3.66D-14 1.01D-09 XBig12= 1.04D-01 5.69D-02.
 AX will form    93 AO Fock derivatives at one time.
     93 vectors produced by pass  1 Test12= 3.66D-14 1.01D-09 XBig12= 1.14D-02 1.85D-02.
     93 vectors produced by pass  2 Test12= 3.66D-14 1.01D-09 XBig12= 3.53D-04 2.74D-03.
     93 vectors produced by pass  3 Test12= 3.66D-14 1.01D-09 XBig12= 5.57D-06 2.38D-04.
     93 vectors produced by pass  4 Test12= 3.66D-14 1.01D-09 XBig12= 5.75D-08 2.33D-05.
     93 vectors produced by pass  5 Test12= 3.66D-14 1.01D-09 XBig12= 4.88D-10 2.04D-06.
     93 vectors produced by pass  6 Test12= 3.66D-14 1.01D-09 XBig12= 3.76D-12 1.55D-07.
     49 vectors produced by pass  7 Test12= 3.66D-14 1.01D-09 XBig12= 4.36D-14 1.52D-08.
     14 vectors produced by pass  8 Test12= 3.66D-14 1.01D-09 XBig12= 2.46D-15 7.08D-09.
      8 vectors produced by pass  9 Test12= 3.66D-14 1.01D-09 XBig12= 7.35D-16 1.85D-09.
      8 vectors produced by pass 10 Test12= 3.66D-14 1.01D-09 XBig12= 2.06D-15 3.43D-09.
      8 vectors produced by pass 11 Test12= 3.66D-14 1.01D-09 XBig12= 5.73D-15 5.68D-09.
      6 vectors produced by pass 12 Test12= 3.66D-14 1.01D-09 XBig12= 1.44D-15 2.31D-09.
      6 vectors produced by pass 13 Test12= 3.66D-14 1.01D-09 XBig12= 4.61D-15 4.95D-09.
      6 vectors produced by pass 14 Test12= 3.66D-14 1.01D-09 XBig12= 1.04D-14 7.46D-09.
      6 vectors produced by pass 15 Test12= 3.66D-14 1.01D-09 XBig12= 4.17D-15 4.11D-09.
      6 vectors produced by pass 16 Test12= 3.66D-14 1.01D-09 XBig12= 5.43D-15 4.75D-09.
      5 vectors produced by pass 17 Test12= 3.66D-14 1.01D-09 XBig12= 2.79D-15 3.03D-09.
      5 vectors produced by pass 18 Test12= 3.66D-14 1.01D-09 XBig12= 5.89D-15 4.93D-09.
      5 vectors produced by pass 19 Test12= 3.66D-14 1.01D-09 XBig12= 4.59D-15 4.95D-09.
      5 vectors produced by pass 20 Test12= 3.66D-14 1.01D-09 XBig12= 5.69D-15 5.03D-09.
      4 vectors produced by pass 21 Test12= 3.66D-14 1.01D-09 XBig12= 2.89D-15 3.47D-09.
      4 vectors produced by pass 22 Test12= 3.66D-14 1.01D-09 XBig12= 1.74D-15 2.23D-09.
      4 vectors produced by pass 23 Test12= 3.66D-14 1.01D-09 XBig12= 3.09D-15 3.37D-09.
      4 vectors produced by pass 24 Test12= 3.66D-14 1.01D-09 XBig12= 3.91D-15 3.68D-09.
      4 vectors produced by pass 25 Test12= 3.66D-14 1.01D-09 XBig12= 1.70D-15 2.00D-09.
      4 vectors produced by pass 26 Test12= 3.66D-14 1.01D-09 XBig12= 3.05D-15 3.07D-09.
      4 vectors produced by pass 27 Test12= 3.66D-14 1.01D-09 XBig12= 2.02D-15 2.12D-09.
      4 vectors produced by pass 28 Test12= 3.66D-14 1.01D-09 XBig12= 5.22D-15 3.95D-09.
      4 vectors produced by pass 29 Test12= 3.66D-14 1.01D-09 XBig12= 2.57D-15 3.63D-09.
      4 vectors produced by pass 30 Test12= 3.66D-14 1.01D-09 XBig12= 1.92D-15 2.57D-09.
      4 vectors produced by pass 31 Test12= 3.66D-14 1.01D-09 XBig12= 1.53D-15 2.37D-09.
      4 vectors produced by pass 32 Test12= 3.66D-14 1.01D-09 XBig12= 1.97D-15 2.44D-09.
      4 vectors produced by pass 33 Test12= 3.66D-14 1.01D-09 XBig12= 3.94D-15 3.50D-09.
      3 vectors produced by pass 34 Test12= 3.66D-14 1.01D-09 XBig12= 1.65D-15 2.16D-09.
      1 vectors produced by pass 35 Test12= 3.66D-14 1.01D-09 XBig12= 6.45D-16 1.33D-09.
 InvSVY:  IOpt=1 It=  1 EMax= 9.99D-16
 Solved reduced A of dimension   844 with    99 vectors.
 End of Minotr F.D. properties file   721 does not exist.
 End of Minotr F.D. properties file   722 does not exist.
 End of Minotr F.D. properties file   788 does not exist.

 **********************************************************************

            Population analysis using the SCF density.

 **********************************************************************

 Orbital symmetries:
       Occupied  (A) (A) (A) (A) (A) (A) (A) (A) (A) (A) (A) (A)
                 (A) (A) (A) (A) (A) (A) (A) (A) (A) (A) (A) (A)
                 (A) (A) (A) (A) (A) (A) (A) (A) (A) (A) (A) (A)
                 (A) (A) (A) (A) (A) (A) (A) (A) (A) (A) (A) (A)
                 (A) (A) (A) (A) (A) (A) (A) (A) (A) (A) (A) (A)
                 (A) (A) (A) (A) (A)
       Virtual   (A) (A) (A) (A) (A) (A) (A) (A) (A) (A) (A) (A)
                 (A) (A) (A) (A) (A) (A) (A) (A) (A) (A) (A) (A)
                 (A) (A) (A) (A) (A) (A) (A) (A) (A) (A) (A) (A)
                 (A) (A) (A) (A) (A) (A) (A) (A) (A) (A) (A) (A)
                 (A) (A) (A) (A) (A) (A) (A) (A) (A) (A) (A) (A)
                 (A) (A) (A) (A) (A) (A) (A) (A) (A) (A) (A) (A)
                 (A) (A) (A) (A) (A) (A) (A) (A) (A) (A) (A) (A)
                 (A) (A) (A) (A) (A) (A) (A) (A) (A) (A) (A) (A)
                 (A) (A) (A) (A) (A) (A) (A) (A) (A) (A) (A) (A)
                 (A) (A) (A) (A) (A) (A) (A) (A) (A) (A) (A) (A)
                 (A) (A) (A) (A) (A) (A) (A) (A) (A) (A) (A) (A)
                 (A) (A) (A) (A) (A) (A) (A) (A) (A) (A) (A) (A)
                 (A) (A) (A) (A) (A) (A) (A) (A) (A) (A) (A) (A)
                 (A) (A) (A) (A) (A) (A) (A) (A) (A) (A) (A) (A)
                 (A) (A) (A) (A) (A) (A) (A) (A) (A) (A) (A) (A)
                 (A) (A) (A) (A) (A) (A) (A) (A) (A) (A) (A) (A)
                 (A) (A) (A) (A) (A) (A) (A) (A) (A) (A) (A) (A)
                 (A) (A) (A) (A) (A) (A) (A) (A) (A) (A) (A) (A)
                 (A) (A) (A) (A) (A) (A) (A) (A) (A) (A) (A) (A)
                 (A) (A) (A) (A) (A) (A) (A) (A) (A) (A) (A) (A)
                 (A) (A) (A) (A) (A) (A) (A) (A) (A) (A) (A) (A)
                 (A) (A) (A) (A) (A) (A) (A) (A) (A) (A) (A) (A)
                 (A) (A) (A) (A) (A) (A) (A) (A) (A) (A) (A) (A)
                 (A) (A) (A) (A) (A) (A) (A) (A) (A) (A) (A) (A)
                 (A) (A) (A) (A) (A) (A) (A) (A) (A) (A) (A) (A)
                 (A) (A) (A) (A) (A) (A) (A) (A) (A) (A) (A) (A)
                 (A) (A) (A) (A) (A) (A) (A) (A) (A) (A) (A) (A)
                 (A) (A) (A) (A) (A) (A) (A) (A) (A) (A) (A) (A)
                 (A) (A) (A) (A) (A) (A) (A) (A) (A) (A) (A) (A)
                 (A) (A) (A) (A) (A) (A) (A) (A) (A) (A) (A) (A)
                 (A) (A) (A) (A) (A) (A) (A) (A) (A) (A) (A) (A)
                 (A) (A) (A) (A) (A) (A) (A) (A) (A) (A) (A) (A)
                 (A) (A) (A) (A) (A) (A) (A) (A) (A) (A) (A) (A)
                 (A) (A) (A) (A) (A) (A) (A) (A) (A) (A) (A) (A)
                 (A) (A) (A) (A) (A) (A) (A) (A) (A) (A) (A) (A)
                 (A) (A) (A) (A) (A) (A) (A) (A) (A) (A) (A) (A)
                 (A) (A) (A) (A) (A) (A) (A) (A) (A) (A) (A) (A)
                 (A) (A) (A) (A) (A) (A) (A) (A) (A) (A) (A) (A)
                 (A) (A) (A) (A) (A) (A) (A) (A) (A) (A) (A) (A)
                 (A) (A) (A) (A) (A) (A) (A) (A) (A) (A) (A) (A)
                 (A) (A) (A) (A) (A) (A) (A) (A) (A) (A) (A) (A)
                 (A) (A) (A) (A) (A) (A) (A) (A) (A) (A) (A) (A)
                 (A) (A) (A) (A) (A) (A) (A) (A) (A) (A) (A) (A)
                 (A) (A) (A) (A) (A) (A) (A) (A) (A) (A) (A) (A)
                 (A) (A) (A) (A) (A) (A) (A) (A) (A) (A) (A) (A)
                 (A) (A) (A) (A) (A) (A) (A) (A) (A) (A) (A) (A)
                 (A) (A) (A) (A) (A) (A)
 The electronic state is 1-A.
 Alpha  occ. eigenvalues -- -101.69547 -19.22361 -10.34693 -10.34156 -10.34105
 Alpha  occ. eigenvalues --  -10.31512 -10.31104 -10.29905 -10.29804 -10.29735
 Alpha  occ. eigenvalues --  -10.29269 -10.29119 -10.29024 -10.28931 -10.28077
 Alpha  occ. eigenvalues --  -10.27935 -10.27873  -9.58101  -7.32734  -7.31887
 Alpha  occ. eigenvalues --   -7.31864  -1.11508  -0.99395  -0.95223  -0.93125
 Alpha  occ. eigenvalues --   -0.90982  -0.85582  -0.85302  -0.84037  -0.79582
 Alpha  occ. eigenvalues --   -0.79099  -0.72402  -0.71849  -0.71381  -0.66474
 Alpha  occ. eigenvalues --   -0.62108  -0.60519  -0.60354  -0.58145  -0.56742
 Alpha  occ. eigenvalues --   -0.55278  -0.54402  -0.54126  -0.52084  -0.51185
 Alpha  occ. eigenvalues --   -0.51099  -0.49617  -0.49335  -0.48178  -0.47381
 Alpha  occ. eigenvalues --   -0.46612  -0.46431  -0.45780  -0.44721  -0.44102
 Alpha  occ. eigenvalues --   -0.43613  -0.43208  -0.42119  -0.39427  -0.38588
 Alpha  occ. eigenvalues --   -0.36445  -0.34450  -0.33599  -0.30883  -0.27027
 Alpha virt. eigenvalues --   -0.00323   0.02332   0.05142   0.09221   0.10670
 Alpha virt. eigenvalues --    0.11506   0.11744   0.13586   0.13688   0.14094
 Alpha virt. eigenvalues --    0.16047   0.16541   0.16870   0.17804   0.18284
 Alpha virt. eigenvalues --    0.18497   0.18992   0.20006   0.20888   0.21265
 Alpha virt. eigenvalues --    0.21883   0.22266   0.22696   0.23558   0.25152
 Alpha virt. eigenvalues --    0.25284   0.25759   0.26809   0.26848   0.27690
 Alpha virt. eigenvalues --    0.28089   0.28930   0.29544   0.29908   0.30317
 Alpha virt. eigenvalues --    0.30706   0.31446   0.31776   0.32694   0.32839
 Alpha virt. eigenvalues --    0.33660   0.34269   0.34712   0.35001   0.36004
 Alpha virt. eigenvalues --    0.37051   0.37467   0.37678   0.38663   0.39457
 Alpha virt. eigenvalues --    0.40139   0.40306   0.41322   0.41695   0.42004
 Alpha virt. eigenvalues --    0.42572   0.43305   0.43821   0.44218   0.44800
 Alpha virt. eigenvalues --    0.45083   0.45671   0.46129   0.46505   0.46975
 Alpha virt. eigenvalues --    0.47638   0.48102   0.48751   0.49233   0.49741
 Alpha virt. eigenvalues --    0.50025   0.50823   0.51290   0.51481   0.52440
 Alpha virt. eigenvalues --    0.52752   0.53019   0.53443   0.53993   0.54638
 Alpha virt. eigenvalues --    0.54759   0.55738   0.55856   0.56195   0.56568
 Alpha virt. eigenvalues --    0.56827   0.57967   0.58806   0.58998   0.60387
 Alpha virt. eigenvalues --    0.60618   0.61323   0.61940   0.62619   0.63269
 Alpha virt. eigenvalues --    0.63747   0.64471   0.66423   0.66834   0.67322
 Alpha virt. eigenvalues --    0.67668   0.68479   0.69504   0.70230   0.71454
 Alpha virt. eigenvalues --    0.72556   0.72941   0.73579   0.74123   0.74519
 Alpha virt. eigenvalues --    0.75775   0.77915   0.78164   0.78603   0.79400
 Alpha virt. eigenvalues --    0.79753   0.80442   0.81201   0.81718   0.83163
 Alpha virt. eigenvalues --    0.84294   0.84674   0.85484   0.86222   0.86530
 Alpha virt. eigenvalues --    0.87100   0.89335   0.89896   0.90910   0.91274
 Alpha virt. eigenvalues --    0.91933   0.92833   0.93699   0.95133   0.95781
 Alpha virt. eigenvalues --    0.96576   0.97542   0.98509   0.99120   0.99609
 Alpha virt. eigenvalues --    1.01029   1.02059   1.02854   1.03775   1.04765
 Alpha virt. eigenvalues --    1.05851   1.06771   1.08609   1.09399   1.09711
 Alpha virt. eigenvalues --    1.10189   1.11440   1.11611   1.13249   1.13947
 Alpha virt. eigenvalues --    1.15163   1.16310   1.16879   1.18800   1.19964
 Alpha virt. eigenvalues --    1.20481   1.21828   1.22464   1.24202   1.24409
 Alpha virt. eigenvalues --    1.25440   1.25727   1.27086   1.28798   1.29101
 Alpha virt. eigenvalues --    1.30002   1.30421   1.31579   1.32275   1.33041
 Alpha virt. eigenvalues --    1.35273   1.35607   1.35940   1.37415   1.37890
 Alpha virt. eigenvalues --    1.39529   1.39975   1.40840   1.41494   1.43688
 Alpha virt. eigenvalues --    1.44609   1.45035   1.46763   1.48449   1.49158
 Alpha virt. eigenvalues --    1.51444   1.51728   1.53295   1.53936   1.54546
 Alpha virt. eigenvalues --    1.55921   1.56236   1.57668   1.58349   1.60079
 Alpha virt. eigenvalues --    1.60291   1.61313   1.61473   1.62508   1.63669
 Alpha virt. eigenvalues --    1.64375   1.64723   1.66544   1.67071   1.68049
 Alpha virt. eigenvalues --    1.68941   1.69503   1.69984   1.71563   1.71871
 Alpha virt. eigenvalues --    1.72304   1.73529   1.74277   1.75216   1.75981
 Alpha virt. eigenvalues --    1.76852   1.77851   1.78006   1.79473   1.79958
 Alpha virt. eigenvalues --    1.81127   1.81320   1.82717   1.83338   1.84483
 Alpha virt. eigenvalues --    1.85388   1.88141   1.88969   1.89484   1.90480
 Alpha virt. eigenvalues --    1.92074   1.93071   1.93480   1.94672   1.95026
 Alpha virt. eigenvalues --    1.96906   1.98736   1.99741   2.00282   2.01191
 Alpha virt. eigenvalues --    2.01354   2.02573   2.04198   2.05196   2.06873
 Alpha virt. eigenvalues --    2.07341   2.09598   2.10219   2.10693   2.11064
 Alpha virt. eigenvalues --    2.12378   2.13042   2.13267   2.14455   2.16789
 Alpha virt. eigenvalues --    2.17307   2.17943   2.19478   2.20589   2.21854
 Alpha virt. eigenvalues --    2.23194   2.23713   2.24538   2.25168   2.26209
 Alpha virt. eigenvalues --    2.26633   2.27229   2.28384   2.28828   2.29842
 Alpha virt. eigenvalues --    2.30995   2.32245   2.32605   2.34147   2.34923
 Alpha virt. eigenvalues --    2.36496   2.38412   2.39061   2.39652   2.41999
 Alpha virt. eigenvalues --    2.42299   2.42864   2.43655   2.44041   2.44677
 Alpha virt. eigenvalues --    2.44889   2.46154   2.48105   2.49113   2.50444
 Alpha virt. eigenvalues --    2.51019   2.53772   2.54981   2.55855   2.57039
 Alpha virt. eigenvalues --    2.57692   2.58105   2.60468   2.61286   2.61746
 Alpha virt. eigenvalues --    2.62914   2.63872   2.64592   2.66410   2.67178
 Alpha virt. eigenvalues --    2.68046   2.68916   2.69097   2.69801   2.69899
 Alpha virt. eigenvalues --    2.70795   2.71547   2.72646   2.73273   2.74044
 Alpha virt. eigenvalues --    2.74902   2.76316   2.77876   2.80013   2.80397
 Alpha virt. eigenvalues --    2.81155   2.81702   2.82515   2.83583   2.84273
 Alpha virt. eigenvalues --    2.85166   2.86060   2.86815   2.88263   2.88474
 Alpha virt. eigenvalues --    2.89321   2.90394   2.90833   2.91934   2.92985
 Alpha virt. eigenvalues --    2.93357   2.94295   2.95444   2.95668   2.95985
 Alpha virt. eigenvalues --    2.97203   2.99365   2.99871   3.00245   3.01272
 Alpha virt. eigenvalues --    3.01938   3.02518   3.03821   3.04303   3.05876
 Alpha virt. eigenvalues --    3.06216   3.08153   3.08678   3.09890   3.10596
 Alpha virt. eigenvalues --    3.11008   3.13280   3.13954   3.14110   3.15992
 Alpha virt. eigenvalues --    3.16431   3.16726   3.18136   3.18557   3.19638
 Alpha virt. eigenvalues --    3.22559   3.22752   3.23463   3.24481   3.24603
 Alpha virt. eigenvalues --    3.25997   3.26764   3.27622   3.28947   3.29885
 Alpha virt. eigenvalues --    3.30393   3.31649   3.32129   3.32795   3.33661
 Alpha virt. eigenvalues --    3.34009   3.34712   3.35200   3.35343   3.37034
 Alpha virt. eigenvalues --    3.37065   3.38503   3.38760   3.40054   3.40378
 Alpha virt. eigenvalues --    3.41051   3.42182   3.42450   3.42946   3.44392
 Alpha virt. eigenvalues --    3.45626   3.46580   3.47020   3.47836   3.48826
 Alpha virt. eigenvalues --    3.49450   3.50190   3.50831   3.51548   3.52212
 Alpha virt. eigenvalues --    3.52675   3.55498   3.55637   3.56092   3.57547
 Alpha virt. eigenvalues --    3.57737   3.58860   3.59600   3.60975   3.61588
 Alpha virt. eigenvalues --    3.62393   3.63407   3.64055   3.65834   3.66778
 Alpha virt. eigenvalues --    3.67412   3.69577   3.70288   3.70496   3.71853
 Alpha virt. eigenvalues --    3.72839   3.73271   3.74602   3.75679   3.77359
 Alpha virt. eigenvalues --    3.78312   3.79781   3.81044   3.81596   3.82799
 Alpha virt. eigenvalues --    3.85096   3.87794   3.89670   3.91397   3.92683
 Alpha virt. eigenvalues --    3.93246   3.93985   3.96158   3.97023   3.98481
 Alpha virt. eigenvalues --    4.00296   4.01722   4.03294   4.04859   4.07921
 Alpha virt. eigenvalues --    4.08868   4.10203   4.11973   4.12724   4.14117
 Alpha virt. eigenvalues --    4.15276   4.16750   4.18768   4.19358   4.21102
 Alpha virt. eigenvalues --    4.23661   4.24153   4.26248   4.26651   4.27696
 Alpha virt. eigenvalues --    4.28844   4.30339   4.30767   4.32304   4.33589
 Alpha virt. eigenvalues --    4.34663   4.35234   4.36325   4.37902   4.39790
 Alpha virt. eigenvalues --    4.40482   4.41704   4.44138   4.45523   4.47104
 Alpha virt. eigenvalues --    4.47417   4.52485   4.53456   4.54597   4.55185
 Alpha virt. eigenvalues --    4.55363   4.60336   4.61933   4.65552   4.67017
 Alpha virt. eigenvalues --    4.73233   4.73426   4.76596   4.78454   4.80304
 Alpha virt. eigenvalues --    4.81878   4.83020   4.83763   4.86673   4.91509
 Alpha virt. eigenvalues --    4.95862   4.99198   4.99632   5.00828   5.03996
 Alpha virt. eigenvalues --    5.06090   5.07561   5.13153   5.18105   5.19711
 Alpha virt. eigenvalues --    5.24521   5.25794   5.28492   5.29516   5.32946
 Alpha virt. eigenvalues --    5.38555   5.40963   5.42242   5.46094   5.63531
 Alpha virt. eigenvalues --    5.67571   5.70384   5.74167   5.88900   5.93019
 Alpha virt. eigenvalues --    6.20779   6.47988   6.68141   6.73395   6.91651
 Alpha virt. eigenvalues --    7.09522   7.24142   7.27081  10.84512  10.95215
 Alpha virt. eigenvalues --   11.48045  22.22210  22.49400  22.55465  22.56728
 Alpha virt. eigenvalues --   22.66390  22.69285  22.75039  22.78417  22.85470
 Alpha virt. eigenvalues --   22.93565  22.99393  23.01682  23.08143  23.37201
 Alpha virt. eigenvalues --   23.76419  26.05402  44.29440
          Condensed to atoms (all electrons):
               1          2          3          4          5          6
     1  C    4.978781   0.409428   0.037740  -0.100042   0.062822   0.370823
     2  C    0.409428   5.279602   0.331679  -0.007321  -0.149374   0.057600
     3  C    0.037740   0.331679   5.451939   0.102122  -0.029236  -0.078566
     4  C   -0.100042  -0.007321   0.102122   6.252574   0.171776   0.006050
     5  C    0.062822  -0.149374  -0.029236   0.171776   5.383755   0.390024
     6  C    0.370823   0.057600  -0.078566   0.006050   0.390024   4.995418
     7  H    0.453411  -0.059790   0.013996  -0.003798   0.013577  -0.061296
     8  H   -0.040604   0.450743  -0.067171   0.017017  -0.004375   0.009584
     9  H    0.008768  -0.003078   0.007318  -0.069379   0.442931  -0.036933
    10  H   -0.060236   0.012791  -0.002950   0.013827  -0.063256   0.456741
    11  C   -0.012581   0.036399   0.093111  -0.174446  -0.110786   0.023170
    12  C    0.020899  -0.182170   0.190472   0.096033   0.024831  -0.010973
    13  C    0.002155  -0.015195  -0.150104   0.065253   0.034171  -0.002825
    14  H   -0.000003   0.000124  -0.005512   0.027643  -0.001610  -0.000009
    15  C   -0.001790   0.029615   0.134594  -0.185205  -0.008748   0.001471
    16  H   -0.000005  -0.000019   0.024404  -0.007599   0.000256   0.000003
    17  O    0.000048   0.000329   0.007091  -0.193695   0.044184   0.005467
    18  Cl  -0.001007   0.021149  -0.130419   0.013271  -0.001134   0.000660
    19  C   -0.000222   0.000305   0.005429  -0.030004  -0.009061   0.001446
    20  C    0.000027  -0.000100  -0.000585  -0.005557   0.001602  -0.000030
    21  H    0.000000   0.000001   0.000019  -0.000054  -0.000004   0.000001
    22  C    0.000001   0.000003  -0.000127   0.004497  -0.001839  -0.000128
    23  H    0.000000   0.000000  -0.000009   0.000295  -0.000025  -0.000002
    24  H    0.000006  -0.000002  -0.000062  -0.001845   0.000477   0.000037
    25  H    0.000000   0.000000   0.000004   0.000113   0.000002   0.000001
    26  C    0.000658  -0.000375   0.002733   0.009292   0.004935  -0.001224
    27  H    0.000277   0.000233   0.003261  -0.005820  -0.004758  -0.001196
    28  H   -0.000030   0.000001   0.000137  -0.001197   0.000548   0.000218
    29  H    0.000209  -0.000086  -0.000175   0.000885   0.000276  -0.000533
    30  C    0.000031  -0.000328  -0.008567   0.008117   0.004656  -0.000063
    31  H   -0.000001   0.000000   0.001073  -0.000702  -0.000048   0.000000
    32  H   -0.000164   0.000288   0.000669  -0.001330  -0.000751   0.000306
               7          8          9         10         11         12
     1  C    0.453411  -0.040604   0.008768  -0.060236  -0.012581   0.020899
     2  C   -0.059790   0.450743  -0.003078   0.012791   0.036399  -0.182170
     3  C    0.013996  -0.067171   0.007318  -0.002950   0.093111   0.190472
     4  C   -0.003798   0.017017  -0.069379   0.013827  -0.174446   0.096033
     5  C    0.013577  -0.004375   0.442931  -0.063256  -0.110786   0.024831
     6  C   -0.061296   0.009584  -0.036933   0.456741   0.023170  -0.010973
     7  H    0.516311  -0.006306  -0.000079  -0.006836  -0.000013  -0.000070
     8  H   -0.006306   0.504386   0.000023  -0.000093   0.001198  -0.025272
     9  H   -0.000079   0.000023   0.484909  -0.005850  -0.006757   0.000137
    10  H   -0.006836  -0.000093  -0.005850   0.516754  -0.000297   0.000084
    11  C   -0.000013   0.001198  -0.006757  -0.000297   5.209720  -0.193110
    12  C   -0.000070  -0.025272   0.000137   0.000084  -0.193110   5.362785
    13  C    0.000012  -0.000447   0.002114  -0.000008   0.343219   0.108872
    14  H    0.000000   0.000000  -0.000093   0.000000  -0.063399   0.015451
    15  C   -0.000009   0.001226  -0.000377   0.000005   0.128584   0.298448
    16  H    0.000000   0.000021   0.000004   0.000000   0.014218  -0.086121
    17  O   -0.000001   0.000005   0.020698  -0.000103   0.546880  -0.002032
    18  Cl  -0.000123   0.019554   0.000002   0.000001  -0.001696   0.319429
    19  C    0.000000  -0.000002  -0.001282   0.000006  -0.011703  -0.001060
    20  C    0.000000  -0.000001   0.000227  -0.000001  -0.038694   0.002616
    21  H    0.000000   0.000000   0.000001   0.000000  -0.001747   0.000000
    22  C    0.000000   0.000000  -0.000682   0.000001   0.000418   0.000009
    23  H    0.000000   0.000000  -0.000029   0.000000   0.000181   0.000007
    24  H    0.000000   0.000000   0.000948  -0.000004   0.001110  -0.000003
    25  H    0.000000   0.000000  -0.000002   0.000000  -0.000285   0.000001
    26  C    0.000003   0.000002   0.000598  -0.000018   0.003597  -0.001334
    27  H    0.000005  -0.000006  -0.001044   0.000008   0.008570  -0.001615
    28  H    0.000000   0.000000   0.000171   0.000000   0.000186   0.000013
    29  H    0.000001   0.000000  -0.000338  -0.000025  -0.002343   0.000058
    30  C    0.000000  -0.000002   0.000113  -0.000002  -0.000552   0.002517
    31  H    0.000000   0.000000   0.000001   0.000000  -0.000050  -0.002198
    32  H   -0.000001   0.000014  -0.000042   0.000002  -0.008378   0.004690
              13         14         15         16         17         18
     1  C    0.002155  -0.000003  -0.001790  -0.000005   0.000048  -0.001007
     2  C   -0.015195   0.000124   0.029615  -0.000019   0.000329   0.021149
     3  C   -0.150104  -0.005512   0.134594   0.024404   0.007091  -0.130419
     4  C    0.065253   0.027643  -0.185205  -0.007599  -0.193695   0.013271
     5  C    0.034171  -0.001610  -0.008748   0.000256   0.044184  -0.001134
     6  C   -0.002825  -0.000009   0.001471   0.000003   0.005467   0.000660
     7  H    0.000012   0.000000  -0.000009   0.000000  -0.000001  -0.000123
     8  H   -0.000447   0.000000   0.001226   0.000021   0.000005   0.019554
     9  H    0.002114  -0.000093  -0.000377   0.000004   0.020698   0.000002
    10  H   -0.000008   0.000000   0.000005   0.000000  -0.000103   0.000001
    11  C    0.343219  -0.063399   0.128584   0.014218   0.546880  -0.001696
    12  C    0.108872   0.015451   0.298448  -0.086121  -0.002032   0.319429
    13  C    5.238063   0.444732   0.206038  -0.056911  -0.078926   0.012224
    14  H    0.444732   0.517232  -0.063235  -0.007866   0.011590  -0.000245
    15  C    0.206038  -0.063235   5.258379   0.462603   0.007028  -0.038498
    16  H   -0.056911  -0.007866   0.462603   0.509318  -0.000221   0.001067
    17  O   -0.078926   0.011590   0.007028  -0.000221   8.108467   0.000006
    18  Cl   0.012224  -0.000245  -0.038498   0.001067   0.000006  16.894493
    19  C   -0.038707  -0.004493   0.004823   0.000002   0.049213  -0.000003
    20  C   -0.037574   0.000767  -0.005067  -0.000096  -0.000420   0.000013
    21  H   -0.002315   0.000272   0.000166   0.000011  -0.000615   0.000000
    22  C    0.001064   0.000508   0.000012  -0.000003  -0.007783   0.000000
    23  H   -0.000298   0.000180  -0.000026  -0.000001  -0.000792   0.000000
    24  H    0.000750  -0.000055  -0.000019   0.000000   0.000025   0.000000
    25  H   -0.000118   0.000011  -0.000001   0.000000   0.002411   0.000000
    26  C   -0.008430   0.000267   0.002270   0.000006  -0.019504   0.000003
    27  H   -0.004932  -0.000145   0.001742   0.000005  -0.006095   0.000004
    28  H   -0.000678  -0.000011   0.000028   0.000000   0.002823   0.000000
    29  H    0.001010   0.000035  -0.000117   0.000000  -0.002345   0.000000
    30  C    0.089828  -0.020121  -0.034099  -0.001170  -0.046619   0.000231
    31  H   -0.012684  -0.003418   0.003959   0.000892   0.000469  -0.000040
    32  H   -0.023172   0.001898  -0.003614  -0.000024   0.001887   0.000005
              19         20         21         22         23         24
     1  C   -0.000222   0.000027   0.000000   0.000001   0.000000   0.000006
     2  C    0.000305  -0.000100   0.000001   0.000003   0.000000  -0.000002
     3  C    0.005429  -0.000585   0.000019  -0.000127  -0.000009  -0.000062
     4  C   -0.030004  -0.005557  -0.000054   0.004497   0.000295  -0.001845
     5  C   -0.009061   0.001602  -0.000004  -0.001839  -0.000025   0.000477
     6  C    0.001446  -0.000030   0.000001  -0.000128  -0.000002   0.000037
     7  H    0.000000   0.000000   0.000000   0.000000   0.000000   0.000000
     8  H   -0.000002  -0.000001   0.000000   0.000000   0.000000   0.000000
     9  H   -0.001282   0.000227   0.000001  -0.000682  -0.000029   0.000948
    10  H    0.000006  -0.000001   0.000000   0.000001   0.000000  -0.000004
    11  C   -0.011703  -0.038694  -0.001747   0.000418   0.000181   0.001110
    12  C   -0.001060   0.002616   0.000000   0.000009   0.000007  -0.000003
    13  C   -0.038707  -0.037574  -0.002315   0.001064  -0.000298   0.000750
    14  H   -0.004493   0.000767   0.000272   0.000508   0.000180  -0.000055
    15  C    0.004823  -0.005067   0.000166   0.000012  -0.000026  -0.000019
    16  H    0.000002  -0.000096   0.000011  -0.000003  -0.000001   0.000000
    17  O    0.049213  -0.000420  -0.000615  -0.007783  -0.000792   0.000025
    18  Cl  -0.000003   0.000013   0.000000   0.000000   0.000000   0.000000
    19  C    5.073382   0.447399  -0.038003   0.274843  -0.046939  -0.045744
    20  C    0.447399   5.199926   0.419340  -0.058607  -0.002003   0.008369
    21  H   -0.038003   0.419340   0.522124  -0.007927   0.003471  -0.000028
    22  C    0.274843  -0.058607  -0.007927   4.964976   0.416105   0.425519
    23  H   -0.046939  -0.002003   0.003471   0.416105   0.529419  -0.018546
    24  H   -0.045744   0.008369  -0.000028   0.425519  -0.018546   0.514392
    25  H   -0.028465  -0.006272   0.000246   0.396750  -0.020151  -0.025757
    26  C    0.266348  -0.053061   0.004396  -0.042404   0.007534  -0.012940
    27  H   -0.027441  -0.027492  -0.000239   0.006528  -0.000193  -0.000051
    28  H   -0.031144  -0.000189  -0.000037  -0.004334  -0.000273   0.000355
    29  H   -0.054687   0.011935  -0.000077  -0.004052   0.000094   0.002879
    30  C   -0.029545   0.424878  -0.027398   0.007168   0.000730   0.000089
    31  H    0.006889  -0.032427  -0.004643  -0.000187  -0.000070  -0.000002
    32  H    0.002474  -0.034319   0.003049  -0.000383   0.000009  -0.000017
              25         26         27         28         29         30
     1  C    0.000000   0.000658   0.000277  -0.000030   0.000209   0.000031
     2  C    0.000000  -0.000375   0.000233   0.000001  -0.000086  -0.000328
     3  C    0.000004   0.002733   0.003261   0.000137  -0.000175  -0.008567
     4  C    0.000113   0.009292  -0.005820  -0.001197   0.000885   0.008117
     5  C    0.000002   0.004935  -0.004758   0.000548   0.000276   0.004656
     6  C    0.000001  -0.001224  -0.001196   0.000218  -0.000533  -0.000063
     7  H    0.000000   0.000003   0.000005   0.000000   0.000001   0.000000
     8  H    0.000000   0.000002  -0.000006   0.000000   0.000000  -0.000002
     9  H   -0.000002   0.000598  -0.001044   0.000171  -0.000338   0.000113
    10  H    0.000000  -0.000018   0.000008   0.000000  -0.000025  -0.000002
    11  C   -0.000285   0.003597   0.008570   0.000186  -0.002343  -0.000552
    12  C    0.000001  -0.001334  -0.001615   0.000013   0.000058   0.002517
    13  C   -0.000118  -0.008430  -0.004932  -0.000678   0.001010   0.089828
    14  H    0.000011   0.000267  -0.000145  -0.000011   0.000035  -0.020121
    15  C   -0.000001   0.002270   0.001742   0.000028  -0.000117  -0.034099
    16  H    0.000000   0.000006   0.000005   0.000000   0.000000  -0.001170
    17  O    0.002411  -0.019504  -0.006095   0.002823  -0.002345  -0.046619
    18  Cl   0.000000   0.000003   0.000004   0.000000   0.000000   0.000231
    19  C   -0.028465   0.266348  -0.027441  -0.031144  -0.054687  -0.029545
    20  C   -0.006272  -0.053061  -0.027492  -0.000189   0.011935   0.424878
    21  H    0.000246   0.004396  -0.000239  -0.000037  -0.000077  -0.027398
    22  C    0.396750  -0.042404   0.006528  -0.004334  -0.004052   0.007168
    23  H   -0.020151   0.007534  -0.000193  -0.000273   0.000094   0.000730
    24  H   -0.025757  -0.012940  -0.000051   0.000355   0.002879   0.000089
    25  H    0.537919   0.003618  -0.000026   0.001677  -0.001058  -0.001134
    26  C    0.003618   4.993918   0.418449   0.396075   0.428207   0.003525
    27  H   -0.000026   0.418449   0.533674  -0.020529  -0.024193   0.014485
    28  H    0.001677   0.396075  -0.020529   0.523573  -0.021940  -0.001209
    29  H   -0.001058   0.428207  -0.024193  -0.021940   0.529381  -0.002218
    30  C   -0.001134   0.003525   0.014485  -0.001209  -0.002218   5.080088
    31  H    0.000028   0.000573   0.000298   0.000019  -0.000009   0.407759
    32  H    0.000026  -0.005787  -0.004442   0.000864   0.000337   0.420873
              31         32
     1  C   -0.000001  -0.000164
     2  C    0.000000   0.000288
     3  C    0.001073   0.000669
     4  C   -0.000702  -0.001330
     5  C   -0.000048  -0.000751
     6  C    0.000000   0.000306
     7  H    0.000000  -0.000001
     8  H    0.000000   0.000014
     9  H    0.000001  -0.000042
    10  H    0.000000   0.000002
    11  C   -0.000050  -0.008378
    12  C   -0.002198   0.004690
    13  C   -0.012684  -0.023172
    14  H   -0.003418   0.001898
    15  C    0.003959  -0.003614
    16  H    0.000892  -0.000024
    17  O    0.000469   0.001887
    18  Cl  -0.000040   0.000005
    19  C    0.006889   0.002474
    20  C   -0.032427  -0.034319
    21  H   -0.004643   0.003049
    22  C   -0.000187  -0.000383
    23  H   -0.000070   0.000009
    24  H   -0.000002  -0.000017
    25  H    0.000028   0.000026
    26  C    0.000573  -0.005787
    27  H    0.000298  -0.004442
    28  H    0.000019   0.000864
    29  H   -0.000009   0.000337
    30  C    0.407759   0.420873
    31  H    0.482507  -0.013907
    32  H   -0.013907   0.477437
 Mulliken charges:
               1
     1  C   -0.129399
     2  C   -0.212452
     3  C    0.065690
     4  C   -0.000770
     5  C   -0.195819
     6  C   -0.125238
     7  H    0.141007
     8  H    0.140505
     9  H    0.157003
    10  H    0.139460
    11  C    0.216278
    12  C    0.058607
    13  C   -0.116183
    14  H    0.149505
    15  C   -0.200188
    16  H    0.147225
    17  O   -0.449467
    18  Cl  -0.108945
    19  C    0.265945
    20  C   -0.214604
    21  H    0.129990
    22  C   -0.369944
    23  H    0.131331
    24  H    0.150119
    25  H    0.140463
    26  C   -0.401928
    27  H    0.142679
    28  H    0.154881
    29  H    0.138890
    30  C   -0.292062
    31  H    0.165920
    32  H    0.181503
 Sum of Mulliken charges =   0.00000
 Mulliken charges with hydrogens summed into heavy atoms:
               1
     1  C    0.011607
     2  C   -0.071948
     3  C    0.065690
     4  C   -0.000770
     5  C   -0.038816
     6  C    0.014222
    11  C    0.216278
    12  C    0.058607
    13  C    0.033322
    15  C   -0.052963
    17  O   -0.449467
    18  Cl  -0.108945
    19  C    0.265945
    20  C   -0.084614
    22  C    0.051969
    26  C    0.034521
    30  C    0.055361
 APT charges:
               1
     1  C   -0.648106
     2  C   -0.708533
     3  C   -0.210328
     4  C   -0.199071
     5  C   -0.573027
     6  C   -0.556717
     7  H    0.886187
     8  H    0.639845
     9  H    0.423515
    10  H    0.778888
    11  C   -0.120654
    12  C   -0.091136
    13  C   -0.457791
    14  H    0.575648
    15  C   -0.759831
    16  H    0.661240
    17  O   -0.202112
    18  Cl   0.304138
    19  C    0.267226
    20  C   -0.519419
    21  H    0.660313
    22  C   -1.508651
    23  H    0.488430
    24  H    0.261768
    25  H    0.736072
    26  C   -0.973140
    27  H   -0.052933
    28  H    0.657987
    29  H    0.363121
    30  C   -0.740051
    31  H    0.562541
    32  H    0.054580
 Sum of APT charges =   0.00000
 APT charges with hydrogens summed into heavy atoms:
               1
     1  C    0.238081
     2  C   -0.068688
     3  C   -0.210328
     4  C   -0.199071
     5  C   -0.149513
     6  C    0.222171
    11  C   -0.120654
    12  C   -0.091136
    13  C    0.117857
    15  C   -0.098590
    17  O   -0.202112
    18  Cl   0.304138
    19  C    0.267226
    20  C    0.140894
    22  C   -0.022381
    26  C   -0.004965
    30  C   -0.122929
 Electronic spatial extent (au):  <R**2>=           4412.0325
 Charge=              0.0000 electrons
 Dipole moment (field-independent basis, Debye):
    X=              2.6342    Y=             -0.0796    Z=              1.9100  Tot=              3.2548
 Quadrupole moment (field-independent basis, Debye-Ang):
   XX=           -103.7907   YY=            -95.3986   ZZ=           -112.2209
   XY=             -4.2630   XZ=              1.5336   YZ=              3.1035
 Traceless Quadrupole moment (field-independent basis, Debye-Ang):
   XX=              0.0127   YY=              8.4048   ZZ=             -8.4175
   XY=             -4.2630   XZ=              1.5336   YZ=              3.1035
 Octapole moment (field-independent basis, Debye-Ang**2):
  XXX=             38.5979  YYY=             -0.7039  ZZZ=              3.8662  XYY=              2.1875
  XXY=             18.2654  XXZ=             10.7389  XZZ=             -0.5276  YZZ=             -5.8774
  YYZ=             -3.9048  XYZ=              0.7396
 Hexadecapole moment (field-independent basis, Debye-Ang**3):
 XXXX=          -3592.3611 YYYY=          -1602.4202 ZZZZ=           -450.8608 XXXY=            -12.8621
 XXXZ=            -37.4546 YYYX=            -16.5699 YYYZ=             15.6954 ZZZX=             -5.2809
 ZZZY=              4.4851 XXYY=           -895.4490 XXZZ=           -718.9147 YYZZ=           -389.4364
 XXYZ=             37.3416 YYXZ=            -30.2363 ZZXY=             20.5458
 N-N= 1.298727043478D+03 E-N=-5.216337789008D+03  KE= 1.111762663586D+03
  Exact polarizability:   0.000   0.000   0.000   0.000   0.000   0.000
 Approx polarizability: 292.005   0.191 261.163  -8.334   0.320 175.185
   1 Symmetry operations used in ECPInt.
 ECPInt:  NShTT=   31125 NPrTT=   96136 LenC2=   28843 LenP2D=   65287.
 LDataN:  DoStor=T MaxTD1= 8 Len=  415
 D2PCM: PCM CHGder 2nd derivatives, FixD1E=F FixD2E=F DoIter=F DoCFld=F I1PDM=0
 Calling FoFJK, ICntrl=    100147 FMM=F ISym2X=0 I1Cent= 0 IOpClX= 0 NMat=1 NMatS=1 NMatT=0.
 ***** Axes restored to original set *****
 -------------------------------------------------------------------
 Center     Atomic                   Forces (Hartrees/Bohr)
 Number     Number              X              Y              Z
 -------------------------------------------------------------------
      1        6           0.000464707   -0.002378973   -0.000321024
      2        6           0.002205247    0.002029779   -0.000188208
      3        6           0.000282073    0.000867166   -0.000345965
      4        6          -0.000853059    0.001435981   -0.000645003
      5        6          -0.003261120    0.000779156    0.000739854
      6        6           0.000818685   -0.002693921   -0.000496915
      7        1           0.003875488   -0.003771721   -0.001709048
      8        1           0.005160095    0.002606707   -0.001625432
      9        1          -0.005833241   -0.000926048    0.002074403
     10        1          -0.001328470   -0.005417409    0.000039478
     11        6          -0.005025234   -0.004051804    0.002497948
     12        6           0.007749970   -0.001285046   -0.003143705
     13        6          -0.000129401    0.002153906   -0.003401099
     14        1          -0.004329414    0.003367469    0.002680903
     15        6          -0.004255493    0.003808553    0.001906003
     16        1           0.002402619    0.005328268   -0.000062307
     17        8          -0.003793645   -0.000971470   -0.003734567
     18       17           0.001218700   -0.000451148   -0.000150317
     19        6           0.001812148   -0.005214248    0.004341903
     20        6          -0.001809232    0.001477007   -0.000643166
     21        1          -0.003543353    0.004139156    0.002558070
     22        6           0.000687635    0.000483159   -0.000847355
     23        1          -0.001061067    0.004179123    0.002846046
     24        1           0.001687756   -0.004293255    0.002982192
     25        1          -0.003373775   -0.000771871   -0.003483601
     26        6          -0.000779070    0.001874555    0.001016102
     27        1           0.006303174    0.001366448   -0.000669782
     28        1          -0.002866083    0.000156303   -0.004062362
     29        1          -0.000472672   -0.004994646    0.002884136
     30        6           0.002275016    0.000094221    0.002096459
     31        1           0.001820857    0.006026384    0.000131938
     32        1           0.003950158   -0.004951782   -0.003265579
 -------------------------------------------------------------------
 Cartesian Forces:  Max     0.007749970 RMS     0.002942739
 FormGI is forming the generalized inverse of G from B-inverse, IUseBI=4.

 GradGradGradGradGradGradGradGradGradGradGradGradGradGradGradGradGradGrad
 Berny optimization.
 Internal  Forces:  Max     0.010746096 RMS     0.002664026
 Search for a saddle point.
 Step number   1 out of a maximum of  192
[...]
 Alpha virt. eigenvalues --    4.49238   4.53155   4.55551   4.56553   4.57638
 Alpha virt. eigenvalues --    4.57818   4.62108   4.64110   4.67661   4.69780
 Alpha virt. eigenvalues --    4.73881   4.74245   4.78172   4.80375   4.82634
 Alpha virt. eigenvalues --    4.83713   4.85182   4.85673   4.88413   4.92401
 Alpha virt. eigenvalues --    4.97053   4.99955   5.01249   5.03043   5.05641
 Alpha virt. eigenvalues --    5.06872   5.08715   5.16292   5.20581   5.21264
 Alpha virt. eigenvalues --    5.26200   5.27499   5.31517   5.33655   5.33857
 Alpha virt. eigenvalues --    5.40478   5.41688   5.43072   5.48738   5.64550
 Alpha virt. eigenvalues --    5.68468   5.71150   5.76076   5.91460   5.94563
 Alpha virt. eigenvalues --    6.20309   6.49416   6.65316   6.76547   6.90215
 Alpha virt. eigenvalues --    7.06108   7.23971   7.27247  10.84683  10.95515
 Alpha virt. eigenvalues --   11.48708  22.22246  22.53373  22.57592  22.60586
 Alpha virt. eigenvalues --   22.70125  22.73263  22.80006  22.83334  22.88753
 Alpha virt. eigenvalues --   22.97945  23.04595  23.06335  23.14082  23.41159
 Alpha virt. eigenvalues --   23.82110  26.07096  44.28258
          Condensed to atoms (all electrons):
               1          2          3          4          5          6
     1  C    4.986645   0.398098   0.045169  -0.107457   0.073512   0.358038
     2  C    0.398098   5.313491   0.316721  -0.002718  -0.165915   0.069740
     3  C    0.045169   0.316721   5.524051   0.033237  -0.027129  -0.086280
     4  C   -0.107457  -0.002718   0.033237   6.486578   0.139490   0.010711
     5  C    0.073512  -0.165915  -0.027129   0.139490   5.432275   0.370337
     6  C    0.358038   0.069740  -0.086280   0.010711   0.370337   5.011346
     7  H    0.457834  -0.062242   0.015106  -0.004273   0.014642  -0.063676
     8  H   -0.042591   0.456038  -0.069239   0.017979  -0.004978   0.010473
     9  H    0.009893  -0.003631   0.008246  -0.074766   0.448176  -0.038793
    10  H   -0.062722   0.013744  -0.003318   0.015026  -0.065680   0.461151
    11  C   -0.014881   0.043181   0.146537  -0.356024  -0.115554   0.030288
    12  C    0.023420  -0.196318   0.138799   0.150768   0.028175  -0.013224
    13  C    0.002798  -0.018351  -0.193581   0.129667   0.039719  -0.004080
    14  H    0.000001   0.000112  -0.007302   0.033798  -0.001729  -0.000027
    15  C   -0.002275   0.033479   0.179113  -0.239341  -0.011576   0.002219
    16  H   -0.000008   0.000027   0.026973  -0.009237   0.000290   0.000005
    17  O    0.000010   0.000540   0.008522  -0.214608   0.046476   0.006303
    18  Cl  -0.001202   0.022237  -0.134100   0.014312  -0.001231   0.000719
    19  C   -0.000278   0.000385   0.005567  -0.033199  -0.008872   0.001779
    20  C    0.000027  -0.000079   0.000076  -0.008024   0.001379  -0.000024
    21  H    0.000000   0.000001   0.000013  -0.000091   0.000011   0.000001
    22  C    0.000001   0.000002  -0.000152   0.004393  -0.001718  -0.000137
    23  H    0.000000   0.000000  -0.000011   0.000389  -0.000039  -0.000003
    24  H    0.000006  -0.000001  -0.000052  -0.001786   0.000403   0.000041
    25  H    0.000000   0.000000   0.000004   0.000092   0.000005   0.000001
    26  C    0.000799  -0.000513   0.002786   0.011786   0.005743  -0.001915
    27  H    0.000346   0.000144   0.002821  -0.003370  -0.003905  -0.001458
    28  H   -0.000035   0.000005   0.000144  -0.001327   0.000528   0.000243
    29  H    0.000229  -0.000103  -0.000059   0.001027   0.000394  -0.000726
    30  C    0.000063  -0.000422  -0.010607   0.012043   0.004778  -0.000152
    31  H   -0.000001  -0.000003   0.000916  -0.000523  -0.000045   0.000000
    32  H   -0.000151   0.000287   0.001036  -0.002154  -0.000655   0.000292
               7          8          9         10         11         12
     1  C    0.457834  -0.042591   0.009893  -0.062722  -0.014881   0.023420
     2  C   -0.062242   0.456038  -0.003631   0.013744   0.043181  -0.196318
     3  C    0.015106  -0.069239   0.008246  -0.003318   0.146537   0.138799
     4  C   -0.004273   0.017979  -0.074766   0.015026  -0.356024   0.150768
     5  C    0.014642  -0.004978   0.448176  -0.065680  -0.115554   0.028175
     6  C   -0.063676   0.010473  -0.038793   0.461151   0.030288  -0.013224
     7  H    0.518540  -0.006769  -0.000074  -0.007194  -0.000036  -0.000024
     8  H   -0.006769   0.507127   0.000023  -0.000092   0.001400  -0.027170
     9  H   -0.000074   0.000023   0.486686  -0.006357  -0.006186   0.000110
    10  H   -0.007194  -0.000092  -0.006357   0.519278  -0.000373   0.000095
    11  C   -0.000036   0.001400  -0.006186  -0.000373   5.373636  -0.243531
    12  C   -0.000024  -0.027170   0.000110   0.000095  -0.243531   5.445116
    13  C    0.000018  -0.000535   0.002152  -0.000008   0.273266   0.148522
    14  H    0.000000  -0.000001  -0.000106   0.000000  -0.074074   0.018242
    15  C   -0.000016   0.001322  -0.000404   0.000006   0.175909   0.241574
    16  H    0.000000   0.000023   0.000005   0.000000   0.017032  -0.093151
    17  O   -0.000001   0.000006   0.022006  -0.000123   0.567014  -0.003398
    18  Cl  -0.000135   0.020243   0.000002   0.000002  -0.002145   0.317092
    19  C   -0.000001  -0.000001  -0.001267   0.000006  -0.001936  -0.001506
    20  C    0.000000   0.000000   0.000197  -0.000001  -0.031076   0.001856
    21  H    0.000000   0.000000   0.000002   0.000000  -0.001930   0.000003
    22  C    0.000000   0.000000  -0.000632   0.000002  -0.000180   0.000023
    23  H    0.000000   0.000000  -0.000038   0.000000   0.000178   0.000008
    24  H    0.000000   0.000000   0.000915  -0.000004   0.001153  -0.000004
    25  H    0.000000   0.000000  -0.000002   0.000000  -0.000292   0.000001
    26  C    0.000004   0.000001   0.000914  -0.000029  -0.001956  -0.001135
    27  H    0.000005  -0.000006  -0.000848   0.000005   0.005928  -0.001438
    28  H    0.000000   0.000000   0.000132   0.000000   0.000473   0.000003
    29  H    0.000001   0.000000  -0.000144  -0.000029  -0.002363   0.000058
    30  C    0.000000  -0.000003   0.000145  -0.000003  -0.006378   0.003670
    31  H    0.000000   0.000000   0.000001   0.000000  -0.000176  -0.002069
    32  H   -0.000001   0.000014  -0.000032   0.000002  -0.006385   0.003498
              13         14         15         16         17         18
     1  C    0.002798   0.000001  -0.002275  -0.000008   0.000010  -0.001202
     2  C   -0.018351   0.000112   0.033479   0.000027   0.000540   0.022237
     3  C   -0.193581  -0.007302   0.179113   0.026973   0.008522  -0.134100
     4  C    0.129667   0.033798  -0.239341  -0.009237  -0.214608   0.014312
     5  C    0.039719  -0.001729  -0.011576   0.000290   0.046476  -0.001231
     6  C   -0.004080  -0.000027   0.002219   0.000005   0.006303   0.000719
     7  H    0.000018   0.000000  -0.000016   0.000000  -0.000001  -0.000135
     8  H   -0.000535  -0.000001   0.001322   0.000023   0.000006   0.020243
     9  H    0.002152  -0.000106  -0.000404   0.000005   0.022006   0.000002
    10  H   -0.000008   0.000000   0.000006   0.000000  -0.000123   0.000002
    11  C    0.273266  -0.074074   0.175909   0.017032   0.567014  -0.002145
    12  C    0.148522   0.018242   0.241574  -0.093151  -0.003398   0.317092
    13  C    5.297697   0.450372   0.167666  -0.061574  -0.086027   0.013348
    14  H    0.450372   0.518883  -0.068255  -0.008916   0.013096  -0.000259
    15  C    0.167666  -0.068255   5.298158   0.470731   0.008302  -0.037541
    16  H   -0.061574  -0.008916   0.470731   0.514274  -0.000238   0.001213
    17  O   -0.086027   0.013096   0.008302  -0.000238   8.108076   0.000006
    18  Cl   0.013348  -0.000259  -0.037541   0.001213   0.000006  16.900042
    19  C   -0.040588  -0.004485   0.005735   0.000011   0.056331  -0.000004
    20  C   -0.039387   0.000853  -0.002503   0.000007   0.004248   0.000011
    21  H   -0.001195   0.000206   0.000148   0.000010  -0.000711   0.000000
    22  C    0.001234   0.000429  -0.000046  -0.000002  -0.006258   0.000000
    23  H   -0.000216   0.000183  -0.000025  -0.000001  -0.000462   0.000000
    24  H    0.000607  -0.000051  -0.000017   0.000000   0.000084   0.000000
    25  H   -0.000114   0.000010  -0.000001   0.000000   0.002144   0.000000
    26  C   -0.007053   0.000349   0.001981   0.000005  -0.015741   0.000002
    27  H   -0.003505  -0.000122   0.001348   0.000003  -0.005456   0.000005
    28  H   -0.000736  -0.000014   0.000052   0.000000   0.002468   0.000000
    29  H    0.000908   0.000030  -0.000112   0.000000  -0.002276   0.000000
    30  C    0.108756  -0.015637  -0.036948  -0.001209  -0.047573   0.000234
    31  H   -0.010132  -0.003295   0.003881   0.000841   0.000470  -0.000040
    32  H   -0.019806   0.001572  -0.001753   0.000009   0.001927   0.000024
              19         20         21         22         23         24
     1  C   -0.000278   0.000027   0.000000   0.000001   0.000000   0.000006
     2  C    0.000385  -0.000079   0.000001   0.000002   0.000000  -0.000001
     3  C    0.005567   0.000076   0.000013  -0.000152  -0.000011  -0.000052
     4  C   -0.033199  -0.008024  -0.000091   0.004393   0.000389  -0.001786
     5  C   -0.008872   0.001379   0.000011  -0.001718  -0.000039   0.000403
     6  C    0.001779  -0.000024   0.000001  -0.000137  -0.000003   0.000041
     7  H   -0.000001   0.000000   0.000000   0.000000   0.000000   0.000000
     8  H   -0.000001   0.000000   0.000000   0.000000   0.000000   0.000000
     9  H   -0.001267   0.000197   0.000002  -0.000632  -0.000038   0.000915
    10  H    0.000006  -0.000001   0.000000   0.000002   0.000000  -0.000004
    11  C   -0.001936  -0.031076  -0.001930  -0.000180   0.000178   0.001153
    12  C   -0.001506   0.001856   0.000003   0.000023   0.000008  -0.000004
    13  C   -0.040588  -0.039387  -0.001195   0.001234  -0.000216   0.000607
    14  H   -0.004485   0.000853   0.000206   0.000429   0.000183  -0.000051
    15  C    0.005735  -0.002503   0.000148  -0.000046  -0.000025  -0.000017
    16  H    0.000011   0.000007   0.000010  -0.000002  -0.000001   0.000000
    17  O    0.056331   0.004248  -0.000711  -0.006258  -0.000462   0.000084
    18  Cl  -0.000004   0.000011   0.000000   0.000000   0.000000   0.000000
    19  C    5.069836   0.438529  -0.037077   0.277638  -0.047142  -0.046441
    20  C    0.438529   5.186972   0.419222  -0.056766  -0.002189   0.009139
    21  H   -0.037077   0.419222   0.517964  -0.007076   0.003280   0.000014
    22  C    0.277638  -0.056766  -0.007076   4.954307   0.417807   0.427123
    23  H   -0.047142  -0.002189   0.003280   0.417807   0.524572  -0.018107
    24  H   -0.046441   0.009139   0.000014   0.427123  -0.018107   0.511431
    25  H   -0.024798  -0.007350   0.000173   0.394796  -0.020204  -0.026024
    26  C    0.268081  -0.055034   0.004100  -0.043450   0.007540  -0.012545
    27  H   -0.028851  -0.027322  -0.000215   0.006641  -0.000174  -0.000022
    28  H   -0.028602   0.000244  -0.000079  -0.004084  -0.000303   0.000376
    29  H   -0.054238   0.012018  -0.000051  -0.004775   0.000105   0.002808
    30  C   -0.028904   0.416930  -0.026581   0.007471   0.000869   0.000148
    31  H    0.006919  -0.033259  -0.004785  -0.000175  -0.000070  -0.000003
    32  H    0.003417  -0.035713   0.002982  -0.000326   0.000002  -0.000008
              25         26         27         28         29         30
     1  C    0.000000   0.000799   0.000346  -0.000035   0.000229   0.000063
     2  C    0.000000  -0.000513   0.000144   0.000005  -0.000103  -0.000422
     3  C    0.000004   0.002786   0.002821   0.000144  -0.000059  -0.010607
     4  C    0.000092   0.011786  -0.003370  -0.001327   0.001027   0.012043
     5  C    0.000005   0.005743  -0.003905   0.000528   0.000394   0.004778
     6  C    0.000001  -0.001915  -0.001458   0.000243  -0.000726  -0.000152
     7  H    0.000000   0.000004   0.000005   0.000000   0.000001   0.000000
     8  H    0.000000   0.000001  -0.000006   0.000000   0.000000  -0.000003
     9  H   -0.000002   0.000914  -0.000848   0.000132  -0.000144   0.000145
    10  H    0.000000  -0.000029   0.000005   0.000000  -0.000029  -0.000003
    11  C   -0.000292  -0.001956   0.005928   0.000473  -0.002363  -0.006378
    12  C    0.000001  -0.001135  -0.001438   0.000003   0.000058   0.003670
    13  C   -0.000114  -0.007053  -0.003505  -0.000736   0.000908   0.108756
    14  H    0.000010   0.000349  -0.000122  -0.000014   0.000030  -0.015637
    15  C   -0.000001   0.001981   0.001348   0.000052  -0.000112  -0.036948
    16  H    0.000000   0.000005   0.000003   0.000000   0.000000  -0.001209
    17  O    0.002144  -0.015741  -0.005456   0.002468  -0.002276  -0.047573
    18  Cl   0.000000   0.000002   0.000005   0.000000   0.000000   0.000234
    19  C   -0.024798   0.268081  -0.028851  -0.028602  -0.054238  -0.028904
    20  C   -0.007350  -0.055034  -0.027322   0.000244   0.012018   0.416930
    21  H    0.000173   0.004100  -0.000215  -0.000079  -0.000051  -0.026581
    22  C    0.394796  -0.043450   0.006641  -0.004084  -0.004775   0.007471
    23  H   -0.020204   0.007540  -0.000174  -0.000303   0.000105   0.000869
    24  H   -0.026024  -0.012545  -0.000022   0.000376   0.002808   0.000148
    25  H    0.535481   0.002872  -0.000099   0.001800  -0.000849  -0.001252
    26  C    0.002872   4.981430   0.420295   0.394301   0.429973   0.003854
    27  H   -0.000099   0.420295   0.528797  -0.021028  -0.023255   0.014588
    28  H    0.001800   0.394301  -0.021028   0.520625  -0.022119  -0.001778
    29  H   -0.000849   0.429973  -0.023255  -0.022119   0.524358  -0.002114
    30  C   -0.001252   0.003854   0.014588  -0.001778  -0.002114   5.071823
    31  H    0.000032   0.000579   0.000285   0.000008  -0.000007   0.409135
    32  H    0.000023  -0.005341  -0.004139   0.000818   0.000331   0.418265
              31         32
     1  C   -0.000001  -0.000151
     2  C   -0.000003   0.000287
     3  C    0.000916   0.001036
     4  C   -0.000523  -0.002154
     5  C   -0.000045  -0.000655
     6  C    0.000000   0.000292
     7  H    0.000000  -0.000001
     8  H    0.000000   0.000014
     9  H    0.000001  -0.000032
    10  H    0.000000   0.000002
    11  C   -0.000176  -0.006385
    12  C   -0.002069   0.003498
    13  C   -0.010132  -0.019806
    14  H   -0.003295   0.001572
    15  C    0.003881  -0.001753
    16  H    0.000841   0.000009
    17  O    0.000470   0.001927
    18  Cl  -0.000040   0.000024
    19  C    0.006919   0.003417
    20  C   -0.033259  -0.035713
    21  H   -0.004785   0.002982
    22  C   -0.000175  -0.000326
    23  H   -0.000070   0.000002
    24  H   -0.000003  -0.000008
    25  H    0.000032   0.000023
    26  C    0.000579  -0.005341
    27  H    0.000285  -0.004139
    28  H    0.000008   0.000818
    29  H   -0.000007   0.000331
    30  C    0.409135   0.418265
    31  H    0.477789  -0.013521
    32  H   -0.013521   0.471652
 Mulliken charges:
               1
     1  C   -0.125286
     2  C   -0.217936
     3  C    0.075996
     4  C   -0.002397
     5  C   -0.197306
     6  C   -0.123191
     7  H    0.138292
     8  H    0.136737
     9  H    0.153676
    10  H    0.136617
    11  C    0.229481
    12  C    0.061936
    13  C   -0.149842
    14  H    0.146135
    15  C   -0.190814
    16  H    0.142877
    17  O   -0.465157
    18  Cl  -0.112836
    19  C    0.253958
    20  C   -0.192981
    21  H    0.131660
    22  C   -0.366089
    23  H    0.134051
    24  H    0.150817
    25  H    0.143549
    26  C   -0.392683
    27  H    0.144001
    28  H    0.157884
    29  H    0.140982
    30  C   -0.293210
    31  H    0.167249
    32  H    0.183832
 Sum of Mulliken charges =   0.00000
 Mulliken charges with hydrogens summed into heavy atoms:
               1
     1  C    0.013006
     2  C   -0.081199
     3  C    0.075996
     4  C   -0.002397
     5  C   -0.043630
     6  C    0.013425
    11  C    0.229481
    12  C    0.061936
    13  C   -0.003707
    15  C   -0.047937
    17  O   -0.465157
    18  Cl  -0.112836
    19  C    0.253958
    20  C   -0.061321
    22  C    0.062329
    26  C    0.050184
    30  C    0.057870
 Electronic spatial extent (au):  <R**2>=           4416.5147
 Charge=              0.0000 electrons
 Dipole moment (field-independent basis, Debye):
    X=              3.2078    Y=             -0.1572    Z=              2.3004  Tot=              3.9505
 Quadrupole moment (field-independent basis, Debye-Ang):
   XX=           -102.2535   YY=            -95.3734   ZZ=           -111.8994
   XY=             -4.4925   XZ=              2.5671   YZ=              3.0564
 Traceless Quadrupole moment (field-independent basis, Debye-Ang):
   XX=              0.9219   YY=              7.8021   ZZ=             -8.7240
   XY=             -4.4925   XZ=              2.5671   YZ=              3.0564
 Octapole moment (field-independent basis, Debye-Ang**2):
  XXX=             50.6263  YYY=             -1.6824  ZZZ=              5.8127  XYY=              4.1654
  XXY=             17.8998  XXZ=             12.5766  XZZ=             -0.0809  YZZ=             -6.0106
  YYZ=             -3.2692  XYZ=              0.3279
 Hexadecapole moment (field-independent basis, Debye-Ang**3):
 XXXX=          -3559.2114 YYYY=          -1594.1280 ZZZZ=           -466.7386 XXXY=            -14.2415
 XXXZ=            -32.7343 YYYX=            -16.5877 YYYZ=             15.4977 ZZZX=             -2.0678
 ZZZY=              4.1226 XXYY=           -892.0093 XXZZ=           -717.7048 YYZZ=           -387.9850
 XXYZ=             36.5425 YYXZ=            -28.8459 ZZXY=             19.1329
 N-N= 1.298106936419D+03 E-N=-5.215563882747D+03  KE= 1.112180171885D+03
 1\1\GINC-D11S10B3\FTS\RwB97XD\def2TZVP\C15H15Cl1O1\PMMASS\02-Feb-2022\
 0\\#n wB97XD/Def2TZVP scrf(smd,solvent=toluene) opt=(calcfc,ts,noeigen
 test)\\ts_claisen toluene - opt\\0,1\C,-2.2461973204,2.6913771883,0.33
 23957816\C,-2.5785892645,1.3607806031,0.3339973951\C,-1.6545375086,0.3
 861185779,-0.0893000629\C,-0.3683641075,0.8028485651,-0.5010232937\C,-
 0.0632797844,2.1721231105,-0.5113727928\C,-0.9802138986,3.1053144828,-
 0.1004778344\H,-2.9723115886,3.4253616686,0.6590422459\H,-3.5639504736
 ,1.051930949,0.6548313331\H,0.9188027566,2.4676545055,-0.8560147909\H,
 -0.7304314494,4.158932165,-0.1130285718\C,0.63032819,-0.1674932682,-0.
 9540588861\C,-1.9601482833,-1.0164281369,-0.1428849164\C,0.2625965347,
 -1.5309397504,-0.9192248083\H,0.9087974676,-2.2425108548,-1.4118459626
 \C,-1.0574384847,-1.9264388462,-0.5719913608\H,-1.3283797203,-2.972771
 9044,-0.6295393916\O,1.8018903006,0.1934354286,-1.2657280956\Cl,-3.548
 2617149,-1.5645779061,0.3302972135\C,3.1048551603,-0.1430508146,0.4488
 569582\C,2.7261823323,-1.4778922407,0.5684818777\H,3.3289098786,-2.206
 9371802,0.0374683488\C,4.3819546906,0.1951816982,-0.2409791134\H,4.693
 5890554,-0.5882810912,-0.9297526205\H,4.2774817074,1.1304271336,-0.790
 5539349\H,5.171413878,0.3390600365,0.5046720278\C,2.5424698465,0.92822
 70249,1.3230185133\H,1.4942766404,0.7779301906,1.5714373564\H,3.106672
 5871,0.9397015541,2.2617424125\H,2.6535076522,1.9057567592,0.857409913
 \C,1.4977067604,-1.8784153433,1.026580907\H,1.2482710062,-2.9307801741
 ,1.0545710998\H,0.8631371541,-1.2359841307,1.6215430529\\Version=ES64L
 -G09RevD.01\State=1-A\HF=-1116.0341082\RMSD=7.818e-09\RMSF=4.989e-06\D
 ipole=1.2622293,-0.0560114,0.9051697\Quadrupole=0.6854473,5.8309542,-6
 .5164015,-3.3263185,1.9294189,2.1912357\PG=C01 [X(C15H15Cl1O1)]\\@


 THEORY:  SUPPOSITION WHICH HAS SCIENTIFIC BASIS,
          BUT NOT EXPERIMENTALLY PROVEN.
 FACT:    A THEORY WHICH HAS BEEN PROVEN BY ENOUGH 
          MONEY TO PAY FOR THE EXPERIMENTS.

                          --  THE WIZARD OF ID
 Job cpu time:       1 days 10 hours 50 minutes 17.6 seconds.
 File lengths (MBytes):  RWF=   1175 Int=      0 D2E=      0 Chk=     35 Scr=      1
 Normal termination of Gaussian 09 at Wed Feb  2 19:01:08 2022.
