 Entering Gaussian System, Link 0=g09
 Input=diene_water_ma.com
 Output=diene_water_ma.log
 Initial command:
 /apps/applications/gaussian/G09.D01/2/default/g09/l1.exe "/nobackup/pmmass/Temp/Gau-84514.inp" -scrdir="/nobackup/pmmass/Temp/"
 Entering Link 1 = /apps/applications/gaussian/G09.D01/2/default/g09/l1.exe PID=     84523.
  
 Copyright (c) 1988,1990,1992,1993,1995,1998,2003,2009,2013,
            Gaussian, Inc.  All Rights Reserved.
  
 This is part of the Gaussian(R) 09 program.  It is based on
 the Gaussian(R) 03 system (copyright 2003, Gaussian, Inc.),
 the Gaussian(R) 98 system (copyright 1998, Gaussian, Inc.),
 the Gaussian(R) 94 system (copyright 1995, Gaussian, Inc.),
 the Gaussian 92(TM) system (copyright 1992, Gaussian, Inc.),
 the Gaussian 90(TM) system (copyright 1990, Gaussian, Inc.),
 the Gaussian 88(TM) system (copyright 1988, Gaussian, Inc.),
 the Gaussian 86(TM) system (copyright 1986, Carnegie Mellon
 University), and the Gaussian 82(TM) system (copyright 1983,
 Carnegie Mellon University). Gaussian is a federally registered
 trademark of Gaussian, Inc.
  
 This software contains proprietary and confidential information,
 including trade secrets, belonging to Gaussian, Inc.
  
 This software is provided under written license and may be
 used, copied, transmitted, or stored only in accord with that
 written license.
  
 The following legend is applicable only to US Government
 contracts under FAR:
  
                    RESTRICTED RIGHTS LEGEND
  
 Use, reproduction and disclosure by the US Government is
 subject to restrictions as set forth in subparagraphs (a)
 and (c) of the Commercial Computer Software - Restricted
 Rights clause in FAR 52.227-19.
  
 Gaussian, Inc.
 340 Quinnipiac St., Bldg. 40, Wallingford CT 06492
  
  
 ---------------------------------------------------------------
 Warning -- This program may not be used in any manner that
 competes with the business of Gaussian, Inc. or will provide
 assistance to any competitor of Gaussian, Inc.  The licensee
 of this program is prohibited from giving any competitor of
 Gaussian, Inc. access to this program.  By using this program,
 the user acknowledges that Gaussian, Inc. is engaged in the
 business of creating and licensing software in the field of
 computational chemistry and represents and warrants to the
 licensee that it is not a competitor of Gaussian, Inc. and that
 it will not use this program in any manner prohibited above.
 ---------------------------------------------------------------
  

 Cite this work as:
 Gaussian 09, Revision D.01,
 M. J. Frisch, G. W. Trucks, H. B. Schlegel, G. E. Scuseria, 
 M. A. Robb, J. R. Cheeseman, G. Scalmani, V. Barone, B. Mennucci, 
 G. A. Petersson, H. Nakatsuji, M. Caricato, X. Li, H. P. Hratchian, 
 A. F. Izmaylov, J. Bloino, G. Zheng, J. L. Sonnenberg, M. Hada, 
 M. Ehara, K. Toyota, R. Fukuda, J. Hasegawa, M. Ishida, T. Nakajima, 
 Y. Honda, O. Kitao, H. Nakai, T. Vreven, J. A. Montgomery, Jr., 
 J. E. Peralta, F. Ogliaro, M. Bearpark, J. J. Heyd, E. Brothers, 
 K. N. Kudin, V. N. Staroverov, T. Keith, R. Kobayashi, J. Normand, 
 K. Raghavachari, A. Rendell, J. C. Burant, S. S. Iyengar, J. Tomasi, 
 M. Cossi, N. Rega, J. M. Millam, M. Klene, J. E. Knox, J. B. Cross, 
 V. Bakken, C. Adamo, J. Jaramillo, R. Gomperts, R. E. Stratmann, 
 O. Yazyev, A. J. Austin, R. Cammi, C. Pomelli, J. W. Ochterski, 
 R. L. Martin, K. Morokuma, V. G. Zakrzewski, G. A. Voth, 
 P. Salvador, J. J. Dannenberg, S. Dapprich, A. D. Daniels, 
 O. Farkas, J. B. Foresman, J. V. Ortiz, J. Cioslowski, 
 and D. J. Fox, Gaussian, Inc., Wallingford CT, 2013.
 
 ******************************************
 Gaussian 09:  ES64L-G09RevD.01 24-Apr-2013
                 9-Feb-2022 
 ******************************************
 %nprocshared=8
 Will use up to    8 processors via shared memory.
 %mem=4GB
 %NoSave
 %chk="diene_water_ma.chk"
 -------------------------------------------
 #n wB97XD/Gen scrf(smd,solvent=toluene) opt
 -------------------------------------------
 1/14=-1,18=20,19=15,26=3,38=1/1,3;
 2/9=110,12=2,17=6,18=5,40=1/2;
 3/5=7,11=2,16=1,25=1,30=1,70=32201,71=1,72=13,74=-58/1,2,3;
 4//1;
 5/5=2,38=5,53=13/2;
 6/7=2,8=2,9=2,10=2,28=1/1;
 7//1,2,3,16;
 1/14=-1,18=20,19=15,26=3/3(2);
 2/9=110/2;
 99//99;
 2/9=110/2;
 3/5=7,6=1,11=2,16=1,25=1,30=1,70=32205,71=1,72=13,74=-58,82=7/1,2,3;
 4/5=5,16=3,69=1/1;
 5/5=2,38=5,53=13/2;
 7//1,2,3,16;
 1/14=-1,18=20,19=15,26=3/3(-5);
 2/9=110/2;
 6/7=2,8=2,9=2,10=2,19=2,28=1/1;
 99/9=1/99;
 -------------------------------------
 diene diels-alder toluene 2 h2o - opt
 -------------------------------------
 Symbolic Z-matrix:
 Charge =  0 Multiplicity = 1
 C                    -3.29454   0.45188  -0.33756 
 H                    -3.55609   1.3501   -0.89744 
 C                    -1.86521   0.09473  -0.3235 
 H                    -1.15923   0.92342  -0.34082 
 C                    -4.25783  -0.21097   0.30222 
 H                    -3.98733  -1.0767    0.90794 
 C                    -5.71002   0.15379   0.27222 
 H                    -6.08666   0.34641   1.28308 
 H                    -5.8869    1.04389  -0.33782 
 H                    -6.30944  -0.66775  -0.13659 
 C                    -1.40389  -1.15422  -0.31213 
 H                    -2.09149  -1.99802  -0.34676 
 C                     0.03935  -1.54682  -0.26495 
 H                     0.29846  -2.15542  -1.1392 
 H                     0.2401   -2.13841   0.63581 
 C                     2.16251  -0.40087  -0.08648 
 C                     2.83311  -1.72615   0.12142 
 H                     2.56718  -2.42449  -0.67621 
 H                     3.91248  -1.58536   0.14408 
 H                     2.50411  -2.15986   1.07086 
 O                     0.84413  -0.35906  -0.25816 
 O                     2.75591   0.66277  -0.10099 
 O                     5.58317   0.36235   0.30911 
 H                     4.65793   0.60872   0.14212 
 H                     6.11235   1.06183  -0.08987 
 O                     0.73015   2.8516   -0.53019 
 H                     0.9009    3.53033   0.38966 
 H                     1.38876   2.15032  -0.39825 
 
 Add virtual bond connecting atoms H27        and O26        Dist= 2.18D+00.
 Add virtual bond connecting atoms H24        and O22        Dist= 3.62D+00.
 Add virtual bond connecting atoms H28        and O22        Dist= 3.86D+00.

 GradGradGradGradGradGradGradGradGradGradGradGradGradGradGradGradGradGrad
 Berny optimization.
 Initialization pass.
                           ----------------------------
                           !    Initial Parameters    !
                           ! (Angstroms and Degrees)  !
 --------------------------                            --------------------------
 ! Name  Definition              Value          Derivative Info.                !
 --------------------------------------------------------------------------------
 ! R1    R(1,2)                  1.0903         estimate D2E/DX2                !
 ! R2    R(1,3)                  1.4733         estimate D2E/DX2                !
 ! R3    R(1,5)                  1.3329         estimate D2E/DX2                !
 ! R4    R(3,4)                  1.0888         estimate D2E/DX2                !
 ! R5    R(3,11)                 1.3315         estimate D2E/DX2                !
 ! R6    R(5,6)                  1.0907         estimate D2E/DX2                !
 ! R7    R(5,7)                  1.4976         estimate D2E/DX2                !
 ! R8    R(7,8)                  1.0958         estimate D2E/DX2                !
 ! R9    R(7,9)                  1.0935         estimate D2E/DX2                !
 ! R10   R(7,10)                 1.0961         estimate D2E/DX2                !
 ! R11   R(11,12)                1.089          estimate D2E/DX2                !
 ! R12   R(11,13)                1.4964         estimate D2E/DX2                !
 ! R13   R(13,14)                1.0963         estimate D2E/DX2                !
 ! R14   R(13,15)                1.0962         estimate D2E/DX2                !
 ! R15   R(13,21)                1.4347         estimate D2E/DX2                !
 ! R16   R(16,17)                1.4998         estimate D2E/DX2                !
 ! R17   R(16,21)                1.3302         estimate D2E/DX2                !
 ! R18   R(16,22)                1.2181         estimate D2E/DX2                !
 ! R19   R(17,18)                1.093          estimate D2E/DX2                !
 ! R20   R(17,19)                1.0887         estimate D2E/DX2                !
 ! R21   R(17,20)                1.0944         estimate D2E/DX2                !
 ! R22   R(22,24)                1.9183         estimate D2E/DX2                !
 ! R23   R(22,28)                2.0421         estimate D2E/DX2                !
 ! R24   R(23,24)                0.9719         estimate D2E/DX2                !
 ! R25   R(23,25)                0.9636         estimate D2E/DX2                !
 ! R26   R(26,27)                1.1558         estimate D2E/DX2                !
 ! R27   R(26,28)                0.9711         estimate D2E/DX2                !
 ! A1    A(2,1,3)              115.9343         estimate D2E/DX2                !
 ! A2    A(2,1,5)              118.8697         estimate D2E/DX2                !
 ! A3    A(3,1,5)              125.1686         estimate D2E/DX2                !
 ! A4    A(1,3,4)              116.3845         estimate D2E/DX2                !
 ! A5    A(1,3,11)             124.3043         estimate D2E/DX2                !
 ! A6    A(4,3,11)             119.3027         estimate D2E/DX2                !
 ! A7    A(1,5,6)              118.8206         estimate D2E/DX2                !
 ! A8    A(1,5,7)              124.7538         estimate D2E/DX2                !
 ! A9    A(6,5,7)              116.4201         estimate D2E/DX2                !
 ! A10   A(5,7,8)              110.9542         estimate D2E/DX2                !
 ! A11   A(5,7,9)              111.4869         estimate D2E/DX2                !
 ! A12   A(5,7,10)             110.8065         estimate D2E/DX2                !
 ! A13   A(8,7,9)              108.4185         estimate D2E/DX2                !
 ! A14   A(8,7,10)             106.7292         estimate D2E/DX2                !
 ! A15   A(9,7,10)             108.2752         estimate D2E/DX2                !
 ! A16   A(3,11,12)            120.515          estimate D2E/DX2                !
 ! A17   A(3,11,13)            125.4874         estimate D2E/DX2                !
 ! A18   A(12,11,13)           113.9957         estimate D2E/DX2                !
 ! A19   A(11,13,14)           110.3929         estimate D2E/DX2                !
 ! A20   A(11,13,15)           110.128          estimate D2E/DX2                !
 ! A21   A(11,13,21)           108.9013         estimate D2E/DX2                !
 ! A22   A(14,13,15)           108.2042         estimate D2E/DX2                !
 ! A23   A(14,13,21)           109.3161         estimate D2E/DX2                !
 ! A24   A(15,13,21)           109.8866         estimate D2E/DX2                !
 ! A25   A(17,16,21)           119.2644         estimate D2E/DX2                !
 ! A26   A(17,16,22)           123.742          estimate D2E/DX2                !
 ! A27   A(21,16,22)           116.992          estimate D2E/DX2                !
 ! A28   A(16,17,18)           110.7715         estimate D2E/DX2                !
 ! A29   A(16,17,19)           109.3842         estimate D2E/DX2                !
 ! A30   A(16,17,20)           109.6349         estimate D2E/DX2                !
 ! A31   A(18,17,19)           109.8173         estimate D2E/DX2                !
 ! A32   A(18,17,20)           107.8635         estimate D2E/DX2                !
 ! A33   A(19,17,20)           109.3424         estimate D2E/DX2                !
 ! A34   A(13,21,16)           122.042          estimate D2E/DX2                !
 ! A35   A(16,22,24)           117.1893         estimate D2E/DX2                !
 ! A36   A(16,22,28)           108.1601         estimate D2E/DX2                !
 ! A37   A(24,22,28)           134.6506         estimate D2E/DX2                !
 ! A38   A(24,23,25)           105.5244         estimate D2E/DX2                !
 ! A39   A(27,26,28)           102.4596         estimate D2E/DX2                !
 ! A40   L(22,24,23,19,-1)     166.8003         estimate D2E/DX2                !
 ! A41   L(22,28,26,3,-1)      179.3632         estimate D2E/DX2                !
 ! A42   L(22,24,23,19,-2)     182.2883         estimate D2E/DX2                !
 ! A43   L(22,28,26,3,-2)      179.4589         estimate D2E/DX2                !
 ! D1    D(2,1,3,4)             33.212          estimate D2E/DX2                !
 ! D2    D(2,1,3,11)          -145.7185         estimate D2E/DX2                !
 ! D3    D(5,1,3,4)           -144.8528         estimate D2E/DX2                !
 ! D4    D(5,1,3,11)            36.2168         estimate D2E/DX2                !
 ! D5    D(2,1,5,6)           -176.5872         estimate D2E/DX2                !
 ! D6    D(2,1,5,7)              2.525          estimate D2E/DX2                !
 ! D7    D(3,1,5,6)              1.4254         estimate D2E/DX2                !
 ! D8    D(3,1,5,7)           -179.4624         estimate D2E/DX2                !
 ! D9    D(1,3,11,12)            2.0759         estimate D2E/DX2                !
 ! D10   D(1,3,11,13)         -178.458          estimate D2E/DX2                !
 ! D11   D(4,3,11,12)         -176.8253         estimate D2E/DX2                !
 ! D12   D(4,3,11,13)            2.6408         estimate D2E/DX2                !
 ! D13   D(1,5,7,8)           -121.4129         estimate D2E/DX2                !
 ! D14   D(1,5,7,9)             -0.4592         estimate D2E/DX2                !
 ! D15   D(1,5,7,10)           120.2111         estimate D2E/DX2                !
 ! D16   D(6,5,7,8)             57.7186         estimate D2E/DX2                !
 ! D17   D(6,5,7,9)            178.6723         estimate D2E/DX2                !
 ! D18   D(6,5,7,10)           -60.6574         estimate D2E/DX2                !
 ! D19   D(3,11,13,14)        -121.0394         estimate D2E/DX2                !
 ! D20   D(3,11,13,15)         119.5396         estimate D2E/DX2                !
 ! D21   D(3,11,13,21)          -1.0195         estimate D2E/DX2                !
 ! D22   D(12,11,13,14)         58.4571         estimate D2E/DX2                !
 ! D23   D(12,11,13,15)        -60.9638         estimate D2E/DX2                !
 ! D24   D(12,11,13,21)        178.4771         estimate D2E/DX2                !
 ! D25   D(11,13,21,16)        173.2304         estimate D2E/DX2                !
 ! D26   D(14,13,21,16)        -66.0856         estimate D2E/DX2                !
 ! D27   D(15,13,21,16)         52.5229         estimate D2E/DX2                !
 ! D28   D(21,16,17,18)         53.1987         estimate D2E/DX2                !
 ! D29   D(21,16,17,19)        174.3856         estimate D2E/DX2                !
 ! D30   D(21,16,17,20)        -65.7254         estimate D2E/DX2                !
 ! D31   D(22,16,17,18)       -127.2654         estimate D2E/DX2                !
 ! D32   D(22,16,17,19)         -6.0785         estimate D2E/DX2                !
 ! D33   D(22,16,17,20)        113.8105         estimate D2E/DX2                !
 ! D34   D(17,16,21,13)         -0.6598         estimate D2E/DX2                !
 ! D35   D(22,16,21,13)        179.7734         estimate D2E/DX2                !
 ! D36   D(17,16,22,24)          0.5885         estimate D2E/DX2                !
 ! D37   D(17,16,22,28)       -179.4515         estimate D2E/DX2                !
 ! D38   D(21,16,22,24)       -179.8659         estimate D2E/DX2                !
 ! D39   D(21,16,22,28)          0.0941         estimate D2E/DX2                !
 ! D40   D(16,22,23,25)        152.7721         estimate D2E/DX2                !
 ! D41   D(28,22,23,25)        -28.1111         estimate D2E/DX2                !
 ! D42   D(16,22,26,27)        123.2352         estimate D2E/DX2                !
 ! D43   D(24,22,26,27)        -56.5677         estimate D2E/DX2                !
 --------------------------------------------------------------------------------
 Trust Radius=3.00D-01 FncErr=1.00D-07 GrdErr=1.00D-06
 Number of steps in this run=    123 maximum allowed number of steps=    168.
 GradGradGradGradGradGradGradGradGradGradGradGradGradGradGradGradGradGrad

                          Input orientation:                          
 ---------------------------------------------------------------------
 Center     Atomic      Atomic             Coordinates (Angstroms)
 Number     Number       Type             X           Y           Z
 ---------------------------------------------------------------------
      1          6           0       -3.294540    0.451880   -0.337560
      2          1           0       -3.556090    1.350100   -0.897440
      3          6           0       -1.865210    0.094730   -0.323500
      4          1           0       -1.159230    0.923420   -0.340820
      5          6           0       -4.257830   -0.210970    0.302220
      6          1           0       -3.987330   -1.076700    0.907940
      7          6           0       -5.710020    0.153790    0.272220
      8          1           0       -6.086660    0.346410    1.283080
      9          1           0       -5.886900    1.043890   -0.337820
     10          1           0       -6.309440   -0.667750   -0.136590
     11          6           0       -1.403890   -1.154220   -0.312130
     12          1           0       -2.091490   -1.998020   -0.346760
     13          6           0        0.039350   -1.546820   -0.264950
     14          1           0        0.298460   -2.155420   -1.139200
     15          1           0        0.240100   -2.138410    0.635810
     16          6           0        2.162510   -0.400870   -0.086480
     17          6           0        2.833110   -1.726150    0.121420
     18          1           0        2.567180   -2.424490   -0.676210
     19          1           0        3.912480   -1.585360    0.144080
     20          1           0        2.504110   -2.159860    1.070860
     21          8           0        0.844130   -0.359060   -0.258160
     22          8           0        2.755910    0.662770   -0.100990
     23          8           0        5.583170    0.362350    0.309110
     24          1           0        4.657930    0.608720    0.142120
     25          1           0        6.112350    1.061830   -0.089870
     26          8           0        0.730150    2.851600   -0.530190
     27          1           0        0.900900    3.530330    0.389660
     28          1           0        1.388760    2.150320   -0.398250
 ---------------------------------------------------------------------
                    Distance matrix (angstroms):
                    1          2          3          4          5
     1  C    0.000000
     2  H    1.090263   0.000000
     3  C    1.473342   2.182759   0.000000
     4  H    2.186758   2.497363   1.088777   0.000000
     5  C    1.332898   2.090111   2.491909   3.361795   0.000000
     6  H    2.089925   3.055278   2.718839   3.682123   1.090667
     7  C    2.509030   2.727394   3.891135   4.655947   1.497600
     8  H    3.230098   3.487957   4.523835   5.220111   2.148809
     9  H    2.659099   2.416529   4.132203   4.729206   2.153647
    10  H    3.222357   3.497363   4.513036   5.394274   2.147162
    11  C    2.480879   3.353531   1.331473   2.092193   3.067918
    12  H    2.729363   3.695701   2.105076   3.066587   2.882317
    13  C    3.887788   4.660405   2.515047   2.746714   4.535629
    14  H    4.511129   5.215810   3.226455   3.498789   5.159298
    15  H    4.488957   5.378812   3.215512   3.505244   4.904863
    16  C    5.528980   6.035390   4.065012   3.585023   6.434898
    17  C    6.519400   7.164026   5.058435   4.813800   7.253267
    18  H    6.538192   7.196590   5.110475   5.020669   7.241392
    19  H    7.504896   8.092047   6.035150   5.679027   8.286611
    20  H    6.513768   7.274617   5.110614   4.991945   7.079040
    21  O    4.218118   4.763596   2.747857   2.380134   5.134779
    22  O    6.058745   6.399070   4.661216   3.931129   7.079446
    23  O    8.901681   9.271326   7.479985   6.796850   9.857689
    24  H    7.968467   8.312668   6.559904   5.845649   8.954792
    25  H    9.429898   9.706390   8.039361   7.277225  10.455352
    26  O    4.689765   4.556449   3.791958   2.706196   5.912037
    27  H    5.254276   5.125894   4.468032   3.402017   6.373183
    28  H    4.982136   5.033993   3.849592   2.828575   6.160384
                    6          7          8          9         10
     6  H    0.000000
     7  C    2.210409   0.000000
     8  H    2.563817   1.095809   0.000000
     9  H    3.107601   1.093487   1.775866   0.000000
    10  H    2.578852   1.096065   1.758867   1.774470   0.000000
    11  C    2.858101   4.538184   5.169615   4.992968   4.932736
    12  H    2.453021   4.255253   4.910612   4.863994   4.427741
    13  C    4.220289   6.019625   6.596114   6.468194   6.410645
    14  H    4.870566   6.589870   7.272988   7.009741   6.847097
    15  H    4.367201   6.386729   6.827970   6.972454   6.756916
    16  C    6.266271   7.900193   8.395411   8.181901   8.476301
    17  C    6.896289   8.748828   9.230778   9.160928   9.207225
    18  H    6.876603   8.721186   9.295464   9.144159   9.064861
    19  H    7.952938   9.779242  10.247529  10.157413  10.266861
    20  H    6.583204   8.571040   8.951411   9.091614   9.020144
    21  O    5.021733   6.595544   7.135051   6.876146   7.161259
    22  O    7.036688   8.489424   8.955824   8.654450   9.162539
    23  O    9.696594  11.295176  11.710414  11.508498  11.945456
    24  H    8.841247  10.378741  10.808183  10.564713  11.044920
    25  H   10.371715  11.862718  12.296856  12.001825  12.541710
    26  O    6.305107   7.028359   7.485508   6.862228   7.880138
    27  H    6.737071   7.424222   7.730559   7.265386   8.360013
    28  H    6.404852   7.404616   7.871650   7.359556   8.201967
                   11         12         13         14         15
    11  C    0.000000
    12  H    1.089032   0.000000
    13  C    1.496430   2.179622   0.000000
    14  H    2.141131   2.522815   1.096287   0.000000
    15  H    2.137738   2.534061   1.096197   1.776051   0.000000
    16  C    3.652077   4.551390   2.419269   2.767914   2.690057
    17  C    4.297353   4.954270   2.826046   2.863195   2.675492
    18  H    4.185157   4.689736   2.707280   2.331062   2.686734
    19  H    5.353298   6.038118   3.894859   3.877231   3.746203
    20  H    4.265728   4.812004   2.869712   3.122383   2.305530
    21  O    2.385118   3.363318   1.434744   2.073860   2.080894
    22  O    4.544224   5.535115   3.505548   3.880610   3.836507
    23  O    7.176694   8.056173   5.891385   6.030334   5.908378
    24  H    6.329294   7.251811   5.113056   5.318574   5.225675
    25  H    7.839269   8.759661   6.611886   6.727043   6.726921
    26  O    4.544037   5.613743   4.460230   5.062361   5.147806
    27  H    5.267787   6.329247   5.191169   5.918454   5.712430
    28  H    4.327389   5.415119   3.937959   4.503017   4.558717
                   16         17         18         19         20
    16  C    0.000000
    17  C    1.499765   0.000000
    18  H    2.146294   1.092983   0.000000
    19  H    2.125693   1.088749   1.785174   0.000000
    20  H    2.133113   1.094432   1.768123   1.781145   0.000000
    21  O    1.330168   2.443165   2.722071   3.328721   2.786523
    22  O    1.218058   2.400493   3.146056   2.540040   3.066574
    23  O    3.527026   3.458307   4.222976   2.571384   4.052458
    24  H    2.701602   2.963446   3.773760   2.317258   3.628572
    25  H    4.211976   4.309396   5.006641   3.449895   4.974533
    26  O    3.581493   5.079649   5.588661   5.501680   5.552029
    27  H    4.156044   5.606779   6.274747   5.941398   5.950847
    28  H    2.684113   4.169319   4.732317   4.540770   4.688277
                   21         22         23         24         25
    21  O    0.000000
    22  O    2.173417   0.000000
    23  O    4.827083   2.872600   0.000000
    24  H    3.954983   1.918255   0.971933   0.000000
    25  H    5.459065   3.380098   0.963581   1.540930   0.000000
    26  O    3.224179   3.013120   5.518387   4.572742   5.689045
    27  H    3.943380   3.450319   5.653869   4.765748   5.786420
    28  H    2.571621   2.042123   4.614138   3.654587   4.857181
                   26         27         28
    26  O    0.000000
    27  H    1.155835   0.000000
    28  H    0.971066   1.662299   0.000000
 Stoichiometry    C8H16O4
 Framework group  C1[X(C8H16O4)]
 Deg. of freedom    78
 Full point group                 C1      NOp   1
 Largest Abelian subgroup         C1      NOp   1
 Largest concise Abelian subgroup C1      NOp   1
                         Standard orientation:                         
 ---------------------------------------------------------------------
 Center     Atomic      Atomic             Coordinates (Angstroms)
 Number     Number       Type             X           Y           Z
 ---------------------------------------------------------------------
      1          6           0       -3.331893    0.497546   -0.218312
      2          1           0       -3.588610    1.431263   -0.719254
      3          6           0       -1.904656    0.131997   -0.228699
      4          1           0       -1.193877    0.956013   -0.193697
      5          6           0       -4.298567   -0.199343    0.378766
      6          1           0       -4.032678   -1.103623    0.927524
      7          6           0       -5.748630    0.174952    0.373758
      8          1           0       -6.123419    0.304623    1.395284
      9          1           0       -5.920762    1.103289   -0.177853
     10          1           0       -6.353115   -0.615259   -0.086158
     11          6           0       -1.450607   -1.117756   -0.297812
     12          1           0       -2.143131   -1.953631   -0.385645
     13          6           0       -0.009643   -1.520883   -0.277432
     14          1           0        0.245294   -2.073743   -1.189133
     15          1           0        0.188304   -2.170078    0.583387
     16          6           0        2.120279   -0.400966   -0.028271
     17          6           0        2.783302   -1.740681    0.093628
     18          1           0        2.512740   -2.384975   -0.746784
     19          1           0        3.863489   -1.607854    0.124083
     20          1           0        2.452462   -2.232386    1.013711
     21          8           0        0.802042   -0.340652   -0.195489
     22          8           0        2.719850    0.657983    0.024699
     23          8           0        5.545606    0.315633    0.411652
     24          1           0        4.621696    0.577517    0.261783
     25          1           0        6.078563    1.036161    0.057697
     26          8           0        0.706559    2.881440   -0.261288
     27          1           0        0.881915    3.498888    0.699941
     28          1           0        1.361170    2.169368   -0.175231
 ---------------------------------------------------------------------
 Rotational constants (GHZ):      1.6986004      0.2728364      0.2392278
 General basis read from cards:  (5D, 7F)
 There are   576 symmetry adapted cartesian basis functions of A   symmetry.
 There are   516 symmetry adapted basis functions of A   symmetry.
   516 basis functions,   788 primitive gaussians,   576 cartesian basis functions
    48 alpha electrons       48 beta electrons
       nuclear repulsion energy       684.6551102096 Hartrees.
 NAtoms=   28 NActive=   28 NUniq=   28 SFac= 1.00D+00 NAtFMM=   60 NAOKFM=F Big=F
 Integral buffers will be    131072 words long.
 Raffenetti 2 integral format.
 Two-electron integral symmetry is turned on.
 Nuclear repulsion after empirical dispersion term =      684.6409295737 Hartrees.
 ------------------------------------------------------------------------------
 Polarizable Continuum Model (PCM)
 =================================
 Model                : PCM (using non-symmetric T matrix).
 Atomic radii         : SMD-Coulomb.
 Polarization charges : Total charges.
 Charge compensation  : None.
 Solution method      : On-the-fly selection.
 Cavity type          : VdW (van der Waals Surface) (Alpha=1.000).
 Cavity algorithm     : GePol (No added spheres)
                        Default sphere list used, NSphG=   28.
                        Lebedev-Laikov grids with approx.  5.0 points / Ang**2.
                        Smoothing algorithm: Karplus/York (Gamma=1.0000).
                        Polarization charges: spherical gaussians, with
                                              point-specific exponents (IZeta= 3).
                        Self-potential: point-specific (ISelfS= 7).
                        Self-field    : sphere-specific E.n sum rule (ISelfD= 2).
 1st derivatives      : Analytical E(r).r(x)/FMM algorithm (CHGder, D1EAlg=3).
                        Cavity 1st derivative terms included.
 Solvent              : Toluene, Eps=   2.374100 Eps(inf)=   2.238315
 ------------------------------------------------------------------------------
 ------------------------------------------------------------------------------
 Atomic radii for non-electrostatic terms: SMD-CDS.
 ------------------------------------------------------------------------------
 Nuclear repulsion after PCM non-electrostatic terms =      684.6336026634 Hartrees.
 One-electron integrals computed using PRISM.
 NBasis=   516 RedAO= T EigKep=  1.75D-06  NBF=   516
 NBsUse=   516 1.00D-06 EigRej= -1.00D+00 NBFU=   516
 ExpMin= 3.17D-02 ExpMax= 2.70D+04 ExpMxC= 9.22D+02 IAcc=3 IRadAn=         5 AccDes= 0.00D+00
 Harris functional with IExCor= 4639 and IRadAn=       5 diagonalized for initial guess.
 HarFok:  IExCor= 4639 AccDes= 0.00D+00 IRadAn=         5 IDoV= 1 UseB2=F ITyADJ=14
 ICtDFT=  3500011 ScaDFX=  1.000000  1.000000  1.000000  1.000000
 FoFCou: FMM=F IPFlag=           0 FMFlag=      100000 FMFlg1=           0
         NFxFlg=           0 DoJE=T BraDBF=F KetDBF=T FulRan=T
         wScrn=  0.000000 ICntrl=     500 IOpCl=  0 I1Cent=   200000004 NGrid=           0
         NMat0=    1 NMatS0=      1 NMatT0=    0 NMatD0=    1 NMtDS0=    0 NMtDT0=    0
 Petite list used in FoFCou.
 Requested convergence on RMS density matrix=1.00D-08 within 128 cycles.
 Requested convergence on MAX density matrix=1.00D-06.
 Requested convergence on             energy=1.00D-06.
 No special actions if energy rises.
 Inv3:  Mode=1 IEnd=    16258752.
 Iteration    1 A*A^-1 deviation from unit magnitude is 5.55D-15 for    272.
 Iteration    1 A*A^-1 deviation from orthogonality  is 3.97D-15 for    719    445.
 Iteration    1 A^-1*A deviation from unit magnitude is 5.11D-15 for    270.
 Iteration    1 A^-1*A deviation from orthogonality  is 6.45D-15 for   1137    684.
 Error on total polarization charges =  0.02122
 SCF Done:  E(RwB97XD) =  -615.409550339     A.U. after   15 cycles
            NFock= 15  Conv=0.25D-08     -V/T= 2.0053
 SMD-CDS (non-electrostatic) energy       (kcal/mol) =      -4.60
 (included in total energy above)

 **********************************************************************

            Population analysis using the SCF density.

 **********************************************************************

 Orbital symmetries:
       Occupied  (A) (A) (A) (A) (A) (A) (A) (A) (A) (A) (A) (A)
                 (A) (A) (A) (A) (A) (A) (A) (A) (A) (A) (A) (A)
                 (A) (A) (A) (A) (A) (A) (A) (A) (A) (A) (A) (A)
                 (A) (A) (A) (A) (A) (A) (A) (A) (A) (A) (A) (A)
       Virtual   (A) (A) (A) (A) (A) (A) (A) (A) (A) (A) (A) (A)
                 (A) (A) (A) (A) (A) (A) (A) (A) (A) (A) (A) (A)
                 (A) (A) (A) (A) (A) (A) (A) (A) (A) (A) (A) (A)
                 (A) (A) (A) (A) (A) (A) (A) (A) (A) (A) (A) (A)
                 (A) (A) (A) (A) (A) (A) (A) (A) (A) (A) (A) (A)
                 (A) (A) (A) (A) (A) (A) (A) (A) (A) (A) (A) (A)
                 (A) (A) (A) (A) (A) (A) (A) (A) (A) (A) (A) (A)
                 (A) (A) (A) (A) (A) (A) (A) (A) (A) (A) (A) (A)
                 (A) (A) (A) (A) (A) (A) (A) (A) (A) (A) (A) (A)
                 (A) (A) (A) (A) (A) (A) (A) (A) (A) (A) (A) (A)
                 (A) (A) (A) (A) (A) (A) (A) (A) (A) (A) (A) (A)
                 (A) (A) (A) (A) (A) (A) (A) (A) (A) (A) (A) (A)
                 (A) (A) (A) (A) (A) (A) (A) (A) (A) (A) (A) (A)
                 (A) (A) (A) (A) (A) (A) (A) (A) (A) (A) (A) (A)
                 (A) (A) (A) (A) (A) (A) (A) (A) (A) (A) (A) (A)
                 (A) (A) (A) (A) (A) (A) (A) (A) (A) (A) (A) (A)
                 (A) (A) (A) (A) (A) (A) (A) (A) (A) (A) (A) (A)
                 (A) (A) (A) (A) (A) (A) (A) (A) (A) (A) (A) (A)
                 (A) (A) (A) (A) (A) (A) (A) (A) (A) (A) (A) (A)
                 (A) (A) (A) (A) (A) (A) (A) (A) (A) (A) (A) (A)
                 (A) (A) (A) (A) (A) (A) (A) (A) (A) (A) (A) (A)
                 (A) (A) (A) (A) (A) (A) (A) (A) (A) (A) (A) (A)
                 (A) (A) (A) (A) (A) (A) (A) (A) (A) (A) (A) (A)
                 (A) (A) (A) (A) (A) (A) (A) (A) (A) (A) (A) (A)
                 (A) (A) (A) (A) (A) (A) (A) (A) (A) (A) (A) (A)
                 (A) (A) (A) (A) (A) (A) (A) (A) (A) (A) (A) (A)
                 (A) (A) (A) (A) (A) (A) (A) (A) (A) (A) (A) (A)
                 (A) (A) (A) (A) (A) (A) (A) (A) (A) (A) (A) (A)
                 (A) (A) (A) (A) (A) (A) (A) (A) (A) (A) (A) (A)
                 (A) (A) (A) (A) (A) (A) (A) (A) (A) (A) (A) (A)
                 (A) (A) (A) (A) (A) (A) (A) (A) (A) (A) (A) (A)
                 (A) (A) (A) (A) (A) (A) (A) (A) (A) (A) (A) (A)
                 (A) (A) (A) (A) (A) (A) (A) (A) (A) (A) (A) (A)
                 (A) (A) (A) (A) (A) (A) (A) (A) (A) (A) (A) (A)
                 (A) (A) (A) (A) (A) (A) (A) (A) (A) (A) (A) (A)
                 (A) (A) (A) (A) (A) (A) (A) (A) (A) (A) (A) (A)
                 (A) (A) (A) (A) (A) (A) (A) (A) (A) (A) (A) (A)
                 (A) (A) (A) (A) (A) (A) (A) (A) (A) (A) (A) (A)
                 (A) (A) (A) (A) (A) (A) (A) (A) (A) (A) (A) (A)
 The electronic state is 1-A.
 Alpha  occ. eigenvalues --  -19.31241 -19.25496 -19.24138 -19.23157 -10.43957
 Alpha  occ. eigenvalues --  -10.36036 -10.30281 -10.29083 -10.28535 -10.28501
 Alpha  occ. eigenvalues --  -10.28021 -10.27479  -1.22964  -1.14054  -1.09131
 Alpha  occ. eigenvalues --   -1.05737  -0.92096  -0.88439  -0.86132  -0.82537
 Alpha  occ. eigenvalues --   -0.76109  -0.70477  -0.66728  -0.62048  -0.60927
 Alpha  occ. eigenvalues --   -0.60694  -0.60364  -0.58333  -0.55948  -0.55190
 Alpha  occ. eigenvalues --   -0.53414  -0.53031  -0.50325  -0.49716  -0.49296
 Alpha  occ. eigenvalues --   -0.48532  -0.47543  -0.46336  -0.45367  -0.44643
 Alpha  occ. eigenvalues --   -0.43494  -0.42341  -0.40697  -0.38720  -0.38489
 Alpha  occ. eigenvalues --   -0.37910  -0.37456  -0.30442
 Alpha virt. eigenvalues --    0.04288   0.04341   0.05063   0.05714   0.05943
 Alpha virt. eigenvalues --    0.06690   0.07115   0.07546   0.08321   0.08638
 Alpha virt. eigenvalues --    0.09136   0.09377   0.09912   0.10670   0.10781
 Alpha virt. eigenvalues --    0.11261   0.11624   0.12273   0.12839   0.13091
 Alpha virt. eigenvalues --    0.13407   0.14288   0.14547   0.15228   0.15334
 Alpha virt. eigenvalues --    0.16099   0.16252   0.16852   0.17127   0.17611
 Alpha virt. eigenvalues --    0.17891   0.18216   0.18660   0.18975   0.19374
 Alpha virt. eigenvalues --    0.19970   0.20124   0.21034   0.21386   0.21971
 Alpha virt. eigenvalues --    0.22494   0.22882   0.23127   0.23238   0.23684
 Alpha virt. eigenvalues --    0.24511   0.24611   0.25017   0.25212   0.25612
 Alpha virt. eigenvalues --    0.25985   0.26992   0.27418   0.27695   0.27886
 Alpha virt. eigenvalues --    0.28828   0.29057   0.29635   0.29737   0.30922
 Alpha virt. eigenvalues --    0.31860   0.32177   0.32792   0.33270   0.33619
 Alpha virt. eigenvalues --    0.34561   0.35858   0.37222   0.37960   0.38377
 Alpha virt. eigenvalues --    0.38630   0.39272   0.40134   0.40354   0.41098
 Alpha virt. eigenvalues --    0.41605   0.42163   0.42628   0.43631   0.43931
 Alpha virt. eigenvalues --    0.45197   0.45588   0.47080   0.47326   0.48294
 Alpha virt. eigenvalues --    0.49114   0.49766   0.50267   0.50904   0.51311
 Alpha virt. eigenvalues --    0.51832   0.53228   0.53795   0.55435   0.56219
 Alpha virt. eigenvalues --    0.56607   0.57730   0.58101   0.58520   0.58810
 Alpha virt. eigenvalues --    0.59531   0.60054   0.60491   0.60731   0.61310
 Alpha virt. eigenvalues --    0.61691   0.62442   0.63411   0.64589   0.64754
 Alpha virt. eigenvalues --    0.65006   0.66282   0.66795   0.67145   0.68634
 Alpha virt. eigenvalues --    0.69558   0.69987   0.70534   0.71502   0.71817
 Alpha virt. eigenvalues --    0.72956   0.73798   0.74594   0.75045   0.75983
 Alpha virt. eigenvalues --    0.77285   0.78497   0.78816   0.79219   0.79949
 Alpha virt. eigenvalues --    0.80905   0.82390   0.82538   0.83525   0.84504
 Alpha virt. eigenvalues --    0.85974   0.86012   0.88516   0.89704   0.90557
 Alpha virt. eigenvalues --    0.91456   0.92548   0.96635   0.97964   0.99030
 Alpha virt. eigenvalues --    1.00139   1.00955   1.02082   1.06965   1.08077
 Alpha virt. eigenvalues --    1.08928   1.10619   1.11739   1.12528   1.13596
 Alpha virt. eigenvalues --    1.14435   1.16194   1.17101   1.17757   1.20054
 Alpha virt. eigenvalues --    1.21195   1.23047   1.23526   1.25867   1.27011
 Alpha virt. eigenvalues --    1.27741   1.28560   1.29310   1.29792   1.30639
 Alpha virt. eigenvalues --    1.31409   1.33316   1.34423   1.35261   1.36995
 Alpha virt. eigenvalues --    1.37998   1.38460   1.40248   1.42655   1.45060
 Alpha virt. eigenvalues --    1.47327   1.48194   1.50351   1.51345   1.56204
 Alpha virt. eigenvalues --    1.57335   1.58960   1.60097   1.61670   1.62656
 Alpha virt. eigenvalues --    1.62853   1.63607   1.64057   1.64706   1.65096
 Alpha virt. eigenvalues --    1.66602   1.67217   1.67617   1.68663   1.69534
 Alpha virt. eigenvalues --    1.70501   1.71689   1.73541   1.74985   1.75528
 Alpha virt. eigenvalues --    1.76773   1.77873   1.79103   1.81207   1.82277
 Alpha virt. eigenvalues --    1.83809   1.84694   1.85315   1.85980   1.90429
 Alpha virt. eigenvalues --    1.90670   1.92118   1.94728   1.95126   1.96822
 Alpha virt. eigenvalues --    1.98172   1.98658   2.00051   2.00554   2.01953
 Alpha virt. eigenvalues --    2.04351   2.05196   2.06310   2.07102   2.08637
 Alpha virt. eigenvalues --    2.09728   2.11435   2.13955   2.16284   2.16951
 Alpha virt. eigenvalues --    2.19158   2.19564   2.21462   2.23650   2.24752
 Alpha virt. eigenvalues --    2.26248   2.28688   2.30588   2.30848   2.31931
 Alpha virt. eigenvalues --    2.34302   2.34743   2.36601   2.37047   2.39162
 Alpha virt. eigenvalues --    2.39547   2.39888   2.43019   2.43323   2.44269
 Alpha virt. eigenvalues --    2.44979   2.45211   2.45955   2.47586   2.47953
 Alpha virt. eigenvalues --    2.49442   2.50274   2.52685   2.53401   2.54250
 Alpha virt. eigenvalues --    2.56276   2.57264   2.58889   2.59389   2.62374
 Alpha virt. eigenvalues --    2.62733   2.63371   2.66096   2.66877   2.67495
 Alpha virt. eigenvalues --    2.70041   2.70469   2.71378   2.71409   2.73088
 Alpha virt. eigenvalues --    2.74029   2.76184   2.76914   2.78479   2.78988
 Alpha virt. eigenvalues --    2.80629   2.81958   2.82647   2.83589   2.83982
 Alpha virt. eigenvalues --    2.84788   2.87692   2.90061   2.90977   2.91767
 Alpha virt. eigenvalues --    2.92356   2.93606   2.94385   2.96572   2.99084
 Alpha virt. eigenvalues --    2.99507   3.00863   3.01868   3.02248   3.03740
 Alpha virt. eigenvalues --    3.04495   3.06556   3.08119   3.09624   3.12109
 Alpha virt. eigenvalues --    3.13826   3.14412   3.16343   3.17331   3.17926
 Alpha virt. eigenvalues --    3.19245   3.19740   3.20586   3.21330   3.21387
 Alpha virt. eigenvalues --    3.23195   3.23586   3.23877   3.25363   3.26995
 Alpha virt. eigenvalues --    3.28117   3.28944   3.29628   3.30135   3.31298
 Alpha virt. eigenvalues --    3.33344   3.33975   3.36029   3.36779   3.36801
 Alpha virt. eigenvalues --    3.38228   3.39588   3.41007   3.42695   3.43505
 Alpha virt. eigenvalues --    3.44874   3.47816   3.48707   3.51563   3.52405
 Alpha virt. eigenvalues --    3.54921   3.55476   3.56652   3.57404   3.62513
 Alpha virt. eigenvalues --    3.64275   3.65132   3.66416   3.67648   3.69406
 Alpha virt. eigenvalues --    3.70458   3.72139   3.74939   3.77518   3.78331
 Alpha virt. eigenvalues --    3.80233   3.82683   3.83608   3.86107   3.87709
 Alpha virt. eigenvalues --    3.88725   3.90794   3.94004   3.97063   3.97508
 Alpha virt. eigenvalues --    3.98473   3.99883   4.07422   4.07860   4.10095
 Alpha virt. eigenvalues --    4.10962   4.14596   4.15519   4.22408   4.26069
 Alpha virt. eigenvalues --    4.28132   4.33051   4.36536   4.43897   4.44848
 Alpha virt. eigenvalues --    4.46074   4.47348   4.48164   4.50010   4.52950
 Alpha virt. eigenvalues --    4.56541   4.58403   4.59879   4.65302   4.66587
 Alpha virt. eigenvalues --    4.72501   4.75433   4.77010   4.81712   4.82580
 Alpha virt. eigenvalues --    4.87943   4.92463   4.96451   5.07408   5.10696
 Alpha virt. eigenvalues --    5.19906   5.20616   5.22065   5.24159   5.25872
 Alpha virt. eigenvalues --    5.28759   5.29296   5.31004   5.32142   5.34829
 Alpha virt. eigenvalues --    5.37535   5.48062   5.48759   5.50334   5.51270
 Alpha virt. eigenvalues --    5.52603   5.53674   5.59420   5.68559   5.72888
 Alpha virt. eigenvalues --    5.91834   5.97714   5.98923   6.12278   6.15931
 Alpha virt. eigenvalues --    6.24996   6.29426   6.34580   6.36855   6.41266
 Alpha virt. eigenvalues --    6.42754   6.44254   6.48306   6.50065   6.52223
 Alpha virt. eigenvalues --    6.53666   6.54361   6.72317   6.72898   6.84486
 Alpha virt. eigenvalues --    6.90618   6.92145   6.96653   6.97158   7.05815
 Alpha virt. eigenvalues --    7.14814   7.17688   7.20162   7.23248   7.35430
 Alpha virt. eigenvalues --    7.57009  22.44949  22.48709  22.48929  22.52546
 Alpha virt. eigenvalues --   22.63946  22.93812  23.01844  23.48500  43.73521
 Alpha virt. eigenvalues --   43.75022  44.13135  44.44530
          Condensed to atoms (all electrons):
               1          2          3          4          5          6
     1  C    6.250772   0.425162  -1.133838   0.041072  -0.018283   0.013390
     2  H    0.425162   0.494477  -0.060828  -0.003409  -0.004076   0.003249
     3  C   -1.133838  -0.060828   8.319617   0.140438   0.344673  -0.046599
     4  H    0.041072  -0.003409   0.140438   0.517879  -0.006564   0.000100
     5  C   -0.018283  -0.004076   0.344673  -0.006564   5.753251   0.378316
     6  H    0.013390   0.003249  -0.046599   0.000100   0.378316   0.507253
     7  C    0.008671  -0.004898   0.003802   0.001343   0.042517  -0.017279
     8  H   -0.016996   0.000206  -0.001611   0.000002  -0.060513  -0.002268
     9  H    0.095594   0.002237  -0.017610  -0.000017  -0.140015   0.002873
    10  H   -0.066836  -0.000221   0.024119   0.000020   0.026250  -0.001636
    11  C    0.628635  -0.004864  -1.477531   0.141328  -0.185364   0.030753
    12  H    0.022240   0.000059  -0.057589   0.005891   0.003092  -0.000032
    13  C   -0.159567  -0.002519   0.423386  -0.023570   0.018328  -0.016328
    14  H    0.007367   0.000018  -0.021370   0.000738  -0.000137   0.000012
    15  H    0.003676  -0.000001   0.002146  -0.000137  -0.001688   0.000003
    16  C    0.023435  -0.000696  -0.138421   0.008800  -0.000745  -0.000176
    17  C   -0.014119  -0.000085   0.005092  -0.002965   0.005169  -0.000045
    18  H    0.001777   0.000000  -0.002662  -0.000012  -0.000415   0.000000
    19  H   -0.000354   0.000000  -0.000403   0.000000   0.000032   0.000000
    20  H   -0.000572   0.000000  -0.000363  -0.000012   0.000431   0.000000
    21  O   -0.000041  -0.000446  -0.096308  -0.003209   0.004985  -0.000345
    22  O   -0.005645  -0.000012   0.004343   0.001122   0.000868  -0.000003
    23  O    0.000022   0.000000  -0.000102   0.000010  -0.000002   0.000000
    24  H    0.000186   0.000000   0.000407  -0.000004   0.000001   0.000000
    25  H    0.000016   0.000000   0.000015   0.000000  -0.000001   0.000000
    26  O   -0.025334   0.000298   0.178159  -0.058264  -0.002123  -0.000023
    27  H    0.001138   0.000001  -0.001786  -0.000145   0.001014   0.000000
    28  H   -0.003544  -0.000010  -0.005547   0.002542   0.001912   0.000000
               7          8          9         10         11         12
     1  C    0.008671  -0.016996   0.095594  -0.066836   0.628635   0.022240
     2  H   -0.004898   0.000206   0.002237  -0.000221  -0.004864   0.000059
     3  C    0.003802  -0.001611  -0.017610   0.024119  -1.477531  -0.057589
     4  H    0.001343   0.000002  -0.000017   0.000020   0.141328   0.005891
     5  C    0.042517  -0.060513  -0.140015   0.026250  -0.185364   0.003092
     6  H   -0.017279  -0.002268   0.002873  -0.001636   0.030753  -0.000032
     7  C    5.027688   0.447576   0.437025   0.397095   0.034572  -0.002784
     8  H    0.447576   0.542636  -0.022250  -0.033957   0.006650   0.000032
     9  H    0.437025  -0.022250   0.526855  -0.021483  -0.000034   0.000002
    10  H    0.397095  -0.033957  -0.021483   0.542189  -0.007814  -0.000061
    11  C    0.034572   0.006650  -0.000034  -0.007814   6.995392   0.437655
    12  H   -0.002784   0.000032   0.000002  -0.000061   0.437655   0.487062
    13  C   -0.005747  -0.001743   0.000627   0.001381  -0.430234  -0.060633
    14  H   -0.000384   0.000000   0.000000   0.000000  -0.019964  -0.000983
    15  H    0.000626  -0.000001   0.000000   0.000001  -0.025554  -0.002598
    16  C   -0.001144  -0.000005  -0.000034   0.000011   0.076200  -0.000406
    17  C    0.000510   0.000008  -0.000007  -0.000003   0.019343  -0.001475
    18  H   -0.000030   0.000000   0.000000   0.000000  -0.010173  -0.000010
    19  H    0.000002   0.000000   0.000000   0.000000   0.003017   0.000000
    20  H    0.000010   0.000000   0.000000   0.000000   0.009738  -0.000013
    21  O    0.001204   0.000000  -0.000006   0.000003   0.006312   0.002583
    22  O    0.000150   0.000000   0.000000   0.000000  -0.002542  -0.000050
    23  O    0.000000   0.000000   0.000000   0.000000  -0.000732   0.000000
    24  H   -0.000001   0.000000   0.000000   0.000000   0.001000   0.000000
    25  H    0.000000   0.000000   0.000000   0.000000   0.000074   0.000000
    26  O   -0.000788  -0.000002  -0.000005   0.000000  -0.129357  -0.000540
    27  H   -0.000019   0.000000   0.000000   0.000000   0.000218   0.000001
    28  H    0.000062   0.000000   0.000000   0.000000   0.005657   0.000019
              13         14         15         16         17         18
     1  C   -0.159567   0.007367   0.003676   0.023435  -0.014119   0.001777
     2  H   -0.002519   0.000018  -0.000001  -0.000696  -0.000085   0.000000
     3  C    0.423386  -0.021370   0.002146  -0.138421   0.005092  -0.002662
     4  H   -0.023570   0.000738  -0.000137   0.008800  -0.002965  -0.000012
     5  C    0.018328  -0.000137  -0.001688  -0.000745   0.005169  -0.000415
     6  H   -0.016328   0.000012   0.000003  -0.000176  -0.000045   0.000000
     7  C   -0.005747  -0.000384   0.000626  -0.001144   0.000510  -0.000030
     8  H   -0.001743   0.000000  -0.000001  -0.000005   0.000008   0.000000
     9  H    0.000627   0.000000   0.000000  -0.000034  -0.000007   0.000000
    10  H    0.001381   0.000000   0.000001   0.000011  -0.000003   0.000000
    11  C   -0.430234  -0.019964  -0.025554   0.076200   0.019343  -0.010173
    12  H   -0.060633  -0.000983  -0.002598  -0.000406  -0.001475  -0.000010
    13  C    5.486220   0.448640   0.395810  -0.113894  -0.051377   0.013752
    14  H    0.448640   0.540522  -0.046324  -0.004329  -0.016328   0.001481
    15  H    0.395810  -0.046324   0.559040  -0.007023   0.014877  -0.004691
    16  C   -0.113894  -0.004329  -0.007023   5.331356  -0.154244  -0.051842
    17  C   -0.051377  -0.016328   0.014877  -0.154244   5.397746   0.421131
    18  H    0.013752   0.001481  -0.004691  -0.051842   0.421131   0.503213
    19  H    0.001667  -0.000017   0.000265  -0.042423   0.420064  -0.014766
    20  H   -0.035822   0.000022  -0.000549  -0.060743   0.459680  -0.030522
    21  O    0.157888  -0.049638  -0.041930   0.247999  -0.008441   0.002769
    22  O    0.036106  -0.000655   0.000367   0.277603   0.019482   0.000541
    23  O    0.002809  -0.000022  -0.000018  -0.016758   0.011356  -0.000086
    24  H   -0.001853   0.000006   0.000012   0.030651  -0.027001  -0.000305
    25  H   -0.000422   0.000000   0.000000   0.004910  -0.004619  -0.000001
    26  O    0.019203  -0.000401  -0.000147  -0.017502   0.007925   0.000058
    27  H    0.000184   0.000001  -0.000003   0.000807   0.000438   0.000000
    28  H   -0.003912  -0.000035  -0.000032  -0.007633   0.007545  -0.000007
              19         20         21         22         23         24
     1  C   -0.000354  -0.000572  -0.000041  -0.005645   0.000022   0.000186
     2  H    0.000000   0.000000  -0.000446  -0.000012   0.000000   0.000000
     3  C   -0.000403  -0.000363  -0.096308   0.004343  -0.000102   0.000407
     4  H    0.000000  -0.000012  -0.003209   0.001122   0.000010  -0.000004
     5  C    0.000032   0.000431   0.004985   0.000868  -0.000002   0.000001
     6  H    0.000000   0.000000  -0.000345  -0.000003   0.000000   0.000000
     7  C    0.000002   0.000010   0.001204   0.000150   0.000000  -0.000001
     8  H    0.000000   0.000000   0.000000   0.000000   0.000000   0.000000
     9  H    0.000000   0.000000  -0.000006   0.000000   0.000000   0.000000
    10  H    0.000000   0.000000   0.000003   0.000000   0.000000   0.000000
    11  C    0.003017   0.009738   0.006312  -0.002542  -0.000732   0.001000
    12  H    0.000000  -0.000013   0.002583  -0.000050   0.000000   0.000000
    13  C    0.001667  -0.035822   0.157888   0.036106   0.002809  -0.001853
    14  H   -0.000017   0.000022  -0.049638  -0.000655  -0.000022   0.000006
    15  H    0.000265  -0.000549  -0.041930   0.000367  -0.000018   0.000012
    16  C   -0.042423  -0.060743   0.247999   0.277603  -0.016758   0.030651
    17  C    0.420064   0.459680  -0.008441   0.019482   0.011356  -0.027001
    18  H   -0.014766  -0.030522   0.002769   0.000541  -0.000086  -0.000305
    19  H    0.451647  -0.006933   0.005400  -0.010883  -0.003565  -0.002479
    20  H   -0.006933   0.471704   0.005551  -0.000457   0.000139  -0.000205
    21  O    0.005400   0.005551   8.173215  -0.068057  -0.001012   0.005561
    22  O   -0.010883  -0.000457  -0.068057   8.310537  -0.016859  -0.005613
    23  O   -0.003565   0.000139  -0.001012  -0.016859   8.152421   0.290437
    24  H   -0.002479  -0.000205   0.005561  -0.005613   0.290437   0.380752
    25  H   -0.000306  -0.000011   0.000135  -0.000739   0.295582  -0.009736
    26  O   -0.000045   0.000063  -0.004437  -0.027766  -0.000253  -0.000275
    27  H    0.000001  -0.000001  -0.004231   0.003248   0.000036   0.000011
    28  H    0.000050   0.000000  -0.008518   0.018249  -0.000421   0.000017
              25         26         27         28
     1  C    0.000016  -0.025334   0.001138  -0.003544
     2  H    0.000000   0.000298   0.000001  -0.000010
     3  C    0.000015   0.178159  -0.001786  -0.005547
     4  H    0.000000  -0.058264  -0.000145   0.002542
     5  C   -0.000001  -0.002123   0.001014   0.001912
     6  H    0.000000  -0.000023   0.000000   0.000000
     7  C    0.000000  -0.000788  -0.000019   0.000062
     8  H    0.000000  -0.000002   0.000000   0.000000
     9  H    0.000000  -0.000005   0.000000   0.000000
    10  H    0.000000   0.000000   0.000000   0.000000
    11  C    0.000074  -0.129357   0.000218   0.005657
    12  H    0.000000  -0.000540   0.000001   0.000019
    13  C   -0.000422   0.019203   0.000184  -0.003912
    14  H    0.000000  -0.000401   0.000001  -0.000035
    15  H    0.000000  -0.000147  -0.000003  -0.000032
    16  C    0.004910  -0.017502   0.000807  -0.007633
    17  C   -0.004619   0.007925   0.000438   0.007545
    18  H   -0.000001   0.000058   0.000000  -0.000007
    19  H   -0.000306  -0.000045   0.000001   0.000050
    20  H   -0.000011   0.000063  -0.000001   0.000000
    21  O    0.000135  -0.004437  -0.004231  -0.008518
    22  O   -0.000739  -0.027766   0.003248   0.018249
    23  O    0.295582  -0.000253   0.000036  -0.000421
    24  H   -0.009736  -0.000275   0.000011   0.000017
    25  H    0.371599  -0.000004   0.000000  -0.000039
    26  O   -0.000004   8.238213   0.263811   0.284592
    27  H    0.000000   0.263811   0.397569  -0.013133
    28  H   -0.000039   0.284592  -0.013133   0.375593
 Mulliken charges:
               1
     1  C   -0.078023
     2  H    0.156357
     3  C   -0.383629
     4  H    0.237025
     5  C   -0.160914
     6  H    0.148786
     7  C   -0.369779
     8  H    0.142236
     9  H    0.136245
    10  H    0.140944
    11  C   -0.102381
    12  H    0.168536
    13  C   -0.098384
    14  H    0.161778
    15  H    0.153873
    16  C    0.616248
    17  C   -0.509658
    18  H    0.170801
    19  H    0.200028
    20  H    0.188862
    21  O   -0.326986
    22  O   -0.533334
    23  O   -0.712983
    24  H    0.338430
    25  H    0.343548
    26  O   -0.725056
    27  H    0.350839
    28  H    0.346591
 Sum of Mulliken charges =   0.00000
 Mulliken charges with hydrogens summed into heavy atoms:
               1
     1  C    0.078334
     3  C   -0.146604
     5  C   -0.012128
     7  C    0.049647
    11  C    0.066155
    13  C    0.217267
    16  C    0.616248
    17  C    0.050033
    21  O   -0.326986
    22  O   -0.533334
    23  O   -0.031005
    26  O   -0.027626
 Electronic spatial extent (au):  <R**2>=           4492.6085
 Charge=              0.0000 electrons
 Dipole moment (field-independent basis, Debye):
    X=             -2.1075    Y=             -4.1410    Z=              0.7083  Tot=              4.7002
 Quadrupole moment (field-independent basis, Debye-Ang):
   XX=            -79.8300   YY=            -66.5885   ZZ=            -75.6510
   XY=              2.6238   XZ=             -5.3650   YZ=              5.2013
 Traceless Quadrupole moment (field-independent basis, Debye-Ang):
   XX=             -5.8068   YY=              7.4347   ZZ=             -1.6279
   XY=              2.6238   XZ=             -5.3650   YZ=              5.2013
 Octapole moment (field-independent basis, Debye-Ang**2):
  XXX=            -65.0261  YYY=             -1.5115  ZZZ=              1.6812  XYY=             30.2086
  XXY=             38.7450  XXZ=            -29.6454  XZZ=             12.4890  YZZ=              1.0184
  YYZ=             20.8226  XYZ=              7.0240
 Hexadecapole moment (field-independent basis, Debye-Ang**3):
 XXXX=          -4946.7497 YYYY=           -750.6638 ZZZZ=           -136.8325 XXXY=            306.3946
 XXXZ=           -233.0065 YYYX=             34.9787 YYYZ=             82.7811 ZZZX=             -9.2133
 ZZZY=              3.3547 XXYY=           -841.6539 XXZZ=           -884.7686 YYZZ=           -143.8934
 XXYZ=            -25.7763 YYXZ=             26.5782 ZZXY=             -0.4187
 N-N= 6.846336026634D+02 E-N=-2.809145857936D+03  KE= 6.121737720994D+02
 D1PCM: PCM CHGder 1st derivatives, ID1Alg=3 FixD1E=F DoIter=F DoCFld=F I1PDM=0.
 Calling FoFJK, ICntrl=      2127 FMM=F ISym2X=0 I1Cent= 0 IOpClX= 0 NMat=1 NMatS=1 NMatT=0.
 ***** Axes restored to original set *****
 -------------------------------------------------------------------
 Center     Atomic                   Forces (Hartrees/Bohr)
 Number     Number              X              Y              Z
 -------------------------------------------------------------------
      1        6           0.001876294   -0.001538658    0.000928927
      2        1           0.000849564   -0.001589140    0.001123398
      3        6          -0.002913488   -0.000534926   -0.000162223
      4        1          -0.001021249   -0.001525708   -0.000454861
      5        6          -0.000657432    0.001140963   -0.000658261
      6        1          -0.000677747    0.001692997   -0.000994539
      7        6           0.001657146   -0.000405413   -0.000111352
      8        1           0.000386305   -0.000248913   -0.001404874
      9        1           0.000171396   -0.001345812    0.001032823
     10        1           0.000778038    0.001103072    0.000525699
     11        6           0.001062509    0.000553028    0.000137311
     12        1           0.001321401    0.001578076   -0.000025928
     13        6          -0.000595723    0.004007744    0.000158180
     14        1          -0.000317200    0.000694010    0.001036628
     15        1          -0.000198767    0.000641766   -0.001309358
     16        6          -0.000586844    0.004960981   -0.000789025
     17        6          -0.000603323    0.001219683   -0.000195563
     18        1           0.000387601    0.000806987    0.001262387
     19        1          -0.001633421   -0.000370979    0.000116683
     20        1           0.000700223    0.000573345   -0.001427678
     21        8           0.003513993   -0.004939402    0.000939400
     22        8          -0.003294868   -0.006753035    0.000203960
     23        8           0.000247767    0.004764969   -0.002689351
     24        1           0.002347902   -0.000654815    0.000658399
     25        1          -0.002976567   -0.003897640    0.002062756
     26        8           0.014930649    0.062471509    0.083836358
     27        1          -0.014453794   -0.064405523   -0.085293341
     28        1          -0.000300364    0.002000836    0.001493445
 -------------------------------------------------------------------
 Cartesian Forces:  Max     0.085293341 RMS     0.016566227

 GradGradGradGradGradGradGradGradGradGradGradGradGradGradGradGradGradGrad
 Berny optimization.
 FormGI is forming the generalized inverse of G from B-inverse, IUseBI=4.
 GSVD:  received Info=                   1 from GESDD.
 Internal  Forces:  Max     0.107819888 RMS     0.010259257
 Search for a local minimum.
 Step number   1 out of a maximum of  123
 All quantities printed in internal units (Hartrees-Bohrs-Radians)
 Mixed Optimization -- RFO/linear search
 Second derivative matrix not updated -- first step.
 ITU=  0
     Eigenvalues ---    0.00230   0.00230   0.00769   0.00798   0.00813
     Eigenvalues ---    0.01119   0.01153   0.01232   0.01299   0.01400
     Eigenvalues ---    0.01411   0.01693   0.01748   0.01928   0.02074
     Eigenvalues ---    0.02083   0.02150   0.02616   0.02976   0.02995
     Eigenvalues ---    0.04020   0.04096   0.04946   0.06485   0.07155
     Eigenvalues ---    0.07319   0.07377   0.07442   0.07517   0.11354
     Eigenvalues ---    0.13881   0.15996   0.15999   0.15999   0.15999
     Eigenvalues ---    0.16000   0.16000   0.16000   0.16000   0.16000
     Eigenvalues ---    0.16000   0.16000   0.16000   0.16000   0.16000
     Eigenvalues ---    0.22000   0.22000   0.22000   0.22001   0.22045
     Eigenvalues ---    0.25000   0.25000   0.25000   0.28192   0.32402
     Eigenvalues ---    0.32630   0.32755   0.34096   0.34106   0.34121
     Eigenvalues ---    0.34150   0.34305   0.34413   0.34470   0.34736
     Eigenvalues ---    0.34782   0.34925   0.34954   0.34958   0.35343
     Eigenvalues ---    0.40315   0.52983   0.53160   0.54710   0.58826
     Eigenvalues ---    0.59159   0.59466   0.96249
 RFO step:  Lambda=-3.70522521D-02 EMin= 2.30000000D-03
 Linear search not attempted -- first point.
 Maximum step size (   0.300) exceeded in Quadratic search.
    -- Step size scaled by   0.881
 Iteration  1 RMS(Cart)=  0.02105015 RMS(Int)=  0.00933370
 Iteration  2 RMS(Cart)=  0.00866551 RMS(Int)=  0.00001509
 Iteration  3 RMS(Cart)=  0.00002412 RMS(Int)=  0.00000078
 Iteration  4 RMS(Cart)=  0.00000000 RMS(Int)=  0.00000078
 Variable       Old X    -DE/DX   Delta X   Delta X   Delta X     New X
                                 (Linear)    (Quad)   (Total)
    R1        2.06030  -0.00209   0.00000  -0.00479  -0.00479   2.05551
    R2        2.78421  -0.00455   0.00000  -0.01027  -0.01027   2.77394
    R3        2.51881  -0.00291   0.00000  -0.00409  -0.00409   2.51472
    R4        2.05749  -0.00182   0.00000  -0.00414  -0.00414   2.05335
    R5        2.51612  -0.00324   0.00000  -0.00454  -0.00454   2.51158
    R6        2.06106  -0.00206   0.00000  -0.00472  -0.00472   2.05635
    R7        2.83005  -0.00313   0.00000  -0.00758  -0.00758   2.82247
    R8        2.07078  -0.00147   0.00000  -0.00342  -0.00342   2.06736
    R9        2.06639  -0.00171   0.00000  -0.00394  -0.00394   2.06245
   R10        2.07126  -0.00144   0.00000  -0.00336  -0.00336   2.06790
   R11        2.05797  -0.00206   0.00000  -0.00469  -0.00469   2.05328
   R12        2.82784  -0.00303   0.00000  -0.00733  -0.00733   2.82051
   R13        2.07168  -0.00128   0.00000  -0.00298  -0.00298   2.06870
   R14        2.07151  -0.00147   0.00000  -0.00341  -0.00341   2.06810
   R15        2.71127  -0.00443   0.00000  -0.00887  -0.00887   2.70241
   R16        2.83414  -0.00253   0.00000  -0.00617  -0.00617   2.82798
   R17        2.51365  -0.00531   0.00000  -0.00741  -0.00741   2.50625
   R18        2.30180  -0.00735   0.00000  -0.00647  -0.00647   2.29532
   R19        2.06544  -0.00153   0.00000  -0.00352  -0.00352   2.06192
   R20        2.05744  -0.00166   0.00000  -0.00379  -0.00379   2.05365
   R21        2.06818  -0.00169   0.00000  -0.00391  -0.00391   2.06427
   R22        3.62498  -0.00038   0.00000  -0.00388  -0.00388   3.62110
   R23        3.85905  -0.00007   0.00000  -0.00081  -0.00081   3.85824
   R24        1.83669  -0.00293   0.00000  -0.00455  -0.00455   1.83214
   R25        1.82090  -0.00532   0.00000  -0.00801  -0.00801   1.81289
   R26        2.18421  -0.10782   0.00000  -0.29767  -0.29767   1.88654
   R27        1.83505  -0.00152   0.00000  -0.00236  -0.00236   1.83269
    A1        2.02343  -0.00098   0.00000  -0.00373  -0.00373   2.01971
    A2        2.07467  -0.00030   0.00000  -0.00066  -0.00066   2.07401
    A3        2.18460   0.00128   0.00000   0.00439   0.00439   2.18900
    A4        2.03129  -0.00028   0.00000  -0.00075  -0.00075   2.03054
    A5        2.16952   0.00097   0.00000   0.00333   0.00333   2.17285
    A6        2.08223  -0.00070   0.00000  -0.00265  -0.00265   2.07958
    A7        2.07381   0.00010   0.00000   0.00055   0.00055   2.07436
    A8        2.17736   0.00019   0.00000   0.00065   0.00065   2.17801
    A9        2.03191  -0.00029   0.00000  -0.00119  -0.00119   2.03073
   A10        1.93652   0.00014   0.00000   0.00061   0.00061   1.93713
   A11        1.94581   0.00014   0.00000   0.00067   0.00067   1.94648
   A12        1.93394  -0.00003   0.00000  -0.00016  -0.00016   1.93378
   A13        1.89226  -0.00014   0.00000  -0.00061  -0.00061   1.89165
   A14        1.86278  -0.00008   0.00000  -0.00039  -0.00039   1.86238
   A15        1.88976  -0.00005   0.00000  -0.00019  -0.00019   1.88957
   A16        2.10338  -0.00004   0.00000  -0.00012  -0.00012   2.10326
   A17        2.19017   0.00014   0.00000   0.00046   0.00046   2.19063
   A18        1.98960  -0.00009   0.00000  -0.00035  -0.00035   1.98925
   A19        1.92672  -0.00040   0.00000  -0.00175  -0.00175   1.92497
   A20        1.92210   0.00001   0.00000   0.00060   0.00060   1.92270
   A21        1.90069   0.00092   0.00000   0.00337   0.00337   1.90406
   A22        1.88852  -0.00003   0.00000  -0.00097  -0.00097   1.88755
   A23        1.90793  -0.00018   0.00000  -0.00046  -0.00046   1.90747
   A24        1.91788  -0.00033   0.00000  -0.00086  -0.00086   1.91702
   A25        2.08156  -0.00006   0.00000  -0.00019  -0.00019   2.08137
   A26        2.15971  -0.00010   0.00000  -0.00032  -0.00032   2.15939
   A27        2.04190   0.00016   0.00000   0.00050   0.00050   2.04240
   A28        1.93333   0.00022   0.00000   0.00113   0.00113   1.93446
   A29        1.90911   0.00016   0.00000   0.00072   0.00072   1.90984
   A30        1.91349   0.00016   0.00000   0.00060   0.00060   1.91409
   A31        1.91667  -0.00011   0.00000  -0.00025  -0.00025   1.91642
   A32        1.88257  -0.00019   0.00000  -0.00083  -0.00083   1.88174
   A33        1.90838  -0.00026   0.00000  -0.00144  -0.00144   1.90695
   A34        2.13003   0.00125   0.00000   0.00382   0.00382   2.13385
   A35        2.04534   0.00037   0.00000   0.00166   0.00166   2.04700
   A36        1.88775   0.00037   0.00000   0.00167   0.00167   1.88942
   A37        2.35010  -0.00075   0.00000  -0.00333  -0.00333   2.34676
   A38        1.84175  -0.00015   0.00000  -0.00065  -0.00065   1.84110
   A39        1.78826  -0.00416   0.00000  -0.01857  -0.01857   1.76968
   A40        2.91121   0.00038   0.00000   0.00659   0.00659   2.91780
   A41        3.13048   0.00037   0.00000   0.00637   0.00637   3.13685
   A42        3.18153  -0.00031   0.00000  -0.00555  -0.00555   3.17598
   A43        3.13215  -0.00045   0.00000  -0.00795  -0.00795   3.12420
    D1        0.57966  -0.00019   0.00000  -0.00306  -0.00306   0.57660
    D2       -2.54327   0.00009   0.00000   0.00116   0.00116  -2.54211
    D3       -2.52816  -0.00022   0.00000  -0.00347  -0.00347  -2.53163
    D4        0.63210   0.00006   0.00000   0.00075   0.00075   0.63285
    D5       -3.08203   0.00008   0.00000   0.00090   0.00090  -3.08113
    D6        0.04407   0.00013   0.00000   0.00172   0.00172   0.04579
    D7        0.02488   0.00010   0.00000   0.00127   0.00127   0.02615
    D8       -3.13221   0.00015   0.00000   0.00209   0.00209  -3.13012
    D9        0.03623   0.00003   0.00000   0.00029   0.00029   0.03652
   D10       -3.11468  -0.00013   0.00000  -0.00225  -0.00225  -3.11693
   D11       -3.08618   0.00031   0.00000   0.00460   0.00460  -3.08158
   D12        0.04609   0.00015   0.00000   0.00206   0.00206   0.04815
   D13       -2.11906  -0.00008   0.00000  -0.00130  -0.00130  -2.12036
   D14       -0.00801  -0.00007   0.00000  -0.00121  -0.00121  -0.00922
   D15        2.09808  -0.00005   0.00000  -0.00110  -0.00110   2.09698
   D16        1.00738  -0.00003   0.00000  -0.00049  -0.00049   1.00689
   D17        3.11842  -0.00002   0.00000  -0.00039  -0.00039   3.11803
   D18       -1.05867   0.00000   0.00000  -0.00029  -0.00029  -1.05896
   D19       -2.11254   0.00007   0.00000   0.00292   0.00292  -2.10962
   D20        2.08636   0.00035   0.00000   0.00484   0.00484   2.09120
   D21       -0.01779   0.00018   0.00000   0.00340   0.00340  -0.01439
   D22        1.02027  -0.00007   0.00000   0.00052   0.00052   1.02079
   D23       -1.06402   0.00021   0.00000   0.00244   0.00244  -1.06158
   D24        3.11501   0.00003   0.00000   0.00101   0.00101   3.11602
   D25        3.02344   0.00034   0.00000   0.00442   0.00442   3.02786
   D26       -1.15341   0.00030   0.00000   0.00406   0.00406  -1.14935
   D27        0.91670  -0.00004   0.00000   0.00210   0.00210   0.91880
   D28        0.92849  -0.00007   0.00000  -0.00098  -0.00098   0.92751
   D29        3.04360   0.00004   0.00000  -0.00009  -0.00009   3.04351
   D30       -1.14712  -0.00008   0.00000  -0.00104  -0.00104  -1.14816
   D31       -2.22120  -0.00008   0.00000  -0.00106  -0.00106  -2.22227
   D32       -0.10609   0.00004   0.00000  -0.00017  -0.00017  -0.10626
   D33        1.98637  -0.00008   0.00000  -0.00112  -0.00112   1.98525
   D34       -0.01151   0.00013   0.00000   0.00185   0.00185  -0.00966
   D35        3.13764   0.00014   0.00000   0.00193   0.00193   3.13957
   D36        0.01027   0.00014   0.00000   0.00146   0.00146   0.01173
   D37       -3.13202   0.00019   0.00000   0.00230   0.00230  -3.12972
   D38       -3.13925   0.00013   0.00000   0.00137   0.00137  -3.13788
   D39        0.00164   0.00019   0.00000   0.00221   0.00221   0.00386
   D40        2.66638  -0.00016   0.00000  -0.00320  -0.00320   2.66318
   D41       -0.49063  -0.00006   0.00000  -0.00166  -0.00166  -0.49229
   D42        2.15086   0.00002   0.00000   0.00102   0.00102   2.15188
   D43       -0.98729   0.00026   0.00000   0.00512   0.00512  -0.98217
         Item               Value     Threshold  Converged?
 Maximum Force            0.107820     0.000450     NO 
 RMS     Force            0.010259     0.000300     NO 
 Maximum Displacement     0.206889     0.001800     NO 
 RMS     Displacement     0.027286     0.001200     NO 
 Predicted change in Energy=-1.993354D-02
 GradGradGradGradGradGradGradGradGradGradGradGradGradGradGradGradGradGrad

                          Input orientation:                          
 ---------------------------------------------------------------------
 Center     Atomic      Atomic             Coordinates (Angstroms)
 Number     Number       Type             X           Y           Z
 ---------------------------------------------------------------------
      1          6           0       -3.287332    0.449871   -0.332931
      2          1           0       -3.542507    1.346382   -0.893563
      3          6           0       -1.863717    0.092371   -0.316580
      4          1           0       -1.158762    0.918999   -0.336501
      5          6           0       -4.254764   -0.206719    0.302529
      6          1           0       -3.991859   -1.070474    0.909921
      7          6           0       -5.701736    0.161603    0.264856
      8          1           0       -6.082849    0.356410    1.271651
      9          1           0       -5.873109    1.049743   -0.345876
     10          1           0       -6.300587   -0.657359   -0.145193
     11          6           0       -1.400561   -1.153331   -0.304809
     12          1           0       -2.084809   -1.996589   -0.341056
     13          6           0        0.039613   -1.542473   -0.258145
     14          1           0        0.297939   -2.147548   -1.133095
     15          1           0        0.240974   -2.136540    0.638643
     16          6           0        2.158795   -0.399492   -0.081032
     17          6           0        2.831614   -1.721732    0.115215
     18          1           0        2.564969   -2.415271   -0.683814
     19          1           0        3.908851   -1.579682    0.135198
     20          1           0        2.508588   -2.161812    1.061389
     21          8           0        0.843631   -0.359896   -0.247510
     22          8           0        2.748398    0.662400   -0.090150
     23          8           0        5.576683    0.375836    0.298899
     24          1           0        4.649675    0.613493    0.143478
     25          1           0        6.091982    1.079581   -0.100531
     26          8           0        0.725074    2.857832   -0.483624
     27          1           0        0.898143    3.420849    0.322412
     28          1           0        1.379630    2.151588   -0.368181
 ---------------------------------------------------------------------
                    Distance matrix (angstroms):
                    1          2          3          4          5
     1  C    0.000000
     2  H    1.087729   0.000000
     3  C    1.467908   2.173428   0.000000
     4  H    2.179657   2.484998   1.086587   0.000000
     5  C    1.330731   2.085682   2.487942   3.355716   0.000000
     6  H    2.086262   3.048879   2.717628   3.679403   1.088171
     7  C    2.503955   2.721747   3.882428   4.644770   1.493589
     8  H    3.224644   3.481599   4.515890   5.210498   2.144343
     9  H    2.654479   2.412398   4.122213   4.716170   2.148992
    10  H    3.215728   3.490278   4.503030   5.381437   2.142177
    11  C    2.476077   3.344119   1.329070   2.086630   3.067802
    12  H    2.726040   3.688577   2.100771   3.059124   2.885575
    13  C    3.878607   4.645517   2.509741   2.738811   4.532138
    14  H    4.499001   5.197494   3.218181   3.487155   5.153148
    15  H    4.481342   5.365923   3.210953   3.499498   4.903962
    16  C    5.517714   6.017734   4.059312   3.579087   6.427909
    17  C    6.508318   7.145655   5.052085   4.806309   7.248939
    18  H    6.525457   7.176022   5.102587   5.010405   7.235975
    19  H    7.491547   8.071117   6.026808   5.669798   8.279954
    20  H    6.508280   7.262576   5.108541   4.989484   7.081045
    21  O    4.210449   4.750472   2.745734   2.377619   5.130267
    22  O    6.044348   6.378776   4.652720   3.923318   7.067803
    23  O    8.886814   9.247895   7.471193   6.787119   9.848692
    24  H    7.952975   8.290020   6.550381   5.836236   8.943550
    25  H    9.403302   9.670753   8.019627   7.256360  10.434184
    26  O    4.681921   4.545853   3.791769   2.707315   5.899856
    27  H    5.174397   5.049890   4.372064   3.305189   6.301754
    28  H    4.967657   5.015158   3.842178   2.822005   6.144742
                    6          7          8          9         10
     6  H    0.000000
     7  C    2.204042   0.000000
     8  H    2.557164   1.093999   0.000000
     9  H    3.100233   1.091400   1.772313   0.000000
    10  H    2.571800   1.094285   1.755729   1.771216   0.000000
    11  C    2.863086   4.533616   5.166078   4.985871   4.927649
    12  H    2.461600   4.255241   4.911390   4.861212   4.427718
    13  C    4.223734   6.011696   6.590188   6.456591   6.402681
    14  H    4.871998   6.578946   7.264093   6.994585   6.836457
    15  H    4.373438   6.382552   6.826876   6.964459   6.752362
    16  C    6.265999   7.888118   8.386049   8.165899   8.463554
    17  C    6.900397   8.739989   9.226249   9.146906   9.197707
    18  H    6.880441   8.710836   9.289285   9.128072   9.054195
    19  H    7.954917   9.767920  10.240803  10.140614  10.254849
    20  H    6.593161   8.569839   8.955358   9.085556   9.017804
    21  O    5.022602   6.586069   7.127207   6.863772   7.151140
    22  O    7.030936   8.472401   8.940864   8.633992   9.144885
    23  O    9.696502  11.280505  11.700056  11.487717  11.930392
    24  H    8.837380  10.361980  10.794718  10.543186  11.027540
    25  H   10.359904  11.835032  12.273238  11.967644  12.513782
    26  O    6.294681   7.009548   7.462299   6.842820   7.863270
    27  H    6.665528   7.361006   7.682844   7.205457   8.286866
    28  H    6.392818   7.382853   7.848586   7.335992   8.180809
                   11         12         13         14         15
    11  C    0.000000
    12  H    1.086551   0.000000
    13  C    1.492552   2.173998   0.000000
    14  H    2.135281   2.515472   1.094708   0.000000
    15  H    2.133410   2.527581   1.094391   1.772688   0.000000
    16  C    3.645183   4.541641   2.414271   2.761398   2.685759
    17  C    4.290782   4.945195   2.822552   2.856416   2.675343
    18  H    4.178704   4.681155   2.705622   2.326576   2.688408
    19  H    5.344645   6.026989   3.889358   3.869073   3.743911
    20  H    4.262039   4.805564   2.867157   3.114954   2.306822
    21  O    2.381013   3.356081   1.430051   2.068270   2.074832
    22  O    4.533963   5.522053   3.496742   3.871472   3.827843
    23  O    7.168316   8.045894   5.886370   6.023556   5.907390
    24  H    6.318859   7.238824   5.105111   5.309482   5.219628
    25  H    7.820859   8.739599   6.597816   6.712041   6.717448
    26  O    4.543097   5.610808   4.459078   5.065381   5.141749
    27  H    5.157574   6.219874   5.070373   5.786691   5.605037
    28  H    4.319256   5.404669   3.931137   4.498636   4.549536
                   16         17         18         19         20
    16  C    0.000000
    17  C    1.496502   0.000000
    18  H    2.142822   1.091120   0.000000
    19  H    2.121862   1.086746   1.781855   0.000000
    20  H    2.129144   1.092365   1.764414   1.776920   0.000000
    21  O    1.326249   2.436851   2.716235   3.321131   2.780683
    22  O    1.214632   2.394408   3.139768   2.534633   3.059367
    23  O    3.525258   3.459615   4.222135   2.575367   4.053919
    24  H    2.698338   2.959631   3.768795   2.314930   3.623414
    25  H    4.202143   4.303940   4.999403   3.448667   4.969648
    26  O    3.581591   5.076271   5.588461   5.496444   5.546603
    27  H    4.043144   5.497943   6.152324   5.839924   5.857109
    28  H    2.682828   4.164678   4.728727   4.535717   4.682269
                   21         22         23         24         25
    21  O    0.000000
    22  O    2.167484   0.000000
    23  O    4.820959   2.869264   0.000000
    24  H    3.947952   1.916202   0.969526   0.000000
    25  H    5.444161   3.369526   0.959340   1.535262   0.000000
    26  O    3.228557   3.011408   5.505520   4.564297   5.666801
    27  H    3.823848   3.347042   5.582239   4.689057   5.712826
    28  H    2.570877   2.041693   4.605817   3.649758   4.840156
                   26         27         28
    26  O    0.000000
    27  H    0.998316   0.000000
    28  H    0.969819   1.523079   0.000000
 Stoichiometry    C8H16O4
 Framework group  C1[X(C8H16O4)]
 Deg. of freedom    78
 Full point group                 C1      NOp   1
 Largest Abelian subgroup         C1      NOp   1
 Largest concise Abelian subgroup C1      NOp   1
                         Standard orientation:                         
 ---------------------------------------------------------------------
 Center     Atomic      Atomic             Coordinates (Angstroms)
 Number     Number       Type             X           Y           Z
 ---------------------------------------------------------------------
      1          6           0       -3.324190    0.492429   -0.221677
      2          1           0       -3.574447    1.421614   -0.728766
      3          6           0       -1.902721    0.126174   -0.227814
      4          1           0       -1.192861    0.948373   -0.200272
      5          6           0       -4.295027   -0.194388    0.375485
      6          1           0       -4.036807   -1.093648    0.931156
      7          6           0       -5.739804    0.184052    0.360994
      8          1           0       -6.118962    0.322037    1.377868
      9          1           0       -5.906350    1.107310   -0.196691
     10          1           0       -6.343851   -0.606035   -0.095458
     11          6           0       -1.446998   -1.120810   -0.289258
     12          1           0       -2.136294   -1.956457   -0.373866
     13          6           0       -0.009136   -1.520519   -0.266998
     14          1           0        0.244892   -2.075032   -1.176047
     15          1           0        0.189376   -2.167076    0.593379
     16          6           0        2.116966   -0.402367   -0.025895
     17          6           0        2.782037   -1.737759    0.092123
     18          1           0        2.510634   -2.381909   -0.745705
     19          1           0        3.860117   -1.603487    0.119144
     20          1           0        2.457128   -2.230375    1.011375
     21          8           0        0.801933   -0.345351   -0.188297
     22          8           0        2.712889    0.654744    0.026287
     23          8           0        5.539716    0.329255    0.394769
     24          1           0        4.614022    0.581050    0.254522
     25          1           0        6.058894    1.052046    0.036494
     26          8           0        0.702396    2.881316   -0.236158
     27          1           0        0.879450    3.395314    0.601155
     28          1           0        1.352815    2.165683   -0.162851
[...]
 Alpha virt. eigenvalues --    1.14272   1.16550   1.17009   1.18015   1.19703
 Alpha virt. eigenvalues --    1.21185   1.23138   1.23253   1.26110   1.26870
 Alpha virt. eigenvalues --    1.28189   1.29102   1.29423   1.30323   1.31276
 Alpha virt. eigenvalues --    1.31368   1.33804   1.34578   1.35680   1.37120
 Alpha virt. eigenvalues --    1.38663   1.39021   1.40497   1.43437   1.45304
 Alpha virt. eigenvalues --    1.47923   1.48471   1.50315   1.51641   1.56568
 Alpha virt. eigenvalues --    1.57997   1.58969   1.60292   1.61877   1.62891
 Alpha virt. eigenvalues --    1.63052   1.63711   1.63964   1.64713   1.65484
 Alpha virt. eigenvalues --    1.66688   1.67068   1.67578   1.68645   1.69776
 Alpha virt. eigenvalues --    1.70733   1.71917   1.73847   1.75265   1.76956
 Alpha virt. eigenvalues --    1.77519   1.80859   1.81533   1.82351   1.83713
 Alpha virt. eigenvalues --    1.84334   1.85031   1.86005   1.90391   1.90676
 Alpha virt. eigenvalues --    1.90704   1.92424   1.94209   1.95182   1.96946
 Alpha virt. eigenvalues --    1.97940   1.98616   2.00276   2.00691   2.02303
 Alpha virt. eigenvalues --    2.04467   2.06378   2.07506   2.08591   2.10114
 Alpha virt. eigenvalues --    2.11901   2.14160   2.16183   2.16803   2.19376
 Alpha virt. eigenvalues --    2.19923   2.21399   2.22158   2.23398   2.25717
 Alpha virt. eigenvalues --    2.27034   2.28623   2.29278   2.30934   2.31678
 Alpha virt. eigenvalues --    2.33937   2.35266   2.36487   2.38243   2.38763
 Alpha virt. eigenvalues --    2.39851   2.40326   2.43235   2.43443   2.45079
 Alpha virt. eigenvalues --    2.45552   2.45912   2.46601   2.48495   2.49682
 Alpha virt. eigenvalues --    2.50166   2.52742   2.53943   2.54702   2.55923
 Alpha virt. eigenvalues --    2.56631   2.57869   2.58432   2.59486   2.62732
 Alpha virt. eigenvalues --    2.62952   2.63755   2.66465   2.67349   2.67944
 Alpha virt. eigenvalues --    2.70484   2.71320   2.71838   2.72989   2.73516
 Alpha virt. eigenvalues --    2.75975   2.76205   2.77352   2.77566   2.79361
 Alpha virt. eigenvalues --    2.81907   2.82414   2.82937   2.83906   2.84537
 Alpha virt. eigenvalues --    2.85214   2.89295   2.89996   2.91555   2.92522
 Alpha virt. eigenvalues --    2.93130   2.93999   2.94419   2.96942   2.98779
 Alpha virt. eigenvalues --    2.99557   3.00764   3.02292   3.02544   3.03853
 Alpha virt. eigenvalues --    3.04750   3.07022   3.08414   3.10161   3.12391
 Alpha virt. eigenvalues --    3.14259   3.14540   3.16885   3.17462   3.18422
 Alpha virt. eigenvalues --    3.19094   3.19882   3.20947   3.21251   3.21597
 Alpha virt. eigenvalues --    3.23579   3.23876   3.24058   3.25358   3.27126
 Alpha virt. eigenvalues --    3.28460   3.29142   3.29608   3.30242   3.31356
 Alpha virt. eigenvalues --    3.33618   3.34286   3.35948   3.36660   3.37268
 Alpha virt. eigenvalues --    3.38679   3.39966   3.41320   3.43036   3.43972
 Alpha virt. eigenvalues --    3.45139   3.48233   3.48676   3.52141   3.52651
 Alpha virt. eigenvalues --    3.55156   3.56442   3.56996   3.58554   3.63083
 Alpha virt. eigenvalues --    3.65100   3.65873   3.68136   3.69815   3.70152
 Alpha virt. eigenvalues --    3.72615   3.75065   3.77797   3.79119   3.80699
 Alpha virt. eigenvalues --    3.83202   3.83760   3.86291   3.86698   3.88548
 Alpha virt. eigenvalues --    3.89342   3.91642   3.94669   3.97680   3.98854
 Alpha virt. eigenvalues --    4.00332   4.07332   4.08391   4.09153   4.11077
 Alpha virt. eigenvalues --    4.11977   4.15119   4.15694   4.23020   4.26293
 Alpha virt. eigenvalues --    4.29023   4.33402   4.36930   4.44850   4.45500
 Alpha virt. eigenvalues --    4.47366   4.47883   4.48509   4.50967   4.53901
 Alpha virt. eigenvalues --    4.57101   4.59032   4.60829   4.66226   4.66919
 Alpha virt. eigenvalues --    4.73219   4.76288   4.77851   4.81558   4.82464
 Alpha virt. eigenvalues --    4.88660   4.93013   4.97609   5.07365   5.12287
 Alpha virt. eigenvalues --    5.19843   5.20724   5.21128   5.24182   5.26874
 Alpha virt. eigenvalues --    5.29305   5.30896   5.31463   5.33040   5.36712
 Alpha virt. eigenvalues --    5.49270   5.50264   5.50684   5.52150   5.53600
 Alpha virt. eigenvalues --    5.54372   5.59187   5.59586   5.69596   5.93493
 Alpha virt. eigenvalues --    5.99208   5.99621   6.13803   6.15990   6.18388
 Alpha virt. eigenvalues --    6.26437   6.34208   6.35431   6.39426   6.41569
 Alpha virt. eigenvalues --    6.43970   6.45571   6.50147   6.51232   6.54023
 Alpha virt. eigenvalues --    6.54537   6.55480   6.72739   6.74376   6.90739
 Alpha virt. eigenvalues --    6.91878   6.97208   6.98251   7.06850   7.07339
 Alpha virt. eigenvalues --    7.15810   7.18805   7.20469   7.24699   7.36054
 Alpha virt. eigenvalues --    7.57484  22.46925  22.50060  22.50574  22.54305
 Alpha virt. eigenvalues --   22.66345  22.95537  23.04672  23.52283  43.75115
 Alpha virt. eigenvalues --   43.75722  44.13515  44.46327
          Condensed to atoms (all electrons):
               1          2          3          4          5          6
     1  C    6.330706   0.423515  -1.163436   0.045482  -0.045564   0.014992
     2  H    0.423515   0.496073  -0.058062  -0.003832  -0.001734   0.003333
     3  C   -1.163436  -0.058062   7.970197   0.175926   0.342116  -0.045879
     4  H    0.045482  -0.003832   0.175926   0.510449  -0.007150   0.000085
     5  C   -0.045564  -0.001734   0.342116  -0.007150   5.778608   0.379675
     6  H    0.014992   0.003333  -0.045879   0.000085   0.379675   0.509210
     7  C    0.009754  -0.005594   0.009533   0.000691   0.030914  -0.019044
     8  H   -0.015067   0.000214  -0.000382   0.000001  -0.065592  -0.002479
     9  H    0.097724   0.002361  -0.018581  -0.000020  -0.141016   0.002923
    10  H   -0.070201  -0.000255   0.023318   0.000021   0.031406  -0.001578
    11  C    0.611034  -0.006430  -1.161104   0.107517  -0.183263   0.029830
    12  H    0.021685   0.000045  -0.046910   0.005651   0.003926   0.000195
    13  C   -0.164221  -0.003323   0.384350  -0.014466   0.020736  -0.016994
    14  H    0.006283   0.000017  -0.014170   0.000678   0.000535   0.000014
    15  H    0.004175  -0.000002  -0.000416  -0.000087  -0.001884  -0.000004
    16  C    0.015638  -0.000693  -0.095843   0.002733   0.004618  -0.000232
    17  C   -0.002893  -0.000067  -0.014739  -0.001376   0.001195  -0.000033
    18  H    0.001875   0.000000  -0.001758  -0.000002  -0.000430   0.000000
    19  H   -0.000385   0.000000  -0.000242   0.000003   0.000032   0.000000
    20  H   -0.000519   0.000000  -0.001656  -0.000014   0.000400   0.000000
    21  O   -0.001486  -0.000466  -0.076623  -0.006184   0.005203  -0.000422
    22  O   -0.009045  -0.000012   0.014727  -0.000600   0.000712  -0.000005
    23  O   -0.000027   0.000000  -0.000122   0.000000   0.000004   0.000000
    24  H    0.000130   0.000000   0.000206  -0.000006   0.000001   0.000000
    25  H    0.000015   0.000000   0.000014   0.000000  -0.000001   0.000000
    26  O   -0.030096   0.000365   0.159985  -0.051709   0.000183  -0.000020
    27  H    0.001913  -0.000001  -0.006097   0.000354   0.000629   0.000000
    28  H   -0.002064  -0.000012  -0.010974   0.002930   0.001360   0.000000
               7          8          9         10         11         12
     1  C    0.009754  -0.015067   0.097724  -0.070201   0.611034   0.021685
     2  H   -0.005594   0.000214   0.002361  -0.000255  -0.006430   0.000045
     3  C    0.009533  -0.000382  -0.018581   0.023318  -1.161104  -0.046910
     4  H    0.000691   0.000001  -0.000020   0.000021   0.107517   0.005651
     5  C    0.030914  -0.065592  -0.141016   0.031406  -0.183263   0.003926
     6  H   -0.019044  -0.002479   0.002923  -0.001578   0.029830   0.000195
     7  C    5.033100   0.450019   0.437280   0.395771   0.035171  -0.003052
     8  H    0.450019   0.542814  -0.022412  -0.034276   0.006739   0.000034
     9  H    0.437280  -0.022412   0.526696  -0.021442  -0.000001   0.000003
    10  H    0.395771  -0.034276  -0.021442   0.542412  -0.007764  -0.000063
    11  C    0.035171   0.006739  -0.000001  -0.007764   6.738251   0.430025
    12  H   -0.003052   0.000034   0.000003  -0.000063   0.430025   0.487554
    13  C   -0.005575  -0.001719   0.000386   0.001551  -0.392567  -0.060073
    14  H   -0.000424   0.000000   0.000000  -0.000001  -0.022420  -0.001008
    15  H    0.000631  -0.000001   0.000000   0.000001  -0.023699  -0.002768
    16  C   -0.001013  -0.000010  -0.000030   0.000012   0.039084  -0.001440
    17  C    0.000369   0.000007  -0.000005  -0.000004   0.042707  -0.001120
    18  H   -0.000031   0.000000   0.000000   0.000000  -0.010536  -0.000007
    19  H    0.000002   0.000000   0.000000   0.000000   0.002632   0.000000
    20  H    0.000013   0.000000   0.000000   0.000000   0.012176  -0.000011
    21  O    0.001210   0.000002  -0.000010   0.000002  -0.008963   0.001408
    22  O    0.000169   0.000000   0.000000   0.000000  -0.014515  -0.000127
    23  O    0.000001   0.000000   0.000000   0.000000  -0.000725   0.000000
    24  H    0.000000   0.000000   0.000000   0.000000   0.001242   0.000000
    25  H    0.000000   0.000000   0.000000   0.000000   0.000047   0.000000
    26  O   -0.000647  -0.000002  -0.000004   0.000000  -0.113472  -0.000445
    27  H   -0.000011   0.000000   0.000000   0.000000   0.004757   0.000001
    28  H    0.000087   0.000000   0.000000   0.000000   0.009188   0.000017
              13         14         15         16         17         18
     1  C   -0.164221   0.006283   0.004175   0.015638  -0.002893   0.001875
     2  H   -0.003323   0.000017  -0.000002  -0.000693  -0.000067   0.000000
     3  C    0.384350  -0.014170  -0.000416  -0.095843  -0.014739  -0.001758
     4  H   -0.014466   0.000678  -0.000087   0.002733  -0.001376  -0.000002
     5  C    0.020736   0.000535  -0.001884   0.004618   0.001195  -0.000430
     6  H   -0.016994   0.000014  -0.000004  -0.000232  -0.000033   0.000000
     7  C   -0.005575  -0.000424   0.000631  -0.001013   0.000369  -0.000031
     8  H   -0.001719   0.000000  -0.000001  -0.000010   0.000007   0.000000
     9  H    0.000386   0.000000   0.000000  -0.000030  -0.000005   0.000000
    10  H    0.001551  -0.000001   0.000001   0.000012  -0.000004   0.000000
    11  C   -0.392567  -0.022420  -0.023699   0.039084   0.042707  -0.010536
    12  H   -0.060073  -0.001008  -0.002768  -0.001440  -0.001120  -0.000007
    13  C    5.473433   0.450661   0.390541  -0.113405  -0.063560   0.017184
    14  H    0.450661   0.541086  -0.046609  -0.008491  -0.015374   0.001344
    15  H    0.390541  -0.046609   0.558849  -0.004891   0.017045  -0.005275
    16  C   -0.113405  -0.008491  -0.004891   5.303075  -0.126564  -0.053972
    17  C   -0.063560  -0.015374   0.017045  -0.126564   5.377691   0.419774
    18  H    0.017184   0.001344  -0.005275  -0.053972   0.419774   0.501550
    19  H    0.001581  -0.000039   0.000315  -0.044519   0.421688  -0.014971
    20  H   -0.038738   0.000221  -0.000774  -0.057460   0.459131  -0.030265
    21  O    0.166762  -0.052539  -0.039942   0.234971  -0.000591   0.002642
    22  O    0.047380  -0.000961   0.000375   0.280090   0.009781   0.000912
    23  O    0.002862  -0.000023  -0.000022  -0.014390   0.008136  -0.000140
    24  H   -0.001722   0.000005   0.000014   0.021769  -0.020753  -0.000228
    25  H   -0.000276   0.000000   0.000000   0.004388  -0.004574  -0.000002
    26  O    0.014311  -0.000365  -0.000179  -0.013462   0.005861   0.000038
    27  H   -0.002168   0.000002  -0.000003   0.003522  -0.000185   0.000000
    28  H   -0.003851  -0.000038  -0.000023  -0.004091   0.003877  -0.000030
              19         20         21         22         23         24
     1  C   -0.000385  -0.000519  -0.001486  -0.009045  -0.000027   0.000130
     2  H    0.000000   0.000000  -0.000466  -0.000012   0.000000   0.000000
     3  C   -0.000242  -0.001656  -0.076623   0.014727  -0.000122   0.000206
     4  H    0.000003  -0.000014  -0.006184  -0.000600   0.000000  -0.000006
     5  C    0.000032   0.000400   0.005203   0.000712   0.000004   0.000001
     6  H    0.000000   0.000000  -0.000422  -0.000005   0.000000   0.000000
     7  C    0.000002   0.000013   0.001210   0.000169   0.000001   0.000000
     8  H    0.000000   0.000000   0.000002   0.000000   0.000000   0.000000
     9  H    0.000000   0.000000  -0.000010   0.000000   0.000000   0.000000
    10  H    0.000000   0.000000   0.000002   0.000000   0.000000   0.000000
    11  C    0.002632   0.012176  -0.008963  -0.014515  -0.000725   0.001242
    12  H    0.000000  -0.000011   0.001408  -0.000127   0.000000   0.000000
    13  C    0.001581  -0.038738   0.166762   0.047380   0.002862  -0.001722
    14  H   -0.000039   0.000221  -0.052539  -0.000961  -0.000023   0.000005
    15  H    0.000315  -0.000774  -0.039942   0.000375  -0.000022   0.000014
    16  C   -0.044519  -0.057460   0.234971   0.280090  -0.014390   0.021769
    17  C    0.421688   0.459131  -0.000591   0.009781   0.008136  -0.020753
    18  H   -0.014971  -0.030265   0.002642   0.000912  -0.000140  -0.000228
    19  H    0.456367  -0.007504   0.006496  -0.011860  -0.002032  -0.002089
    20  H   -0.007504   0.468428   0.005099  -0.000544   0.000307  -0.000277
    21  O    0.006496   0.005099   8.168955  -0.067057  -0.002465   0.004003
    22  O   -0.011860  -0.000544  -0.067057   8.318700  -0.015127   0.001366
    23  O   -0.002032   0.000307  -0.002465  -0.015127   8.140843   0.298674
    24  H   -0.002089  -0.000277   0.004003   0.001366   0.298674   0.367032
    25  H   -0.000648  -0.000009  -0.000019   0.000765   0.297962  -0.013771
    26  O   -0.000077   0.000067  -0.002809  -0.023976  -0.000221  -0.000352
    27  H    0.000002  -0.000001  -0.003881   0.002017   0.000054  -0.000032
    28  H    0.000043   0.000032  -0.007416   0.015329  -0.000475   0.000025
              25         26         27         28
     1  C    0.000015  -0.030096   0.001913  -0.002064
     2  H    0.000000   0.000365  -0.000001  -0.000012
     3  C    0.000014   0.159985  -0.006097  -0.010974
     4  H    0.000000  -0.051709   0.000354   0.002930
     5  C   -0.000001   0.000183   0.000629   0.001360
     6  H    0.000000  -0.000020   0.000000   0.000000
     7  C    0.000000  -0.000647  -0.000011   0.000087
     8  H    0.000000  -0.000002   0.000000   0.000000
     9  H    0.000000  -0.000004   0.000000   0.000000
    10  H    0.000000   0.000000   0.000000   0.000000
    11  C    0.000047  -0.113472   0.004757   0.009188
    12  H    0.000000  -0.000445   0.000001   0.000017
    13  C   -0.000276   0.014311  -0.002168  -0.003851
    14  H    0.000000  -0.000365   0.000002  -0.000038
    15  H    0.000000  -0.000179  -0.000003  -0.000023
    16  C    0.004388  -0.013462   0.003522  -0.004091
    17  C   -0.004574   0.005861  -0.000185   0.003877
    18  H   -0.000002   0.000038   0.000000  -0.000030
    19  H   -0.000648  -0.000077   0.000002   0.000043
    20  H   -0.000009   0.000067  -0.000001   0.000032
    21  O   -0.000019  -0.002809  -0.003881  -0.007416
    22  O    0.000765  -0.023976   0.002017   0.015329
    23  O    0.297962  -0.000221   0.000054  -0.000475
    24  H   -0.013771  -0.000352  -0.000032   0.000025
    25  H    0.374082   0.000016   0.000001  -0.000043
    26  O    0.000016   8.178219   0.295740   0.296155
    27  H    0.000001   0.295740   0.378145  -0.013700
    28  H   -0.000043   0.296155  -0.013700   0.367229
 Mulliken charges:
               1
     1  C   -0.079917
     2  H    0.154560
     3  C   -0.363381
     4  H    0.232923
     5  C   -0.155618
     6  H    0.146433
     7  C   -0.369323
     8  H    0.142110
     9  H    0.136148
    10  H    0.141090
    11  C   -0.124939
    12  H    0.166482
    13  C   -0.089079
    14  H    0.161618
    15  H    0.154630
    16  C    0.630606
    17  C   -0.515426
    18  H    0.172329
    19  H    0.195205
    20  H    0.191900
    21  O   -0.325882
    22  O   -0.548492
    23  O   -0.713075
    24  H    0.344765
    25  H    0.342052
    26  O   -0.713104
    27  H    0.338941
    28  H    0.346443
 Sum of Mulliken charges =   0.00000
 Mulliken charges with hydrogens summed into heavy atoms:
               1
     1  C    0.074643
     3  C   -0.130458
     5  C   -0.009185
     7  C    0.050025
    11  C    0.041543
    13  C    0.227169
    16  C    0.630606
    17  C    0.044009
    21  O   -0.325882
    22  O   -0.548492
    23  O   -0.026258
    26  O   -0.027719
 Electronic spatial extent (au):  <R**2>=           4478.7668
 Charge=              0.0000 electrons
 Dipole moment (field-independent basis, Debye):
    X=             -2.2172    Y=             -4.5136    Z=              0.1545  Tot=              5.0311
 Quadrupole moment (field-independent basis, Debye-Ang):
   XX=            -81.3349   YY=            -66.2272   ZZ=            -75.3849
   XY=              0.9689   XZ=             -7.4806   YZ=              3.0078
 Traceless Quadrupole moment (field-independent basis, Debye-Ang):
   XX=             -7.0192   YY=              8.0885   ZZ=             -1.0693
   XY=              0.9689   XZ=             -7.4806   YZ=              3.0078
 Octapole moment (field-independent basis, Debye-Ang**2):
  XXX=            -85.2623  YYY=              0.4310  ZZZ=              1.7452  XYY=             30.7573
  XXY=             26.3347  XXZ=            -44.0276  XZZ=             15.0572  YZZ=              0.2321
  YYZ=             15.2762  XYZ=              1.8287
 Hexadecapole moment (field-independent basis, Debye-Ang**3):
 XXXX=          -5075.0012 YYYY=           -736.8997 ZZZZ=           -130.4517 XXXY=            217.7112
 XXXZ=           -331.0928 YYYX=             44.1967 YYYZ=             64.8493 ZZZX=             -9.2365
 ZZZY=              1.3596 XXYY=           -846.7546 XXZZ=           -866.1188 YYZZ=           -146.7753
 XXYZ=            -52.0022 YYXZ=             19.6338 ZZXY=              0.2171
 N-N= 6.867764432789D+02 E-N=-2.813607364215D+03  KE= 6.125875971067D+02
 1\1\GINC-D10S6B1\FOpt\RwB97XD\Gen\C8H16O4\PMMASS\09-Feb-2022\0\\#n wB9
 7XD/Gen scrf(smd,solvent=toluene) opt\\diene diels-alder toluene 2 h2o
  - opt\\0,1\C,-3.2819007492,0.4481018883,-0.3223801798\H,-3.5205302309
 ,1.3683691516,-0.8501571495\C,-1.8643323541,0.0763435713,-0.3117784646
 \H,-1.153304026,0.8972796099,-0.3270401551\C,-4.2646342603,-0.21697269
 62,0.2797393149\H,-4.0199064191,-1.1059514351,0.8569641224\C,-5.705197
 9248,0.1699701115,0.2423754926\H,-6.0990286023,0.3182503902,1.25184225
 47\H,-5.8602324261,1.08897042,-0.3247860287\H,-6.3079677479,-0.6198667
 642,-0.2156681715\C,-1.4055274381,-1.1711621158,-0.3102289605\H,-2.091
 7256457,-2.0121641748,-0.3484954792\C,0.0325597841,-1.5647006936,-0.27
 29483461\H,0.2814937588,-2.1767619551,-1.1459766098\H,0.236165311,-2.1
 585681108,0.6233631423\C,2.1493844485,-0.4203001138,-0.0764491333\C,2.
 823903477,-1.7330353357,0.1663647294\H,2.5637554897,-2.4581147867,-0.6
 051917174\H,3.9002427904,-1.5860062457,0.1872669215\H,2.5001849591,-2.
 1391573276,1.127187552\O,0.8414351562,-0.3897303903,-0.2752951409\O,2.
 7365543292,0.6423066814,-0.0921754569\O,5.5672975677,0.5067461763,0.27
 11658904\H,4.6209211731,0.6675360363,0.1382397087\H,6.0150702081,1.091
 5999277,-0.3418442121\O,0.7765132262,2.8517046301,-0.3563835431\H,1.02
 56591908,3.4769512604,0.3259928257\H,1.4251169546,2.1364022903,-0.2921
 03206\\Version=ES64L-G09RevD.01\State=1-A\HF=-615.4349194\RMSD=3.839e-
 09\RMSF=8.052e-06\Dipole=-0.8472623,-1.784262,0.1288425\Quadrupole=-5.
 2132446,6.1898884,-0.9766438,0.3373443,-5.6194297,1.8843536\PG=C01 [X(
 C8H16O4)]\\@


 BULLDOZER: SOMEONE WHO SLEEPS THROUGH SPEECHES.
 Job cpu time:       0 days 16 hours 13 minutes 52.3 seconds.
 File lengths (MBytes):  RWF=    250 Int=      0 D2E=      0 Chk=     20 Scr=      1
 Normal termination of Gaussian 09 at Wed Feb  9 14:58:41 2022.
