 Entering Gaussian System, Link 0=g09
 Input=diene_water_ma_freq.com
 Output=diene_water_ma_freq.log
 Initial command:
 /apps/applications/gaussian/G09.D01/2/default/g09/l1.exe "/nobackup/pmmass/Temp/Gau-103902.inp" -scrdir="/nobackup/pmmass/Temp/"
 Entering Link 1 = /apps/applications/gaussian/G09.D01/2/default/g09/l1.exe PID=    103903.
  
 Copyright (c) 1988,1990,1992,1993,1995,1998,2003,2009,2013,
            Gaussian, Inc.  All Rights Reserved.
  
 This is part of the Gaussian(R) 09 program.  It is based on
 the Gaussian(R) 03 system (copyright 2003, Gaussian, Inc.),
 the Gaussian(R) 98 system (copyright 1998, Gaussian, Inc.),
 the Gaussian(R) 94 system (copyright 1995, Gaussian, Inc.),
 the Gaussian 92(TM) system (copyright 1992, Gaussian, Inc.),
 the Gaussian 90(TM) system (copyright 1990, Gaussian, Inc.),
 the Gaussian 88(TM) system (copyright 1988, Gaussian, Inc.),
 the Gaussian 86(TM) system (copyright 1986, Carnegie Mellon
 University), and the Gaussian 82(TM) system (copyright 1983,
 Carnegie Mellon University). Gaussian is a federally registered
 trademark of Gaussian, Inc.
  
 This software contains proprietary and confidential information,
 including trade secrets, belonging to Gaussian, Inc.
  
 This software is provided under written license and may be
 used, copied, transmitted, or stored only in accord with that
 written license.
  
 The following legend is applicable only to US Government
 contracts under FAR:
  
                    RESTRICTED RIGHTS LEGEND
  
 Use, reproduction and disclosure by the US Government is
 subject to restrictions as set forth in subparagraphs (a)
 and (c) of the Commercial Computer Software - Restricted
 Rights clause in FAR 52.227-19.
  
 Gaussian, Inc.
 340 Quinnipiac St., Bldg. 40, Wallingford CT 06492
  
  
 ---------------------------------------------------------------
 Warning -- This program may not be used in any manner that
 competes with the business of Gaussian, Inc. or will provide
 assistance to any competitor of Gaussian, Inc.  The licensee
 of this program is prohibited from giving any competitor of
 Gaussian, Inc. access to this program.  By using this program,
 the user acknowledges that Gaussian, Inc. is engaged in the
 business of creating and licensing software in the field of
 computational chemistry and represents and warrants to the
 licensee that it is not a competitor of Gaussian, Inc. and that
 it will not use this program in any manner prohibited above.
 ---------------------------------------------------------------
  

 Cite this work as:
 Gaussian 09, Revision D.01,
 M. J. Frisch, G. W. Trucks, H. B. Schlegel, G. E. Scuseria, 
 M. A. Robb, J. R. Cheeseman, G. Scalmani, V. Barone, B. Mennucci, 
 G. A. Petersson, H. Nakatsuji, M. Caricato, X. Li, H. P. Hratchian, 
 A. F. Izmaylov, J. Bloino, G. Zheng, J. L. Sonnenberg, M. Hada, 
 M. Ehara, K. Toyota, R. Fukuda, J. Hasegawa, M. Ishida, T. Nakajima, 
 Y. Honda, O. Kitao, H. Nakai, T. Vreven, J. A. Montgomery, Jr., 
 J. E. Peralta, F. Ogliaro, M. Bearpark, J. J. Heyd, E. Brothers, 
 K. N. Kudin, V. N. Staroverov, T. Keith, R. Kobayashi, J. Normand, 
 K. Raghavachari, A. Rendell, J. C. Burant, S. S. Iyengar, J. Tomasi, 
 M. Cossi, N. Rega, J. M. Millam, M. Klene, J. E. Knox, J. B. Cross, 
 V. Bakken, C. Adamo, J. Jaramillo, R. Gomperts, R. E. Stratmann, 
 O. Yazyev, A. J. Austin, R. Cammi, C. Pomelli, J. W. Ochterski, 
 R. L. Martin, K. Morokuma, V. G. Zakrzewski, G. A. Voth, 
 P. Salvador, J. J. Dannenberg, S. Dapprich, A. D. Daniels, 
 O. Farkas, J. B. Foresman, J. V. Ortiz, J. Cioslowski, 
 and D. J. Fox, Gaussian, Inc., Wallingford CT, 2013.
 
 ******************************************
 Gaussian 09:  ES64L-G09RevD.01 24-Apr-2013
                 9-Feb-2022 
 ******************************************
 %nprocshared=8
 Will use up to    8 processors via shared memory.
 %mem=4GB
 %NoSave
 %chk="diene_water_ma_freq.chk"
 --------------------------------------------
 #n wB97XD/Gen scrf(smd,solvent=toluene) freq
 --------------------------------------------
 1/10=4,30=1,38=1/1,3;
 2/12=2,17=6,18=5,40=1/2;
 3/5=7,11=2,16=1,25=1,30=1,70=32201,71=2,72=13,74=-58,140=1/1,2,3;
 4//1;
 5/5=2,38=5,53=13,98=1/2;
 8/6=4,10=90,11=11/1;
 11/6=1,8=1,9=11,15=111,16=1/1,2,10;
 10/6=1/2;
 6/7=2,8=2,9=2,10=2,18=1,28=1/1;
 7/8=1,10=1,25=1/1,2,3,16;
 1/10=4,30=1/3;
 99//99;
 --------------------------------
 diene diels-alder toluene - freq
 --------------------------------
 Symbolic Z-matrix:
 Charge =  0 Multiplicity = 1
 C                    -3.315     0.5126   -0.22244 
 H                    -3.54135   1.45609  -0.71334 
 C                    -1.90284   0.12071  -0.22936 
 H                    -1.18025   0.93149  -0.21401 
 C                    -4.30615  -0.16156   0.35528 
 H                    -4.07319  -1.07581   0.8968 
 C                    -5.74113   0.24688   0.3361 
 H                    -6.13125   0.36111   1.35142 
 H                    -5.88397   1.18946  -0.19438 
 H                    -6.35577  -0.51584  -0.15121 
 C                    -1.46181  -1.13226  -0.27754 
 H                    -2.15994  -1.96134  -0.34721 
 C                    -0.0294   -1.54724  -0.25869 
 H                     0.20947  -2.12814  -1.1555 
 H                     0.16714  -2.17854   0.61329 
 C                     2.10377  -0.44144  -0.02205 
 C                     2.75995  -1.77208   0.16784 
 H                     2.48833  -2.46267  -0.63092 
 H                     3.8383   -1.64121   0.19221 
 H                     2.43198  -2.21086   1.11273 
 O                     0.79608  -0.38463  -0.2168 
 O                     2.70595   0.61256   0.00254 
 O                     5.53505   0.42289   0.35436 
 H                     4.59084   0.60212   0.22981 
 H                     5.99013   1.02489  -0.23626 
 O                     0.77709   2.85809  -0.17097 
 H                     1.03615   3.45258   0.5348 
 H                     1.41557   2.13172  -0.13607 
 

 GradGradGradGradGradGradGradGradGradGradGradGradGradGradGradGradGradGrad
 Berny optimization.
 Initialization pass.
 Trust Radius=3.00D-01 FncErr=1.00D-07 GrdErr=1.00D-07
 Number of steps in this run=      2 maximum allowed number of steps=      2.
 GradGradGradGradGradGradGradGradGradGradGradGradGradGradGradGradGradGrad

                          Input orientation:                          
 ---------------------------------------------------------------------
 Center     Atomic      Atomic             Coordinates (Angstroms)
 Number     Number       Type             X           Y           Z
 ---------------------------------------------------------------------
      1          6           0       -3.315000    0.512600   -0.222440
      2          1           0       -3.541350    1.456090   -0.713340
      3          6           0       -1.902840    0.120710   -0.229360
      4          1           0       -1.180250    0.931490   -0.214010
      5          6           0       -4.306150   -0.161560    0.355280
      6          1           0       -4.073190   -1.075810    0.896800
      7          6           0       -5.741130    0.246880    0.336100
      8          1           0       -6.131250    0.361110    1.351420
      9          1           0       -5.883970    1.189460   -0.194380
     10          1           0       -6.355770   -0.515840   -0.151210
     11          6           0       -1.461810   -1.132260   -0.277540
     12          1           0       -2.159940   -1.961340   -0.347210
     13          6           0       -0.029400   -1.547240   -0.258690
     14          1           0        0.209470   -2.128140   -1.155500
     15          1           0        0.167140   -2.178540    0.613290
     16          6           0        2.103770   -0.441440   -0.022050
     17          6           0        2.759950   -1.772080    0.167840
     18          1           0        2.488330   -2.462670   -0.630920
     19          1           0        3.838300   -1.641210    0.192210
     20          1           0        2.431980   -2.210860    1.112730
     21          8           0        0.796080   -0.384630   -0.216800
     22          8           0        2.705950    0.612560    0.002540
     23          8           0        5.535050    0.422890    0.354360
     24          1           0        4.590840    0.602120    0.229810
     25          1           0        5.990130    1.024890   -0.236260
     26          8           0        0.777090    2.858090   -0.170970
     27          1           0        1.036150    3.452580    0.534800
     28          1           0        1.415570    2.131720   -0.136070
 ---------------------------------------------------------------------
                    Distance matrix (angstroms):
                    1          2          3          4          5
     1  C    0.000000
     2  H    1.087378   0.000000
     3  C    1.465545   2.168454   0.000000
     4  H    2.175476   2.469682   1.086157   0.000000
     5  C    1.330650   2.084145   2.489454   3.360074   0.000000
     6  H    2.085808   3.047281   2.722189   3.692188   1.087827
     7  C    2.503733   2.720762   3.881769   4.644668   1.492099
     8  H    3.229744   3.488524   4.520631   5.223821   2.143938
     9  H    2.656790   2.414183   4.122238   4.710830   2.148697
    10  H    3.210770   3.482163   4.498876   5.374450   2.140792
    11  C    2.478490   3.348726   1.329196   2.083837   3.071317
    12  H    2.733150   3.704210   2.101171   3.057123   2.887718
    13  C    3.878069   4.643328   2.508524   2.733232   4.537363
    14  H    4.501777   5.206809   3.221322   3.489851   5.151768
    15  H    4.479506   5.359420   3.206466   3.488864   4.913766
    16  C    5.505762   5.995488   4.051162   3.564628   6.427113
    17  C    6.502084   7.134700   5.047973   4.793775   7.249736
    18  H    6.534350   7.191698   5.110526   5.015238   7.241040
    19  H    7.482014   8.054348   6.020197   5.654171   8.279373
    20  H    6.498284   7.243047   5.101773   4.968180   7.083485
    21  O    4.207854   4.737943   2.745851   2.374460   5.139045
    22  O    6.025981   6.344508   4.640758   3.905273   7.063514
    23  O    8.869280   9.197202   7.466877   6.758474   9.858539
    24  H    7.919271   8.231118   6.527670   5.797494   8.930587
    25  H    9.319232   9.553149   7.944593   7.171023  10.381280
    26  O    4.716903   4.572602   3.831277   2.746784   5.935870
    27  H    5.305601   5.147556   4.508099   3.439337   6.452473
    28  H    5.000730   5.035948   3.881328   2.860928   6.183740
                    6          7          8          9         10
     6  H    0.000000
     7  C    2.201344   0.000000
     8  H    2.550888   1.093671   0.000000
     9  H    3.098555   1.090995   1.771104   0.000000
    10  H    2.573337   1.094073   1.754237   1.769889   0.000000
    11  C    2.863838   4.537748   5.165979   4.995278   4.934245
    12  H    2.447907   4.262402   4.904123   4.880502   4.442170
    13  C    4.231978   6.016353   6.592938   6.462945   6.410795
    14  H    4.864207   6.578391   7.258495   7.004301   6.834507
    15  H    4.390534   6.392742   6.831133   6.972208   6.774761
    16  C    6.277065   7.883179   8.387256   8.154356   8.460853
    17  C    6.907096   8.739157   9.219805   9.144358   9.207404
    18  H    6.878289   8.717844   9.284426   9.144617   9.068538
    19  H    7.962901   9.764787  10.234500  10.133345  10.261747
    20  H    6.606981   8.569911   8.944323   9.078862   9.038539
    21  O    5.042581   6.590874   7.141662   6.863041   7.153354
    22  O    7.043226   8.461569   8.943087   8.611522   9.133000
    23  O    9.739539  11.277568  11.708992  11.457869  11.938527
    24  H    8.850183  10.338622  10.783288  10.499836  11.010144
    25  H   10.342494  11.770954  12.242924  11.875314  12.441958
    26  O    6.335686   7.040080   7.501849   6.866920   7.890595
    27  H    6.836864   7.499835   7.848291   7.317204   8.417805
    28  H    6.440618   7.415789   7.893173   7.360335   8.209965
                   11         12         13         14         15
    11  C    0.000000
    12  H    1.086100   0.000000
    13  C    1.491430   2.172214   0.000000
    14  H    2.134424   2.509035   1.094884   0.000000
    15  H    2.131140   2.526863   1.094311   1.770014   0.000000
    16  C    3.640861   4.538177   2.414375   2.778136   2.678005
    17  C    4.293133   4.950395   2.830716   2.895333   2.662010
    18  H    4.183118   4.683827   2.704724   2.362265   2.648908
    19  H    5.345172   6.030949   3.895028   3.901516   3.734093
    20  H    4.272918   4.824875   2.894750   3.176674   2.319479
    21  O    2.379224   3.352771   1.426476   2.065211   2.074302
    22  O    4.526927   5.515811   3.495013   3.883929   3.822147
    23  O    7.195404   8.086385   5.934673   6.095017   5.970673
    24  H    6.316649   7.244122   5.119082   5.345073   5.239108
    25  H    7.757990   8.680641   6.546075   6.648506   6.700068
    26  O    4.576781   5.646602   4.479403   5.114096   5.133687
    27  H    5.283981   6.348501   5.173318   5.889393   5.698320
    28  H    4.353492   5.438933   3.954456   4.543162   4.549556
                   16         17         18         19         20
    16  C    0.000000
    17  C    1.495738   0.000000
    18  H    2.145689   1.090280   0.000000
    19  H    2.119894   1.086536   1.781785   0.000000
    20  H    2.127509   1.092204   1.762640   1.774710   0.000000
    21  O    1.323332   2.435108   2.711726   3.316834   2.789074
    22  O    1.214142   2.390972   3.147327   2.529362   3.046191
    23  O    3.558431   3.543143   4.310422   2.676894   4.140146
    24  H    2.708868   2.998804   3.815015   2.366487   3.654187
    25  H    4.159303   4.291899   4.957967   3.452832   4.995026
    26  O    3.559376   5.048267   5.608064   5.454045   5.484597
    27  H    4.075940   5.513911   6.201444   5.823754   5.861476
    28  H    2.666041   4.139973   4.743850   4.495819   4.631478
                   21         22         23         24         25
    21  O    0.000000
    22  O    2.165664   0.000000
    23  O    4.841090   2.857194   0.000000
    24  H    3.946307   1.898571   0.969107   0.000000
    25  H    5.381940   3.318566   0.958297   1.534265   0.000000
    26  O    3.243099   2.965301   5.370694   4.449125   5.526361
    27  H    3.917489   3.337251   5.426940   4.566614   5.570469
    28  H    2.592740   1.998034   4.486729   3.543428   4.707623
                   26         27         28
    26  O    0.000000
    27  H    0.958458   0.000000
    28  H    0.967723   1.529280   0.000000
 Stoichiometry    C8H16O4
 Framework group  C1[X(C8H16O4)]
 Deg. of freedom    78
 Full point group                 C1      NOp   1
 Largest Abelian subgroup         C1      NOp   1
 Largest concise Abelian subgroup C1      NOp   1
                         Standard orientation:                         
 ---------------------------------------------------------------------
 Center     Atomic      Atomic             Coordinates (Angstroms)
 Number     Number       Type             X           Y           Z
 ---------------------------------------------------------------------
      1          6           0       -3.314999    0.512600   -0.222440
      2          1           0       -3.541349    1.456090   -0.713340
      3          6           0       -1.902839    0.120710   -0.229360
      4          1           0       -1.180249    0.931490   -0.214010
      5          6           0       -4.306149   -0.161560    0.355280
      6          1           0       -4.073189   -1.075810    0.896800
      7          6           0       -5.741129    0.246880    0.336100
      8          1           0       -6.131249    0.361110    1.351420
      9          1           0       -5.883969    1.189460   -0.194380
     10          1           0       -6.355769   -0.515840   -0.151210
     11          6           0       -1.461809   -1.132260   -0.277540
     12          1           0       -2.159939   -1.961340   -0.347210
     13          6           0       -0.029399   -1.547240   -0.258690
     14          1           0        0.209471   -2.128140   -1.155500
     15          1           0        0.167141   -2.178540    0.613290
     16          6           0        2.103771   -0.441440   -0.022050
     17          6           0        2.759951   -1.772080    0.167840
     18          1           0        2.488331   -2.462670   -0.630920
     19          1           0        3.838301   -1.641210    0.192210
     20          1           0        2.431981   -2.210860    1.112730
     21          8           0        0.796081   -0.384630   -0.216800
     22          8           0        2.705951    0.612560    0.002540
     23          8           0        5.535051    0.422890    0.354360
     24          1           0        4.590841    0.602120    0.229810
     25          1           0        5.990131    1.024890   -0.236260
     26          8           0        0.777091    2.858090   -0.170970
     27          1           0        1.036151    3.452580    0.534800
     28          1           0        1.415571    2.131720   -0.136070
 ---------------------------------------------------------------------
 Rotational constants (GHZ):      1.6964287      0.2741540      0.2397286
 General basis read from cards:  (5D, 7F)
 There are   576 symmetry adapted cartesian basis functions of A   symmetry.
 There are   516 symmetry adapted basis functions of A   symmetry.
   516 basis functions,   788 primitive gaussians,   576 cartesian basis functions
    48 alpha electrons       48 beta electrons
       nuclear repulsion energy       686.7978238107 Hartrees.
 NAtoms=   28 NActive=   28 NUniq=   28 SFac= 1.00D+00 NAtFMM=   60 NAOKFM=F Big=F
 Integral buffers will be    131072 words long.
 Raffenetti 2 integral format.
 Two-electron integral symmetry is turned on.
 Nuclear repulsion after empirical dispersion term =      686.7836635284 Hartrees.
 Force inversion solution in PCM.
 ------------------------------------------------------------------------------
 Polarizable Continuum Model (PCM)
 =================================
 Model                : PCM (using non-symmetric T matrix).
 Atomic radii         : SMD-Coulomb.
 Polarization charges : Total charges.
 Charge compensation  : None.
 Solution method      : Matrix inversion.
 Cavity type          : VdW (van der Waals Surface) (Alpha=1.000).
 Cavity algorithm     : GePol (No added spheres)
                        Default sphere list used, NSphG=   28.
                        Lebedev-Laikov grids with approx.  5.0 points / Ang**2.
                        Smoothing algorithm: Karplus/York (Gamma=1.0000).
                        Polarization charges: spherical gaussians, with
                                              point-specific exponents (IZeta= 3).
                        Self-potential: point-specific (ISelfS= 7).
                        Self-field    : sphere-specific E.n sum rule (ISelfD= 2).
 1st derivatives      : Analytical E(r).r(x)/FMM algorithm (CHGder, D1EAlg=3).
                        Cavity 1st derivative terms included.
 2nd derivatives      : Analytical E(r).r(xy)/FMM algorithm (CHGder, D2EAlg=3).
                        Cavity 2nd derivative terms included.
 Solvent              : Toluene, Eps=   2.374100 Eps(inf)=   2.238315
 ------------------------------------------------------------------------------
 ------------------------------------------------------------------------------
 Atomic radii for non-electrostatic terms: SMD-CDS.
 ------------------------------------------------------------------------------
 Nuclear repulsion after PCM non-electrostatic terms =      686.7762051250 Hartrees.
 One-electron integrals computed using PRISM.
 NBasis=   516 RedAO= T EigKep=  1.68D-06  NBF=   516
 NBsUse=   516 1.00D-06 EigRej= -1.00D+00 NBFU=   516
 ExpMin= 3.17D-02 ExpMax= 2.70D+04 ExpMxC= 9.22D+02 IAcc=3 IRadAn=         5 AccDes= 0.00D+00
 Harris functional with IExCor= 4639 and IRadAn=       5 diagonalized for initial guess.
 HarFok:  IExCor= 4639 AccDes= 0.00D+00 IRadAn=         5 IDoV= 1 UseB2=F ITyADJ=14
 ICtDFT=  3500011 ScaDFX=  1.000000  1.000000  1.000000  1.000000
 FoFCou: FMM=F IPFlag=           0 FMFlag=      100000 FMFlg1=           0
         NFxFlg=           0 DoJE=T BraDBF=F KetDBF=T FulRan=T
         wScrn=  0.000000 ICntrl=     500 IOpCl=  0 I1Cent=   200000004 NGrid=           0
         NMat0=    1 NMatS0=      1 NMatT0=    0 NMatD0=    1 NMtDS0=    0 NMtDT0=    0
 Petite list used in FoFCou.
 Requested convergence on RMS density matrix=1.00D-08 within 128 cycles.
 Requested convergence on MAX density matrix=1.00D-06.
 Requested convergence on             energy=1.00D-06.
 No special actions if energy rises.
 Inv3:  Mode=1 IEnd=    15870000.
 Iteration    1 A*A^-1 deviation from unit magnitude is 4.33D-15 for   2284.
 Iteration    1 A*A^-1 deviation from orthogonality  is 2.61D-15 for   1151    269.
 Iteration    1 A^-1*A deviation from unit magnitude is 4.22D-15 for   2284.
 Iteration    1 A^-1*A deviation from orthogonality  is 8.46D-15 for    721    703.
 Error on total polarization charges =  0.02110
 SCF Done:  E(RwB97XD) =  -615.434919381     A.U. after   14 cycles
            NFock= 14  Conv=0.47D-08     -V/T= 2.0046
 SMD-CDS (non-electrostatic) energy       (kcal/mol) =      -4.68
 (included in total energy above)
 DoSCS=F DFT=T ScalE2(SS,OS)=  1.000000  1.000000
 Range of M.O.s used for correlation:     1   516
 NBasis=   516 NAE=    48 NBE=    48 NFC=     0 NFV=     0
 NROrb=    516 NOA=    48 NOB=    48 NVA=   468 NVB=   468

 **** Warning!!: The largest alpha MO coefficient is  0.18357649D+03

 Symmetrizing basis deriv contribution to polar:
 IMax=3 JMax=2 DiffMx= 0.00D+00
 G2DrvN: will do    29 centers at a time, making    1 passes.
 Calling FoFCou, ICntrl=  3107 FMM=F I1Cent=   0 AccDes= 0.00D+00.
 NEqPCM:  Using equilibrium solvation (IEInf=0, Eps=   2.3741, EpsInf=   2.2383)
 G2PCM: DoFxE=T DoFxN=T DoGrad=T DoDP/DQ/DG/TGxP=FFFF NFrqRd=   0 IEInf=0 SqF1=F DoCFld=F IF1Alg=4.
 End of G2Drv F.D. properties file   721 does not exist.
 End of G2Drv F.D. properties file   722 does not exist.
 End of G2Drv F.D. properties file   788 does not exist.
          IDoAtm=1111111111111111111111111111
 NEqPCM:  Using equilibrium solvation (IEInf=0, Eps=   2.3741, EpsInf=   2.2383)
          Differentiating once with respect to electric field.
                with respect to dipole field.
          Differentiating once with respect to nuclear coordinates.
          There are    87 degrees of freedom in the 1st order CPHF.  IDoFFX=6 NUNeed=     3.
     84 vectors produced by pass  0 Test12= 2.58D-14 1.15D-09 XBig12= 5.92D+01 4.02D+00.
 AX will form    84 AO Fock derivatives at one time.
     84 vectors produced by pass  1 Test12= 2.58D-14 1.15D-09 XBig12= 4.65D+00 3.12D-01.
     84 vectors produced by pass  2 Test12= 2.58D-14 1.15D-09 XBig12= 1.52D-01 6.18D-02.
     84 vectors produced by pass  3 Test12= 2.58D-14 1.15D-09 XBig12= 1.84D-03 3.95D-03.
     84 vectors produced by pass  4 Test12= 2.58D-14 1.15D-09 XBig12= 1.56D-05 2.65D-04.
     84 vectors produced by pass  5 Test12= 2.58D-14 1.15D-09 XBig12= 1.03D-07 2.47D-05.
     83 vectors produced by pass  6 Test12= 2.58D-14 1.15D-09 XBig12= 6.88D-10 1.96D-06.
     28 vectors produced by pass  7 Test12= 2.58D-14 1.15D-09 XBig12= 4.80D-12 1.73D-07.
     17 vectors produced by pass  8 Test12= 2.58D-14 1.15D-09 XBig12= 3.56D-13 7.26D-08.
     16 vectors produced by pass  9 Test12= 2.58D-14 1.15D-09 XBig12= 9.41D-15 1.23D-08.
     16 vectors produced by pass 10 Test12= 2.58D-14 1.15D-09 XBig12= 3.76D-15 9.24D-09.
     16 vectors produced by pass 11 Test12= 2.58D-14 1.15D-09 XBig12= 7.09D-15 8.50D-09.
     16 vectors produced by pass 12 Test12= 2.58D-14 1.15D-09 XBig12= 8.68D-15 1.21D-08.
     15 vectors produced by pass 13 Test12= 2.58D-14 1.15D-09 XBig12= 8.37D-15 8.92D-09.
     13 vectors produced by pass 14 Test12= 2.58D-14 1.15D-09 XBig12= 6.72D-15 7.50D-09.
     12 vectors produced by pass 15 Test12= 2.58D-14 1.15D-09 XBig12= 6.66D-15 7.27D-09.
     10 vectors produced by pass 16 Test12= 2.58D-14 1.15D-09 XBig12= 6.10D-15 8.03D-09.
      7 vectors produced by pass 17 Test12= 2.58D-14 1.15D-09 XBig12= 4.21D-15 6.23D-09.
      6 vectors produced by pass 18 Test12= 2.58D-14 1.15D-09 XBig12= 3.28D-15 5.29D-09.
      6 vectors produced by pass 19 Test12= 2.58D-14 1.15D-09 XBig12= 4.05D-15 4.95D-09.
      6 vectors produced by pass 20 Test12= 2.58D-14 1.15D-09 XBig12= 3.90D-15 5.64D-09.
      6 vectors produced by pass 21 Test12= 2.58D-14 1.15D-09 XBig12= 2.46D-15 4.89D-09.
      6 vectors produced by pass 22 Test12= 2.58D-14 1.15D-09 XBig12= 1.86D-15 3.66D-09.
      6 vectors produced by pass 23 Test12= 2.58D-14 1.15D-09 XBig12= 2.11D-15 4.19D-09.
      2 vectors produced by pass 24 Test12= 2.58D-14 1.15D-09 XBig12= 5.90D-16 2.05D-09.
 InvSVY:  IOpt=1 It=  1 EMax= 5.33D-15
 Solved reduced A of dimension   791 with    87 vectors.
 Isotropic polarizability for W=    0.000000      142.48 Bohr**3.
 End of Minotr F.D. properties file   721 does not exist.
 End of Minotr F.D. properties file   722 does not exist.
 End of Minotr F.D. properties file   788 does not exist.

 **********************************************************************

            Population analysis using the SCF density.

 **********************************************************************

 Orbital symmetries:
       Occupied  (A) (A) (A) (A) (A) (A) (A) (A) (A) (A) (A) (A)
                 (A) (A) (A) (A) (A) (A) (A) (A) (A) (A) (A) (A)
                 (A) (A) (A) (A) (A) (A) (A) (A) (A) (A) (A) (A)
                 (A) (A) (A) (A) (A) (A) (A) (A) (A) (A) (A) (A)
       Virtual   (A) (A) (A) (A) (A) (A) (A) (A) (A) (A) (A) (A)
                 (A) (A) (A) (A) (A) (A) (A) (A) (A) (A) (A) (A)
                 (A) (A) (A) (A) (A) (A) (A) (A) (A) (A) (A) (A)
                 (A) (A) (A) (A) (A) (A) (A) (A) (A) (A) (A) (A)
                 (A) (A) (A) (A) (A) (A) (A) (A) (A) (A) (A) (A)
                 (A) (A) (A) (A) (A) (A) (A) (A) (A) (A) (A) (A)
                 (A) (A) (A) (A) (A) (A) (A) (A) (A) (A) (A) (A)
                 (A) (A) (A) (A) (A) (A) (A) (A) (A) (A) (A) (A)
                 (A) (A) (A) (A) (A) (A) (A) (A) (A) (A) (A) (A)
                 (A) (A) (A) (A) (A) (A) (A) (A) (A) (A) (A) (A)
                 (A) (A) (A) (A) (A) (A) (A) (A) (A) (A) (A) (A)
                 (A) (A) (A) (A) (A) (A) (A) (A) (A) (A) (A) (A)
                 (A) (A) (A) (A) (A) (A) (A) (A) (A) (A) (A) (A)
                 (A) (A) (A) (A) (A) (A) (A) (A) (A) (A) (A) (A)
                 (A) (A) (A) (A) (A) (A) (A) (A) (A) (A) (A) (A)
                 (A) (A) (A) (A) (A) (A) (A) (A) (A) (A) (A) (A)
                 (A) (A) (A) (A) (A) (A) (A) (A) (A) (A) (A) (A)
                 (A) (A) (A) (A) (A) (A) (A) (A) (A) (A) (A) (A)
                 (A) (A) (A) (A) (A) (A) (A) (A) (A) (A) (A) (A)
                 (A) (A) (A) (A) (A) (A) (A) (A) (A) (A) (A) (A)
                 (A) (A) (A) (A) (A) (A) (A) (A) (A) (A) (A) (A)
                 (A) (A) (A) (A) (A) (A) (A) (A) (A) (A) (A) (A)
                 (A) (A) (A) (A) (A) (A) (A) (A) (A) (A) (A) (A)
                 (A) (A) (A) (A) (A) (A) (A) (A) (A) (A) (A) (A)
                 (A) (A) (A) (A) (A) (A) (A) (A) (A) (A) (A) (A)
                 (A) (A) (A) (A) (A) (A) (A) (A) (A) (A) (A) (A)
                 (A) (A) (A) (A) (A) (A) (A) (A) (A) (A) (A) (A)
                 (A) (A) (A) (A) (A) (A) (A) (A) (A) (A) (A) (A)
                 (A) (A) (A) (A) (A) (A) (A) (A) (A) (A) (A) (A)
                 (A) (A) (A) (A) (A) (A) (A) (A) (A) (A) (A) (A)
                 (A) (A) (A) (A) (A) (A) (A) (A) (A) (A) (A) (A)
                 (A) (A) (A) (A) (A) (A) (A) (A) (A) (A) (A) (A)
                 (A) (A) (A) (A) (A) (A) (A) (A) (A) (A) (A) (A)
                 (A) (A) (A) (A) (A) (A) (A) (A) (A) (A) (A) (A)
                 (A) (A) (A) (A) (A) (A) (A) (A) (A) (A) (A) (A)
                 (A) (A) (A) (A) (A) (A) (A) (A) (A) (A) (A) (A)
                 (A) (A) (A) (A) (A) (A) (A) (A) (A) (A) (A) (A)
                 (A) (A) (A) (A) (A) (A) (A) (A) (A) (A) (A) (A)
                 (A) (A) (A) (A) (A) (A) (A) (A) (A) (A) (A) (A)
 The electronic state is 1-A.
 Alpha  occ. eigenvalues --  -19.31340 -19.25559 -19.22962 -19.22620 -10.43986
 Alpha  occ. eigenvalues --  -10.35992 -10.30253 -10.28988 -10.28436 -10.28385
 Alpha  occ. eigenvalues --  -10.27874 -10.27360  -1.23462  -1.14447  -1.09189
 Alpha  occ. eigenvalues --   -1.08826  -0.92284  -0.88658  -0.86327  -0.82761
 Alpha  occ. eigenvalues --   -0.76264  -0.70767  -0.66887  -0.62468  -0.61265
 Alpha  occ. eigenvalues --   -0.60867  -0.60648  -0.59092  -0.58460  -0.55655
 Alpha  occ. eigenvalues --   -0.53605  -0.53218  -0.50526  -0.49811  -0.49400
 Alpha  occ. eigenvalues --   -0.48674  -0.47571  -0.46306  -0.45728  -0.44665
 Alpha  occ. eigenvalues --   -0.43474  -0.42425  -0.40858  -0.38868  -0.38447
 Alpha  occ. eigenvalues --   -0.38104  -0.38009  -0.30358
 Alpha virt. eigenvalues --    0.04219   0.04347   0.05054   0.05949   0.05970
 Alpha virt. eigenvalues --    0.06777   0.07131   0.07580   0.08422   0.08953
 Alpha virt. eigenvalues --    0.09237   0.09622   0.09938   0.10596   0.10840
 Alpha virt. eigenvalues --    0.11389   0.11646   0.12360   0.13011   0.13371
 Alpha virt. eigenvalues --    0.13458   0.14320   0.14564   0.15264   0.15345
 Alpha virt. eigenvalues --    0.16201   0.16399   0.16880   0.17188   0.17779
 Alpha virt. eigenvalues --    0.18107   0.18349   0.18878   0.19242   0.19553
 Alpha virt. eigenvalues --    0.19981   0.20189   0.21023   0.21710   0.21973
 Alpha virt. eigenvalues --    0.22536   0.22721   0.23248   0.23396   0.24462
 Alpha virt. eigenvalues --    0.24636   0.24806   0.25143   0.25386   0.25955
 Alpha virt. eigenvalues --    0.26416   0.27086   0.27472   0.27747   0.28287
 Alpha virt. eigenvalues --    0.29165   0.29426   0.29694   0.30691   0.31173
 Alpha virt. eigenvalues --    0.31693   0.32219   0.32564   0.33337   0.33574
 Alpha virt. eigenvalues --    0.34475   0.35728   0.36644   0.38038   0.38411
 Alpha virt. eigenvalues --    0.38712   0.39294   0.40233   0.40256   0.40978
 Alpha virt. eigenvalues --    0.41679   0.42163   0.42605   0.43691   0.44179
 Alpha virt. eigenvalues --    0.45217   0.45536   0.47166   0.47623   0.48321
 Alpha virt. eigenvalues --    0.49323   0.49756   0.50403   0.51015   0.51608
 Alpha virt. eigenvalues --    0.51917   0.53289   0.53957   0.55615   0.56273
 Alpha virt. eigenvalues --    0.57529   0.57720   0.58274   0.58564   0.59706
 Alpha virt. eigenvalues --    0.59911   0.60096   0.60508   0.61458   0.61736
 Alpha virt. eigenvalues --    0.62471   0.62869   0.63234   0.64759   0.65204
 Alpha virt. eigenvalues --    0.65313   0.66085   0.66337   0.67610   0.68712
 Alpha virt. eigenvalues --    0.69617   0.70041   0.70382   0.71182   0.71754
 Alpha virt. eigenvalues --    0.72793   0.73744   0.74521   0.74887   0.75646
 Alpha virt. eigenvalues --    0.77423   0.78408   0.78609   0.78947   0.80130
 Alpha virt. eigenvalues --    0.81005   0.81997   0.82271   0.83624   0.84405
 Alpha virt. eigenvalues --    0.85879   0.86044   0.88066   0.89985   0.90692
 Alpha virt. eigenvalues --    0.91557   0.93008   0.96639   0.98012   0.99120
 Alpha virt. eigenvalues --    1.00131   1.01439   1.02718   1.07114   1.08203
 Alpha virt. eigenvalues --    1.09457   1.11075   1.11678   1.12649   1.13403
 Alpha virt. eigenvalues --    1.14272   1.16550   1.17009   1.18015   1.19703
 Alpha virt. eigenvalues --    1.21185   1.23138   1.23253   1.26110   1.26870
 Alpha virt. eigenvalues --    1.28189   1.29101   1.29423   1.30323   1.31276
 Alpha virt. eigenvalues --    1.31368   1.33804   1.34578   1.35680   1.37120
 Alpha virt. eigenvalues --    1.38663   1.39021   1.40497   1.43437   1.45304
 Alpha virt. eigenvalues --    1.47923   1.48471   1.50315   1.51641   1.56568
 Alpha virt. eigenvalues --    1.57997   1.58968   1.60292   1.61877   1.62890
 Alpha virt. eigenvalues --    1.63052   1.63711   1.63964   1.64713   1.65484
 Alpha virt. eigenvalues --    1.66689   1.67068   1.67578   1.68645   1.69776
 Alpha virt. eigenvalues --    1.70733   1.71917   1.73847   1.75264   1.76956
 Alpha virt. eigenvalues --    1.77519   1.80859   1.81533   1.82351   1.83713
 Alpha virt. eigenvalues --    1.84334   1.85031   1.86005   1.90390   1.90676
 Alpha virt. eigenvalues --    1.90704   1.92424   1.94208   1.95182   1.96946
 Alpha virt. eigenvalues --    1.97940   1.98616   2.00276   2.00691   2.02303
 Alpha virt. eigenvalues --    2.04467   2.06377   2.07506   2.08591   2.10114
 Alpha virt. eigenvalues --    2.11901   2.14160   2.16183   2.16803   2.19376
 Alpha virt. eigenvalues --    2.19923   2.21400   2.22158   2.23397   2.25716
 Alpha virt. eigenvalues --    2.27034   2.28623   2.29277   2.30934   2.31678
 Alpha virt. eigenvalues --    2.33937   2.35266   2.36487   2.38243   2.38763
 Alpha virt. eigenvalues --    2.39851   2.40325   2.43235   2.43443   2.45079
 Alpha virt. eigenvalues --    2.45552   2.45912   2.46601   2.48495   2.49682
 Alpha virt. eigenvalues --    2.50165   2.52742   2.53943   2.54702   2.55923
 Alpha virt. eigenvalues --    2.56631   2.57869   2.58432   2.59486   2.62732
 Alpha virt. eigenvalues --    2.62952   2.63755   2.66465   2.67349   2.67944
 Alpha virt. eigenvalues --    2.70484   2.71320   2.71838   2.72989   2.73516
 Alpha virt. eigenvalues --    2.75975   2.76205   2.77352   2.77566   2.79361
 Alpha virt. eigenvalues --    2.81907   2.82414   2.82936   2.83906   2.84536
 Alpha virt. eigenvalues --    2.85213   2.89295   2.89996   2.91555   2.92522
 Alpha virt. eigenvalues --    2.93130   2.93999   2.94418   2.96941   2.98779
 Alpha virt. eigenvalues --    2.99557   3.00764   3.02292   3.02544   3.03853
 Alpha virt. eigenvalues --    3.04750   3.07022   3.08414   3.10161   3.12391
 Alpha virt. eigenvalues --    3.14259   3.14540   3.16885   3.17462   3.18421
 Alpha virt. eigenvalues --    3.19094   3.19881   3.20946   3.21251   3.21597
 Alpha virt. eigenvalues --    3.23579   3.23876   3.24057   3.25358   3.27127
 Alpha virt. eigenvalues --    3.28460   3.29142   3.29608   3.30242   3.31356
 Alpha virt. eigenvalues --    3.33618   3.34286   3.35948   3.36660   3.37268
 Alpha virt. eigenvalues --    3.38679   3.39966   3.41319   3.43037   3.43972
 Alpha virt. eigenvalues --    3.45139   3.48232   3.48676   3.52141   3.52651
 Alpha virt. eigenvalues --    3.55156   3.56442   3.56996   3.58554   3.63083
 Alpha virt. eigenvalues --    3.65100   3.65873   3.68136   3.69815   3.70151
 Alpha virt. eigenvalues --    3.72615   3.75065   3.77797   3.79119   3.80699
 Alpha virt. eigenvalues --    3.83202   3.83760   3.86291   3.86698   3.88548
 Alpha virt. eigenvalues --    3.89341   3.91642   3.94668   3.97679   3.98854
 Alpha virt. eigenvalues --    4.00332   4.07332   4.08391   4.09152   4.11077
 Alpha virt. eigenvalues --    4.11977   4.15119   4.15694   4.23020   4.26293
 Alpha virt. eigenvalues --    4.29023   4.33402   4.36930   4.44850   4.45500
 Alpha virt. eigenvalues --    4.47366   4.47883   4.48509   4.50967   4.53901
 Alpha virt. eigenvalues --    4.57101   4.59032   4.60829   4.66226   4.66919
 Alpha virt. eigenvalues --    4.73219   4.76288   4.77851   4.81558   4.82464
 Alpha virt. eigenvalues --    4.88660   4.93013   4.97609   5.07364   5.12288
 Alpha virt. eigenvalues --    5.19844   5.20724   5.21128   5.24182   5.26874
 Alpha virt. eigenvalues --    5.29305   5.30896   5.31463   5.33040   5.36712
 Alpha virt. eigenvalues --    5.49270   5.50263   5.50684   5.52150   5.53600
 Alpha virt. eigenvalues --    5.54372   5.59187   5.59585   5.69596   5.93493
 Alpha virt. eigenvalues --    5.99209   5.99621   6.13802   6.15990   6.18388
 Alpha virt. eigenvalues --    6.26437   6.34207   6.35431   6.39425   6.41569
 Alpha virt. eigenvalues --    6.43970   6.45571   6.50147   6.51232   6.54023
 Alpha virt. eigenvalues --    6.54537   6.55480   6.72739   6.74375   6.90739
 Alpha virt. eigenvalues --    6.91877   6.97208   6.98251   7.06849   7.07338
 Alpha virt. eigenvalues --    7.15810   7.18804   7.20469   7.24699   7.36054
 Alpha virt. eigenvalues --    7.57484  22.46923  22.50059  22.50574  22.54304
 Alpha virt. eigenvalues --   22.66345  22.95538  23.04672  23.52283  43.75115
 Alpha virt. eigenvalues --   43.75722  44.13515  44.46327
          Condensed to atoms (all electrons):
               1          2          3          4          5          6
     1  C    6.330751   0.423516  -1.163490   0.045484  -0.045587   0.014993
     2  H    0.423516   0.496075  -0.058063  -0.003832  -0.001735   0.003333
     3  C   -1.163490  -0.058063   7.970235   0.175929   0.342148  -0.045880
     4  H    0.045484  -0.003832   0.175929   0.510448  -0.007151   0.000085
     5  C   -0.045587  -0.001735   0.342148  -0.007151   5.778623   0.379674
     6  H    0.014993   0.003333  -0.045880   0.000085   0.379674   0.509210
     7  C    0.009754  -0.005594   0.009533   0.000691   0.030912  -0.019044
     8  H   -0.015066   0.000214  -0.000382   0.000001  -0.065593  -0.002479
     9  H    0.097726   0.002361  -0.018582  -0.000020  -0.141017   0.002923
    10  H   -0.070203  -0.000255   0.023319   0.000021   0.031407  -0.001578
    11  C    0.611067  -0.006430  -1.161127   0.107516  -0.183282   0.029830
    12  H    0.021685   0.000045  -0.046909   0.005651   0.003926   0.000195
    13  C   -0.164225  -0.003323   0.384357  -0.014467   0.020738  -0.016994
    14  H    0.006283   0.000017  -0.014170   0.000678   0.000535   0.000014
    15  H    0.004176  -0.000002  -0.000416  -0.000087  -0.001884  -0.000004
    16  C    0.015639  -0.000693  -0.095843   0.002733   0.004617  -0.000232
    17  C   -0.002893  -0.000067  -0.014739  -0.001376   0.001194  -0.000033
    18  H    0.001875   0.000000  -0.001758  -0.000002  -0.000430   0.000000
    19  H   -0.000385   0.000000  -0.000242   0.000003   0.000032   0.000000
    20  H   -0.000519   0.000000  -0.001656  -0.000014   0.000400   0.000000
    21  O   -0.001485  -0.000466  -0.076623  -0.006185   0.005203  -0.000422
    22  O   -0.009046  -0.000012   0.014727  -0.000600   0.000712  -0.000005
    23  O   -0.000027   0.000000  -0.000122   0.000000   0.000004   0.000000
    24  H    0.000130   0.000000   0.000206  -0.000006   0.000001   0.000000
    25  H    0.000015   0.000000   0.000014   0.000000  -0.000001   0.000000
    26  O   -0.030098   0.000365   0.159985  -0.051709   0.000184  -0.000020
    27  H    0.001913  -0.000001  -0.006097   0.000354   0.000629   0.000000
    28  H   -0.002064  -0.000012  -0.010974   0.002930   0.001360   0.000000
               7          8          9         10         11         12
     1  C    0.009754  -0.015066   0.097726  -0.070203   0.611067   0.021685
     2  H   -0.005594   0.000214   0.002361  -0.000255  -0.006430   0.000045
     3  C    0.009533  -0.000382  -0.018582   0.023319  -1.161127  -0.046909
     4  H    0.000691   0.000001  -0.000020   0.000021   0.107516   0.005651
     5  C    0.030912  -0.065593  -0.141017   0.031407  -0.183282   0.003926
     6  H   -0.019044  -0.002479   0.002923  -0.001578   0.029830   0.000195
     7  C    5.033103   0.450019   0.437280   0.395770   0.035172  -0.003052
     8  H    0.450019   0.542814  -0.022412  -0.034275   0.006739   0.000034
     9  H    0.437280  -0.022412   0.526695  -0.021442   0.000000   0.000003
    10  H    0.395770  -0.034275  -0.021442   0.542414  -0.007765  -0.000063
    11  C    0.035172   0.006739   0.000000  -0.007765   6.738259   0.430025
    12  H   -0.003052   0.000034   0.000003  -0.000063   0.430025   0.487552
    13  C   -0.005576  -0.001719   0.000386   0.001551  -0.392573  -0.060073
    14  H   -0.000424   0.000000   0.000000  -0.000001  -0.022420  -0.001008
    15  H    0.000631  -0.000001   0.000000   0.000001  -0.023696  -0.002768
    16  C   -0.001013  -0.000010  -0.000030   0.000012   0.039085  -0.001440
    17  C    0.000369   0.000007  -0.000005  -0.000004   0.042706  -0.001120
    18  H   -0.000031   0.000000   0.000000   0.000000  -0.010537  -0.000007
    19  H    0.000002   0.000000   0.000000   0.000000   0.002632   0.000000
    20  H    0.000013   0.000000   0.000000   0.000000   0.012176  -0.000011
    21  O    0.001210   0.000002  -0.000010   0.000002  -0.008964   0.001408
    22  O    0.000169   0.000000   0.000000   0.000000  -0.014516  -0.000127
    23  O    0.000001   0.000000   0.000000   0.000000  -0.000724   0.000000
    24  H    0.000000   0.000000   0.000000   0.000000   0.001242   0.000000
    25  H    0.000000   0.000000   0.000000   0.000000   0.000047   0.000000
    26  O   -0.000647  -0.000002  -0.000004   0.000000  -0.113473  -0.000445
    27  H   -0.000011   0.000000   0.000000   0.000000   0.004757   0.000001
    28  H    0.000087   0.000000   0.000000   0.000000   0.009189   0.000017
              13         14         15         16         17         18
     1  C   -0.164225   0.006283   0.004176   0.015639  -0.002893   0.001875
     2  H   -0.003323   0.000017  -0.000002  -0.000693  -0.000067   0.000000
     3  C    0.384357  -0.014170  -0.000416  -0.095843  -0.014739  -0.001758
     4  H   -0.014467   0.000678  -0.000087   0.002733  -0.001376  -0.000002
     5  C    0.020738   0.000535  -0.001884   0.004617   0.001194  -0.000430
     6  H   -0.016994   0.000014  -0.000004  -0.000232  -0.000033   0.000000
     7  C   -0.005576  -0.000424   0.000631  -0.001013   0.000369  -0.000031
     8  H   -0.001719   0.000000  -0.000001  -0.000010   0.000007   0.000000
     9  H    0.000386   0.000000   0.000000  -0.000030  -0.000005   0.000000
    10  H    0.001551  -0.000001   0.000001   0.000012  -0.000004   0.000000
    11  C   -0.392573  -0.022420  -0.023696   0.039085   0.042706  -0.010537
    12  H   -0.060073  -0.001008  -0.002768  -0.001440  -0.001120  -0.000007
    13  C    5.473440   0.450661   0.390539  -0.113407  -0.063559   0.017185
    14  H    0.450661   0.541087  -0.046609  -0.008491  -0.015374   0.001344
    15  H    0.390539  -0.046609   0.558850  -0.004891   0.017045  -0.005275
    16  C   -0.113407  -0.008491  -0.004891   5.303075  -0.126561  -0.053971
    17  C   -0.063559  -0.015374   0.017045  -0.126561   5.377684   0.419774
    18  H    0.017185   0.001344  -0.005275  -0.053971   0.419774   0.501550
    19  H    0.001582  -0.000039   0.000315  -0.044518   0.421687  -0.014971
    20  H   -0.038739   0.000221  -0.000774  -0.057460   0.459132  -0.030266
    21  O    0.166762  -0.052540  -0.039942   0.234973  -0.000591   0.002642
    22  O    0.047380  -0.000961   0.000375   0.280088   0.009782   0.000912
    23  O    0.002862  -0.000023  -0.000022  -0.014391   0.008137  -0.000140
    24  H   -0.001722   0.000005   0.000014   0.021769  -0.020752  -0.000228
    25  H   -0.000276   0.000000   0.000000   0.004388  -0.004574  -0.000002
    26  O    0.014311  -0.000365  -0.000179  -0.013462   0.005861   0.000038
    27  H   -0.002169   0.000002  -0.000003   0.003522  -0.000185   0.000000
    28  H   -0.003851  -0.000038  -0.000023  -0.004091   0.003877  -0.000030
              19         20         21         22         23         24
     1  C   -0.000385  -0.000519  -0.001485  -0.009046  -0.000027   0.000130
     2  H    0.000000   0.000000  -0.000466  -0.000012   0.000000   0.000000
     3  C   -0.000242  -0.001656  -0.076623   0.014727  -0.000122   0.000206
     4  H    0.000003  -0.000014  -0.006185  -0.000600   0.000000  -0.000006
     5  C    0.000032   0.000400   0.005203   0.000712   0.000004   0.000001
     6  H    0.000000   0.000000  -0.000422  -0.000005   0.000000   0.000000
     7  C    0.000002   0.000013   0.001210   0.000169   0.000001   0.000000
     8  H    0.000000   0.000000   0.000002   0.000000   0.000000   0.000000
     9  H    0.000000   0.000000  -0.000010   0.000000   0.000000   0.000000
    10  H    0.000000   0.000000   0.000002   0.000000   0.000000   0.000000
    11  C    0.002632   0.012176  -0.008964  -0.014516  -0.000724   0.001242
    12  H    0.000000  -0.000011   0.001408  -0.000127   0.000000   0.000000
    13  C    0.001582  -0.038739   0.166762   0.047380   0.002862  -0.001722
    14  H   -0.000039   0.000221  -0.052540  -0.000961  -0.000023   0.000005
    15  H    0.000315  -0.000774  -0.039942   0.000375  -0.000022   0.000014
    16  C   -0.044518  -0.057460   0.234973   0.280088  -0.014391   0.021769
    17  C    0.421687   0.459132  -0.000591   0.009782   0.008137  -0.020752
    18  H   -0.014971  -0.030266   0.002642   0.000912  -0.000140  -0.000228
    19  H    0.456367  -0.007504   0.006496  -0.011859  -0.002032  -0.002089
    20  H   -0.007504   0.468428   0.005099  -0.000544   0.000307  -0.000277
    21  O    0.006496   0.005099   8.168956  -0.067057  -0.002465   0.004004
    22  O   -0.011859  -0.000544  -0.067057   8.318696  -0.015127   0.001366
    23  O   -0.002032   0.000307  -0.002465  -0.015127   8.140846   0.298671
    24  H   -0.002089  -0.000277   0.004004   0.001366   0.298671   0.367033
    25  H   -0.000648  -0.000009  -0.000019   0.000765   0.297961  -0.013771
    26  O   -0.000077   0.000067  -0.002809  -0.023975  -0.000221  -0.000352
    27  H    0.000002  -0.000001  -0.003881   0.002017   0.000054  -0.000032
    28  H    0.000043   0.000032  -0.007416   0.015329  -0.000475   0.000025
              25         26         27         28
     1  C    0.000015  -0.030098   0.001913  -0.002064
     2  H    0.000000   0.000365  -0.000001  -0.000012
     3  C    0.000014   0.159985  -0.006097  -0.010974
     4  H    0.000000  -0.051709   0.000354   0.002930
     5  C   -0.000001   0.000184   0.000629   0.001360
     6  H    0.000000  -0.000020   0.000000   0.000000
     7  C    0.000000  -0.000647  -0.000011   0.000087
     8  H    0.000000  -0.000002   0.000000   0.000000
     9  H    0.000000  -0.000004   0.000000   0.000000
    10  H    0.000000   0.000000   0.000000   0.000000
    11  C    0.000047  -0.113473   0.004757   0.009189
    12  H    0.000000  -0.000445   0.000001   0.000017
    13  C   -0.000276   0.014311  -0.002169  -0.003851
    14  H    0.000000  -0.000365   0.000002  -0.000038
    15  H    0.000000  -0.000179  -0.000003  -0.000023
    16  C    0.004388  -0.013462   0.003522  -0.004091
    17  C   -0.004574   0.005861  -0.000185   0.003877
    18  H   -0.000002   0.000038   0.000000  -0.000030
    19  H   -0.000648  -0.000077   0.000002   0.000043
    20  H   -0.000009   0.000067  -0.000001   0.000032
    21  O   -0.000019  -0.002809  -0.003881  -0.007416
    22  O    0.000765  -0.023975   0.002017   0.015329
    23  O    0.297961  -0.000221   0.000054  -0.000475
    24  H   -0.013771  -0.000352  -0.000032   0.000025
    25  H    0.374084   0.000016   0.000001  -0.000043
    26  O    0.000016   8.178222   0.295740   0.296154
    27  H    0.000001   0.295740   0.378145  -0.013700
    28  H   -0.000043   0.296154  -0.013700   0.367228
 Mulliken charges:
               1
     1  C   -0.079918
     2  H    0.154559
     3  C   -0.363380
     4  H    0.232922
     5  C   -0.155618
     6  H    0.146433
     7  C   -0.369324
     8  H    0.142110
     9  H    0.136148
    10  H    0.141089
    11  C   -0.124933
    12  H    0.166482
    13  C   -0.089082
    14  H    0.161617
    15  H    0.154629
    16  C    0.630603
    17  C   -0.515423
    18  H    0.172330
    19  H    0.195205
    20  H    0.191900
    21  O   -0.325881
    22  O   -0.548489
    23  O   -0.713076
    24  H    0.344766
    25  H    0.342052
    26  O   -0.713106
    27  H    0.338941
    28  H    0.346445
 Sum of Mulliken charges =   0.00000
 Mulliken charges with hydrogens summed into heavy atoms:
               1
     1  C    0.074642
     3  C   -0.130458
     5  C   -0.009185
     7  C    0.050023
    11  C    0.041550
    13  C    0.227163
    16  C    0.630603
    17  C    0.044011
    21  O   -0.325881
    22  O   -0.548489
    23  O   -0.026258
    26  O   -0.027720
 APT charges:
               1
     1  C   -0.056190
     2  H    0.018587
     3  C    0.031052
     4  H    0.088088
     5  C    0.043104
     6  H    0.016137
     7  C    0.034240
     8  H   -0.022276
     9  H   -0.012731
    10  H   -0.027906
    11  C   -0.076860
    12  H    0.031583
    13  C    0.582184
    14  H   -0.049805
    15  H   -0.051215
    16  C    1.541661
    17  C   -0.159108
    18  H    0.053672
    19  H    0.067650
    20  H    0.059901
    21  O   -1.062027
    22  O   -1.097051
    23  O   -0.715716
    24  H    0.463812
    25  H    0.287173
    26  O   -0.676307
    27  H    0.279185
    28  H    0.409161
 Sum of APT charges =   0.00000
 APT charges with hydrogens summed into heavy atoms:
               1
     1  C   -0.037603
     3  C    0.119140
     5  C    0.059242
     7  C   -0.028672
    11  C   -0.045277
    13  C    0.481163
    16  C    1.541661
    17  C    0.022115
    21  O   -1.062027
    22  O   -1.097051
    23  O    0.035269
    26  O    0.012039
 Electronic spatial extent (au):  <R**2>=           4478.7688
 Charge=              0.0000 electrons
 Dipole moment (field-independent basis, Debye):
    X=             -2.2172    Y=             -4.5136    Z=              0.1545  Tot=              5.0311
 Quadrupole moment (field-independent basis, Debye-Ang):
   XX=            -81.3354   YY=            -66.2272   ZZ=            -75.3849
   XY=              0.9689   XZ=             -7.4806   YZ=              3.0077
 Traceless Quadrupole moment (field-independent basis, Debye-Ang):
   XX=             -7.0195   YY=              8.0886   ZZ=             -1.0691
   XY=              0.9689   XZ=             -7.4806   YZ=              3.0077
 Octapole moment (field-independent basis, Debye-Ang**2):
  XXX=            -85.2630  YYY=              0.4309  ZZZ=              1.7452  XYY=             30.7574
  XXY=             26.3348  XXZ=            -44.0279  XZZ=             15.0572  YZZ=              0.2322
  YYZ=             15.2761  XYZ=              1.8286
 Hexadecapole moment (field-independent basis, Debye-Ang**3):
 XXXX=          -5075.0357 YYYY=           -736.9011 ZZZZ=           -130.4517 XXXY=            217.7087
 XXXZ=           -331.0928 YYYX=             44.1971 YYYZ=             64.8490 ZZZX=             -9.2369
 ZZZY=              1.3594 XXYY=           -846.7554 XXZZ=           -866.1187 YYZZ=           -146.7755
 XXYZ=            -52.0028 YYXZ=             19.6335 ZZXY=              0.2172
 N-N= 6.867762051250D+02 E-N=-2.813606852050D+03  KE= 6.125875561939D+02
  Exact polarizability: 187.645  -5.186 139.299  -7.241  -2.089 100.505
 Approx polarizability: 142.693   1.076 133.442  -5.663  -2.616 102.745
 D2PCM: PCM CHGder 2nd derivatives, FixD1E=F FixD2E=F DoIter=F DoCFld=F I1PDM=0
 Calling FoFJK, ICntrl=    100127 FMM=F ISym2X=0 I1Cent= 0 IOpClX= 0 NMat=1 NMatS=1 NMatT=0.
 Full mass-weighted force constant matrix:
 Low frequencies ---  -11.0395   -6.5393   -0.0005    0.0005    0.0006   10.1078
 Low frequencies ---   25.3834   46.9968   48.6646
 Diagonal vibrational polarizability:
      308.0571170     312.4136844     356.0520829
 Harmonic frequencies (cm**-1), IR intensities (KM/Mole), Raman scattering
 activities (A**4/AMU), depolarization ratios for plane and unpolarized
 incident light, reduced masses (AMU), force constants (mDyne/A),
 and normal coordinates:
                      1                      2                      3
                      A                      A                      A
 Frequencies --     25.0745                44.7443                48.3997
 Red. masses --      5.8290                 5.0650                 4.7424
 Frc consts  --      0.0022                 0.0060                 0.0065
 IR Inten    --      1.2273                 4.3638                 1.8210
  Atom  AN      X      Y      Z        X      Y      Z        X      Y      Z
     1   6     0.01   0.00   0.05     0.03  -0.01  -0.04     0.07   0.02  -0.06
     2   1    -0.02   0.00   0.05     0.07  -0.02  -0.09     0.09   0.01  -0.08
     3   6     0.01   0.00  -0.03     0.02  -0.06  -0.03     0.05  -0.03  -0.09
     4   1     0.01   0.00  -0.05     0.04  -0.07  -0.09     0.08  -0.05  -0.09
     5   6     0.04   0.01   0.12     0.01   0.06  -0.01     0.07   0.10   0.03
     6   1     0.08   0.02   0.13    -0.03   0.08   0.04     0.05   0.11   0.06
     7   6     0.04   0.01   0.21     0.03   0.13  -0.02     0.09   0.18   0.10
     8   1     0.11   0.03   0.23     0.04   0.19  -0.02     0.16   0.25   0.12
     9   1     0.01   0.00   0.20     0.07   0.11  -0.06     0.11   0.16   0.07
    10   1     0.01   0.01   0.26    -0.01   0.14   0.02     0.01   0.19   0.18
    11   6     0.00   0.00  -0.07    -0.01  -0.07   0.06     0.02  -0.05  -0.11
    12   1    -0.01   0.00  -0.05    -0.03  -0.06   0.14     0.00  -0.03  -0.11
    13   6     0.00   0.00  -0.13    -0.01  -0.09   0.08     0.01  -0.07  -0.11
    14   1    -0.03   0.01  -0.15    -0.05  -0.24   0.16     0.03   0.00  -0.15
    15   1     0.02  -0.02  -0.15     0.01   0.05   0.18    -0.01  -0.13  -0.15
    16   6     0.00   0.00  -0.10    -0.01  -0.05  -0.11    -0.01  -0.04   0.09
    17   6     0.00   0.00  -0.07     0.00  -0.01   0.13     0.03  -0.04   0.04
    18   1     0.02  -0.01  -0.07    -0.04  -0.18   0.28     0.11   0.02  -0.04
    19   1     0.00   0.00  -0.04     0.00   0.00   0.06     0.02   0.00   0.13
    20   1    -0.03   0.00  -0.08     0.04   0.18   0.23    -0.03  -0.13  -0.02
    21   8     0.01  -0.01  -0.14     0.00  -0.09  -0.15     0.01  -0.07  -0.01
    22   8     0.00   0.00  -0.10    -0.01  -0.04  -0.27    -0.04  -0.03   0.22
    23   8    -0.07   0.02   0.41    -0.06   0.20   0.04    -0.01   0.16  -0.09
    24   1    -0.04   0.01   0.21    -0.06   0.09  -0.09    -0.04   0.07   0.05
    25   1     0.06   0.00   0.50    -0.05   0.17   0.01    -0.15   0.22  -0.14
    26   8    -0.02  -0.03  -0.20     0.02  -0.01   0.25    -0.20  -0.15  -0.03
    27   1    -0.01   0.02  -0.24     0.07  -0.19   0.38    -0.40  -0.16   0.05
    28   1    -0.01  -0.02  -0.16     0.02  -0.02   0.02    -0.14  -0.09   0.07
                      4                      5                      6
                      A                      A                      A
 Frequencies --     55.9925                58.1286                69.6815
 Red. masses --      4.6717                 5.2434                 2.3475
 Frc consts  --      0.0086                 0.0104                 0.0067
 IR Inten    --      3.5175                 8.2299                12.2372
  Atom  AN      X      Y      Z        X      Y      Z        X      Y      Z
     1   6     0.04   0.05   0.07     0.01   0.02  -0.01     0.02   0.06   0.16
     2   1     0.11   0.09   0.13    -0.03   0.01  -0.02     0.07   0.16   0.33
     3   6     0.03   0.01   0.14     0.02   0.05  -0.03     0.01   0.04   0.15
     4   1     0.04   0.00   0.16     0.00   0.07  -0.02     0.03   0.02   0.27
     5   6    -0.03   0.04  -0.06     0.04  -0.01   0.01    -0.03  -0.04  -0.04
     6   1    -0.11  -0.02  -0.11     0.08   0.00   0.02    -0.09  -0.15  -0.21
     7   6    -0.01   0.09  -0.15     0.03  -0.06   0.03    -0.02  -0.01  -0.06
     8   1    -0.10   0.03  -0.18     0.04  -0.06   0.03    -0.09  -0.19  -0.07
     9   1     0.06   0.13  -0.10    -0.01  -0.07   0.02     0.03   0.08   0.09
    10   1     0.00   0.14  -0.26     0.05  -0.08   0.05     0.00   0.08  -0.24
    11   6     0.02   0.01   0.14     0.04   0.06  -0.04    -0.01   0.03  -0.04
    12   1     0.02   0.01   0.12     0.05   0.05  -0.03    -0.02   0.06  -0.17
    13   6     0.02   0.00   0.13     0.04   0.07  -0.03    -0.01   0.00  -0.09
    14   1     0.00   0.01   0.12     0.03  -0.01   0.02    -0.05   0.02  -0.10
    15   1     0.04   0.00   0.12     0.05   0.14   0.02    -0.01  -0.02  -0.11
    16   6     0.05   0.00  -0.07     0.03   0.08  -0.01     0.00  -0.03   0.01
    17   6     0.07  -0.01  -0.23    -0.01   0.09   0.22    -0.03  -0.03   0.11
    18   1     0.03   0.06  -0.29    -0.05  -0.06   0.36    -0.02  -0.07   0.15
    19   1     0.07  -0.01  -0.28     0.00   0.05   0.18    -0.03  -0.03   0.13
    20   1     0.12  -0.11  -0.26     0.00   0.29   0.32    -0.05   0.04   0.13
    21   8     0.02   0.00   0.13     0.05   0.07  -0.15     0.01  -0.01  -0.09
    22   8     0.05   0.00  -0.11     0.04   0.07  -0.08     0.01  -0.04   0.01
    23   8     0.03   0.01   0.07     0.04  -0.27  -0.03     0.01   0.09  -0.02
    24   1     0.04   0.01  -0.01     0.08  -0.09  -0.05     0.00   0.01   0.00
    25   1     0.08   0.04   0.15     0.18  -0.36  -0.01    -0.06   0.05  -0.12
    26   8    -0.24  -0.16  -0.02    -0.29  -0.08   0.09     0.01  -0.08  -0.03
    27   1    -0.27  -0.10  -0.06    -0.23  -0.03   0.02     0.34   0.21  -0.39
    28   1    -0.15  -0.08  -0.03    -0.19   0.00  -0.03     0.02  -0.07  -0.02
                      7                      8                      9
                      A                      A                      A
 Frequencies --     93.6655               101.7166               132.8705
 Red. masses --      2.9783                 1.4422                 3.9011
 Frc consts  --      0.0154                 0.0088                 0.0406
 IR Inten    --     21.7324               103.4827                13.3262
  Atom  AN      X      Y      Z        X      Y      Z        X      Y      Z
     1   6     0.07  -0.02   0.11    -0.02   0.04   0.02    -0.08  -0.08   0.01
     2   1     0.16   0.07   0.25    -0.04   0.05   0.04    -0.03  -0.03   0.07
     3   6     0.05  -0.09   0.10    -0.01   0.06   0.01    -0.08  -0.09  -0.01
     4   1     0.07  -0.11   0.12    -0.01   0.06   0.00    -0.09  -0.07   0.01
     5   6    -0.01  -0.03  -0.04     0.00   0.00   0.00    -0.12  -0.04  -0.03
     6   1    -0.12  -0.14  -0.17     0.03  -0.01  -0.02    -0.20  -0.09  -0.08
     7   6     0.03   0.10  -0.05    -0.02  -0.07  -0.01    -0.08   0.12   0.04
     8   1    -0.01  -0.01  -0.05    -0.04  -0.13  -0.01    -0.02   0.13   0.06
     9   1     0.14   0.19   0.08    -0.05  -0.06   0.02     0.00   0.15   0.08
    10   1    -0.02   0.23  -0.19     0.03  -0.09  -0.05    -0.20   0.20   0.05
    11   6     0.03  -0.10   0.02    -0.01   0.06   0.00    -0.02  -0.07  -0.03
    12   1     0.02  -0.09  -0.01    -0.02   0.07   0.00     0.02  -0.10  -0.05
    13   6     0.04  -0.07  -0.04    -0.02   0.03  -0.01     0.00  -0.01  -0.04
    14   1     0.02  -0.05  -0.06    -0.04   0.03  -0.02     0.02   0.04  -0.07
    15   1     0.09  -0.08  -0.06    -0.04   0.02  -0.02     0.01  -0.05  -0.07
    16   6    -0.01   0.03   0.00     0.00  -0.02   0.00     0.01  -0.01   0.00
    17   6     0.04   0.06   0.02    -0.03  -0.04   0.03    -0.01  -0.02   0.02
    18   1     0.06   0.03   0.04    -0.04  -0.05   0.05     0.04  -0.01  -0.01
    19   1     0.04   0.09   0.00    -0.03  -0.06   0.03    -0.01  -0.02   0.09
    20   1     0.07   0.07   0.03    -0.04  -0.01   0.04    -0.07  -0.05  -0.01
    21   8    -0.01  -0.05  -0.05     0.01   0.01  -0.01     0.00   0.00   0.01
    22   8    -0.07   0.06   0.03     0.03  -0.04  -0.01     0.04  -0.03  -0.03
    23   8    -0.10  -0.10  -0.02     0.05   0.04   0.00     0.32   0.05   0.07
    24   1    -0.08   0.02  -0.01     0.04  -0.01  -0.01     0.31  -0.02   0.07
    25   1    -0.02  -0.03   0.11     0.02   0.13   0.06     0.24  -0.38  -0.44
    26   8     0.01   0.18  -0.08     0.03  -0.03  -0.06    -0.07   0.14  -0.01
    27   1    -0.42  -0.23   0.42    -0.53  -0.51   0.56    -0.08   0.04   0.08
    28   1    -0.04   0.14  -0.07     0.03  -0.03  -0.07    -0.10   0.10  -0.05
                     10                     11                     12
                      A                      A                      A
 Frequencies --    138.0020               141.1282               142.8521
 Red. masses --      1.4352                 3.4774                 2.6716
 Frc consts  --      0.0161                 0.0408                 0.0321
 IR Inten    --     97.2159                 6.6407                28.1353
  Atom  AN      X      Y      Z        X      Y      Z        X      Y      Z
     1   6    -0.03  -0.03   0.00    -0.02  -0.04   0.00    -0.03  -0.04   0.01
     2   1    -0.02  -0.04  -0.02     0.01   0.05   0.14    -0.02  -0.05  -0.02
     3   6    -0.03  -0.03   0.00    -0.03  -0.05  -0.03    -0.03  -0.03   0.01
     4   1    -0.04  -0.02  -0.04    -0.03  -0.05   0.08    -0.04  -0.02  -0.07
     5   6    -0.05   0.00   0.01    -0.05  -0.06  -0.07    -0.06   0.00   0.02
     6   1    -0.08   0.00   0.02    -0.10  -0.15  -0.21    -0.09   0.00   0.04
     7   6    -0.04   0.04   0.00    -0.01   0.08   0.08    -0.04   0.05  -0.02
     8   1    -0.03   0.08  -0.01     0.09   0.01   0.13    -0.06   0.10  -0.03
     9   1    -0.01   0.03  -0.03     0.04   0.16   0.21     0.00   0.03  -0.06
    10   1    -0.07   0.05   0.02    -0.14   0.21   0.05    -0.07   0.05   0.00
    11   6     0.00  -0.02   0.04     0.01  -0.04  -0.13     0.01  -0.02   0.07
    12   1     0.02  -0.04   0.08     0.04  -0.06  -0.25     0.03  -0.05   0.16
    13   6     0.01   0.01   0.00     0.02   0.02  -0.05     0.02   0.02   0.00
    14   1    -0.02  -0.02   0.01     0.15   0.17  -0.11    -0.03  -0.03   0.02
    15   1     0.05   0.04   0.01    -0.04  -0.10  -0.12     0.10   0.08   0.03
    16   6     0.00   0.02  -0.01     0.00   0.06   0.03    -0.01   0.07  -0.02
    17   6     0.00   0.02  -0.01     0.02   0.08   0.09     0.03   0.09  -0.05
    18   1    -0.11  -0.05   0.09     0.21   0.14  -0.03    -0.04   0.05   0.00
    19   1     0.01   0.00  -0.15     0.01   0.12   0.29     0.03   0.10  -0.14
    20   1     0.12   0.11   0.07    -0.15  -0.02  -0.02     0.12   0.12   0.00
    21   8     0.01   0.01  -0.07    -0.03   0.05   0.21     0.01   0.04  -0.12
    22   8     0.00   0.02   0.05     0.01   0.06  -0.15    -0.03   0.09   0.09
    23   8     0.08  -0.03  -0.04    -0.04  -0.03  -0.02    -0.01   0.00   0.04
    24   1     0.08  -0.01   0.00    -0.01   0.06  -0.13     0.00   0.06   0.08
    25   1     0.10   0.63   0.65     0.10   0.13   0.25    -0.03  -0.54  -0.53
    26   8     0.02  -0.04   0.00     0.09  -0.16   0.01     0.12  -0.19   0.00
    27   1     0.05   0.02  -0.06     0.03  -0.23   0.09    -0.11  -0.25   0.13
    28   1     0.02  -0.03   0.02     0.13  -0.12  -0.06     0.17  -0.14   0.06
                     13                     14                     15
                      A                      A                      A
 Frequencies --    163.9883               177.6364               191.8418
 Red. masses --      1.6769                 1.1916                 4.7818
 Frc consts  --      0.0266                 0.0222                 0.1037
 IR Inten    --      2.7398                 4.7651                10.9556
  Atom  AN      X      Y      Z        X      Y      Z        X      Y      Z
     1   6    -0.01  -0.04   0.02     0.00   0.02   0.00    -0.11  -0.08  -0.01
     2   1    -0.02  -0.16  -0.21     0.00   0.03   0.03    -0.11  -0.06   0.03
     3   6     0.00  -0.02   0.11     0.00   0.01  -0.02    -0.08   0.01   0.00
     4   1     0.00  -0.02   0.21     0.00   0.01  -0.07    -0.15   0.08  -0.03
     5   6    -0.01   0.07   0.14     0.00   0.00  -0.01    -0.15  -0.07  -0.04
     6   1    -0.01   0.21   0.38     0.01  -0.02  -0.04    -0.21  -0.10  -0.07
     7   6    -0.03   0.00  -0.10     0.00  -0.01   0.01    -0.12   0.08   0.04
     8   1    -0.12   0.32  -0.17    -0.01  -0.10   0.01     0.03   0.30   0.07
     9   1    -0.03  -0.18  -0.43    -0.01   0.03   0.08    -0.07   0.02  -0.09
    10   1     0.05  -0.19   0.10     0.01   0.02  -0.06    -0.28   0.08   0.25
    11   6     0.00  -0.01  -0.04    -0.01   0.01   0.04     0.07   0.06   0.04
    12   1     0.00   0.00  -0.17    -0.02   0.01   0.11     0.14  -0.01   0.09
    13   6     0.01  -0.01  -0.08    -0.01  -0.01   0.05     0.09   0.10  -0.01
    14   1     0.00   0.08  -0.14    -0.03  -0.10   0.10     0.05   0.08  -0.01
    15   1     0.02  -0.10  -0.15    -0.02   0.08   0.11     0.10   0.11  -0.01
    16   6     0.00   0.01   0.00    -0.01   0.00   0.00     0.15  -0.05   0.01
    17   6     0.02   0.01   0.03     0.01   0.01   0.00     0.07  -0.10   0.02
    18   1     0.17   0.08  -0.09     0.42   0.22  -0.32     0.16  -0.02  -0.08
    19   1     0.01   0.04   0.21    -0.01   0.08   0.50     0.07  -0.15   0.19
    20   1    -0.13  -0.09  -0.07    -0.37  -0.29  -0.27    -0.09  -0.17  -0.07
    21   8     0.00  -0.01   0.01     0.00  -0.02  -0.08     0.16   0.06  -0.05
    22   8     0.00   0.01  -0.03    -0.02   0.01   0.01     0.22  -0.09   0.03
    23   8     0.00  -0.01  -0.01     0.03  -0.01  -0.01    -0.22   0.02  -0.02
    24   1     0.01   0.02  -0.03     0.04   0.03  -0.02    -0.24  -0.07  -0.03
    25   1     0.04   0.02   0.05     0.07   0.06   0.10    -0.27   0.02  -0.06
    26   8     0.01   0.00   0.01     0.00  -0.01   0.01    -0.04   0.06  -0.01
    27   1     0.00  -0.04   0.05     0.03   0.00  -0.01    -0.04  -0.01   0.05
    28   1     0.01   0.00  -0.03     0.00  -0.01   0.00    -0.06   0.04  -0.04
                     16                     17                     18
                      A                      A                      A
 Frequencies --    214.5137               236.9640               260.7931
 Red. masses --      1.3208                 1.6772                 3.4560
 Frc consts  --      0.0358                 0.0555                 0.1385
 IR Inten    --      4.3070                 3.6384                14.8142
  Atom  AN      X      Y      Z        X      Y      Z        X      Y      Z
     1   6     0.02   0.03   0.01     0.02   0.03   0.04    -0.07   0.10  -0.02
     2   1     0.04   0.08   0.11     0.03   0.08   0.12    -0.06   0.11   0.00
     3   6     0.02   0.02   0.06     0.02   0.01  -0.05    -0.05   0.08  -0.02
     4   1     0.03   0.01   0.19     0.03   0.01  -0.33    -0.05   0.08  -0.01
     5   6     0.01  -0.05  -0.10     0.01  -0.03  -0.05    -0.07   0.07  -0.03
     6   1     0.00  -0.10  -0.19    -0.01  -0.09  -0.14    -0.02   0.06  -0.07
     7   6     0.02  -0.01   0.03     0.02  -0.01  -0.02    -0.11  -0.04   0.04
     8   1     0.27   0.45   0.08     0.12   0.22   0.00    -0.05  -0.09   0.07
     9   1    -0.06  -0.22  -0.33    -0.02  -0.13  -0.21    -0.24  -0.06   0.06
    10   1    -0.13  -0.19   0.52    -0.04  -0.11   0.22    -0.06  -0.11   0.08
    11   6     0.00   0.01  -0.05    -0.01   0.00   0.17    -0.05   0.07  -0.01
    12   1    -0.02   0.04  -0.19    -0.02  -0.02   0.48    -0.09   0.10  -0.02
    13   6    -0.02  -0.01   0.06    -0.01   0.00  -0.12    -0.06  -0.08  -0.03
    14   1     0.02  -0.11   0.14    -0.13   0.24  -0.31    -0.13  -0.05  -0.07
    15   1    -0.06   0.09   0.14     0.13  -0.23  -0.32    -0.10  -0.16  -0.07
    16   6    -0.02   0.00  -0.01    -0.02   0.00   0.01     0.07  -0.05   0.01
    17   6    -0.01   0.01  -0.02    -0.02   0.00   0.03     0.29   0.05   0.02
    18   1    -0.02   0.01  -0.02     0.02   0.01   0.00     0.31  -0.05   0.11
    19   1    -0.01   0.01  -0.03    -0.02   0.01   0.07     0.28   0.21  -0.10
    20   1    -0.01   0.00  -0.02    -0.05  -0.02   0.01     0.44   0.09   0.09
    21   8    -0.01  -0.01  -0.03    -0.02   0.00   0.03     0.06  -0.17   0.03
    22   8    -0.03   0.01   0.01    -0.01   0.00  -0.02    -0.07   0.03   0.00
    23   8     0.02   0.00   0.00     0.01   0.00   0.00     0.00  -0.02   0.00
    24   1     0.02   0.00   0.01     0.01   0.00  -0.01     0.05   0.17  -0.07
    25   1     0.02   0.00   0.00     0.01   0.00   0.01     0.19  -0.11   0.05
    26   8     0.01   0.00   0.00     0.00   0.00   0.01     0.00   0.01   0.00
    27   1    -0.02  -0.03   0.03     0.02   0.05  -0.04     0.13  -0.06   0.01
    28   1     0.00   0.00  -0.01     0.00   0.00   0.03    -0.09  -0.07  -0.06
                     19                     20                     21
                      A                      A                      A
 Frequencies --    318.8046               348.1168               351.6776
 Red. masses --      1.0503                 1.7549                 1.3621
 Frc consts  --      0.0629                 0.1253                 0.0993
 IR Inten    --    110.9633                48.2178                83.7673
  Atom  AN      X      Y      Z        X      Y      Z        X      Y      Z
     1   6     0.00  -0.01  -0.01    -0.01  -0.02   0.13     0.01  -0.01  -0.09
     2   1     0.00  -0.01  -0.01    -0.10   0.02   0.24     0.05  -0.04  -0.17
     3   6     0.00   0.00   0.00    -0.01   0.03  -0.13     0.01  -0.01   0.09
     4   1    -0.01   0.01   0.00    -0.02   0.04  -0.27     0.01  -0.01   0.18
     5   6     0.01  -0.01   0.00     0.01  -0.07   0.10     0.00   0.03  -0.06
     6   1     0.01   0.00   0.01    -0.06  -0.13   0.02     0.04   0.07   0.00
     7   6     0.01   0.00   0.00     0.04   0.03  -0.06    -0.01  -0.01   0.04
     8   1     0.01   0.00   0.00    -0.09   0.20  -0.13     0.07  -0.11   0.08
     9   1     0.03   0.01   0.00     0.19  -0.02  -0.20    -0.07   0.03   0.13
    10   1     0.01   0.01  -0.01     0.03   0.03  -0.05    -0.02   0.01   0.02
    11   6     0.01   0.00   0.01    -0.01   0.03  -0.08     0.01  -0.01   0.05
    12   1     0.01   0.00   0.02    -0.02   0.02   0.09     0.01   0.00  -0.06
    13   6     0.00   0.01   0.00    -0.02   0.01   0.03     0.01   0.01  -0.02
    14   1     0.00   0.02  -0.01     0.06  -0.09   0.11    -0.05   0.06  -0.07
    15   1     0.02   0.01  -0.01    -0.11   0.10   0.11     0.07  -0.05  -0.07
    16   6     0.00   0.00   0.01     0.00  -0.01   0.01    -0.01  -0.01   0.01
    17   6    -0.02   0.00  -0.01     0.01  -0.02  -0.01    -0.04  -0.02   0.00
    18   1    -0.04   0.01  -0.02    -0.02  -0.03   0.02    -0.07  -0.02   0.00
    19   1    -0.01  -0.01  -0.03     0.01   0.00  -0.04    -0.04  -0.03   0.00
    20   1     0.00  -0.01  -0.01     0.04   0.00   0.02    -0.04  -0.01   0.00
    21   8     0.00   0.01   0.00     0.00   0.00   0.01     0.00   0.01  -0.02
    22   8    -0.01   0.01   0.02     0.00  -0.01   0.02     0.01  -0.02   0.03
    23   8     0.00   0.00   0.00    -0.03   0.02   0.00    -0.03   0.03   0.00
    24   1     0.01   0.04  -0.02     0.08   0.30  -0.39     0.10   0.36  -0.49
    25   1     0.04  -0.02   0.00     0.47  -0.21   0.15     0.58  -0.25   0.18
    26   8    -0.02   0.02   0.00     0.00   0.00   0.00     0.00   0.00   0.00
    27   1     0.57  -0.43   0.16    -0.02   0.03  -0.02    -0.05   0.04  -0.01
    28   1    -0.30  -0.25  -0.54    -0.01  -0.01   0.05     0.02   0.02   0.06
                     22                     23                     24
                      A                      A                      A
 Frequencies --    371.9604               479.7112               548.7253
 Red. masses --      2.9392                 4.0409                 3.0051
 Frc consts  --      0.2396                 0.5479                 0.5331
 IR Inten    --      2.9136                 7.6084                17.9629
  Atom  AN      X      Y      Z        X      Y      Z        X      Y      Z
     1   6     0.05   0.16   0.09     0.01  -0.05   0.03     0.05  -0.05   0.02
     2   1     0.23   0.28   0.22     0.00  -0.05   0.01     0.09  -0.06  -0.01
     3   6    -0.01  -0.15  -0.08     0.12   0.09  -0.04     0.10   0.02  -0.01
     4   1     0.08  -0.24  -0.16     0.01   0.19  -0.12     0.02   0.09  -0.08
     5   6    -0.04   0.20   0.00    -0.09   0.03   0.00    -0.04   0.03  -0.01
     6   1    -0.02   0.10  -0.17    -0.16   0.01   0.02    -0.11   0.02   0.01
     7   6    -0.12  -0.08   0.01    -0.14   0.00   0.02    -0.08   0.00   0.01
     8   1    -0.14  -0.11   0.01    -0.11  -0.04   0.04    -0.05  -0.04   0.03
     9   1    -0.42  -0.17  -0.08    -0.23   0.00   0.04    -0.17   0.00   0.03
    10   1     0.10  -0.32   0.10    -0.11  -0.03   0.04    -0.05  -0.04   0.03
    11   6    -0.01  -0.16  -0.06     0.21   0.11  -0.02     0.15   0.04  -0.02
    12   1     0.06  -0.23   0.05     0.14   0.15   0.09     0.15   0.04   0.07
    13   6     0.06  -0.01   0.02     0.14  -0.11   0.00     0.11   0.08   0.01
    14   1     0.17  -0.06   0.08     0.11  -0.14   0.01     0.19   0.05   0.05
    15   1     0.05   0.08   0.08     0.01  -0.14   0.01     0.13   0.15   0.05
    16   6     0.02   0.03   0.01     0.05   0.04   0.02    -0.12  -0.10  -0.05
    17   6    -0.03   0.00  -0.01    -0.18  -0.07  -0.02     0.08  -0.03   0.01
    18   1    -0.06   0.02  -0.01    -0.42   0.07  -0.06     0.34  -0.20   0.07
    19   1    -0.03  -0.04  -0.01    -0.14  -0.41  -0.02     0.03   0.30   0.05
    20   1    -0.05   0.00  -0.01    -0.32  -0.03  -0.05     0.19  -0.02   0.06
    21   8     0.01   0.05   0.00     0.09  -0.15   0.03    -0.10   0.12   0.00
    22   8     0.07   0.00   0.02    -0.12   0.14  -0.03    -0.13  -0.12  -0.01
    23   8    -0.02   0.01   0.00     0.02   0.01   0.00     0.01  -0.01   0.00
    24   1     0.00   0.04  -0.10     0.02   0.03   0.02     0.01   0.11   0.12
    25   1     0.08  -0.04   0.03     0.01   0.01   0.00     0.00   0.00   0.00
    26   8    -0.01   0.00   0.00     0.01   0.00   0.00     0.01   0.01  -0.01
    27   1     0.05  -0.03   0.01     0.01   0.00  -0.01     0.01  -0.02   0.01
    28   1    -0.01  -0.01  -0.06     0.00  -0.01   0.01    -0.35  -0.29   0.35
                     25                     26                     27
                      A                      A                      A
 Frequencies --    565.0363               593.4601               606.2376
 Red. masses --      1.2805                 1.0918                 2.2605
 Frc consts  --      0.2409                 0.2266                 0.4895
 IR Inten    --     90.0461               174.0384                21.2085
  Atom  AN      X      Y      Z        X      Y      Z        X      Y      Z
     1   6     0.02  -0.03   0.01     0.00  -0.01   0.00    -0.01   0.02   0.00
     2   1     0.01  -0.04  -0.01     0.00  -0.01  -0.01     0.00   0.03   0.02
     3   6     0.05   0.03  -0.01     0.01   0.01   0.00    -0.03  -0.02   0.00
     4   1     0.04   0.04  -0.03     0.00   0.02  -0.01    -0.03  -0.02   0.02
     5   6    -0.02   0.00   0.00     0.00   0.00   0.00     0.01   0.00   0.00
     6   1    -0.05   0.00   0.02    -0.01   0.00   0.01     0.03  -0.01  -0.02
     7   6    -0.04   0.00   0.01    -0.01   0.00   0.00     0.02   0.00   0.00
     8   1    -0.02  -0.01   0.01     0.00   0.00   0.00     0.00   0.01  -0.01
     9   1    -0.06   0.01   0.02    -0.01   0.00   0.00     0.03  -0.01  -0.02
    10   1    -0.04   0.00   0.01    -0.01   0.00   0.00     0.03   0.00  -0.01
    11   6     0.04   0.02  -0.01     0.00   0.00   0.00     0.00  -0.01   0.00
    12   1     0.00   0.05   0.03    -0.01   0.02   0.01     0.05  -0.04  -0.04
    13   6     0.01  -0.02   0.00     0.00  -0.02   0.00     0.02   0.05  -0.01
    14   1     0.03  -0.03   0.01     0.00  -0.01   0.00    -0.01   0.04  -0.01
    15   1     0.02   0.00   0.01    -0.01  -0.02   0.00     0.06   0.06  -0.01
    16   6    -0.07  -0.01   0.06     0.00   0.01  -0.05    -0.03   0.00   0.28
    17   6     0.02   0.03   0.00     0.00   0.03  -0.01     0.03  -0.05   0.02
    18   1     0.05   0.06  -0.04     0.05  -0.03   0.04    -0.20   0.31  -0.21
    19   1     0.01   0.14  -0.08     0.00   0.01   0.07     0.04  -0.04  -0.33
    20   1     0.15  -0.09  -0.01    -0.05   0.11   0.01     0.34  -0.48  -0.08
    21   8    -0.04   0.01  -0.01    -0.01  -0.01   0.01     0.03   0.01  -0.07
    22   8     0.01  -0.05   0.00     0.01   0.01   0.03    -0.05   0.02  -0.11
    23   8     0.00   0.00   0.01     0.01   0.02   0.03     0.01   0.01   0.01
    24   1    -0.01  -0.17  -0.17    -0.04  -0.70  -0.65    -0.01  -0.24  -0.21
    25   1     0.00   0.00   0.00    -0.07   0.02  -0.03    -0.03   0.01  -0.01
    26   8    -0.02  -0.01   0.02     0.00   0.00  -0.01     0.01   0.00  -0.01
    27   1    -0.02   0.03  -0.02     0.02  -0.02   0.01    -0.03   0.01   0.00
    28   1     0.55   0.46  -0.56    -0.15  -0.12   0.14    -0.19  -0.16   0.23
                     28                     29                     30
                      A                      A                      A
 Frequencies --    627.3390               717.2767               796.5204
 Red. masses --      3.3385                 3.0242                 1.6141
 Frc consts  --      0.7741                 0.9167                 0.6034
 IR Inten    --     38.1373                 8.4798                 1.8129
  Atom  AN      X      Y      Z        X      Y      Z        X      Y      Z
     1   6     0.05  -0.06   0.02     0.16  -0.12   0.07    -0.05   0.10   0.06
     2   1     0.02  -0.11  -0.06     0.17  -0.27  -0.22    -0.07  -0.13  -0.35
     3   6     0.12   0.07  -0.01     0.15   0.01   0.02    -0.06  -0.01   0.10
     4   1     0.08   0.09  -0.08     0.23  -0.07  -0.24    -0.04  -0.02  -0.29
     5   6    -0.03  -0.01  -0.01    -0.02  -0.01  -0.06    -0.01  -0.03  -0.07
     6   1    -0.10   0.02   0.08    -0.15   0.12   0.23     0.14   0.23   0.29
     7   6    -0.07   0.01   0.01    -0.08   0.01  -0.01     0.04  -0.03  -0.03
     8   1    -0.01  -0.03   0.03     0.12  -0.09   0.09     0.26  -0.01   0.06
     9   1    -0.12   0.02   0.05    -0.23   0.05   0.12     0.12   0.06   0.10
    10   1    -0.09   0.01   0.03    -0.16   0.02   0.08    -0.19   0.12   0.04
    11   6    -0.01   0.02  -0.02    -0.15  -0.04  -0.06     0.02   0.00  -0.08
    12   1    -0.17   0.16   0.06    -0.25   0.03   0.26     0.05  -0.08   0.51
    13   6    -0.07  -0.16  -0.01    -0.17   0.10  -0.03     0.06  -0.02  -0.05
    14   1    -0.05  -0.16   0.00    -0.08   0.01   0.06     0.24  -0.17   0.10
    15   1    -0.07  -0.12   0.01    -0.26   0.19   0.06    -0.11   0.13   0.10
    16   6    -0.06   0.07   0.09     0.08   0.01   0.01    -0.01  -0.01   0.01
    17   6    -0.06   0.19  -0.01     0.07  -0.11   0.01    -0.01   0.02   0.00
    18   1    -0.08   0.30  -0.10    -0.04  -0.06   0.01     0.00   0.02   0.00
    19   1    -0.07   0.30  -0.15     0.09  -0.25   0.01    -0.02   0.05  -0.02
    20   1     0.09   0.01  -0.05    -0.01  -0.08   0.00     0.00   0.02   0.00
    21   8    -0.07  -0.04  -0.02     0.02   0.05   0.00     0.00  -0.02   0.02
    22   8     0.23  -0.09  -0.01    -0.02   0.08  -0.01     0.00  -0.02   0.00
    23   8    -0.02  -0.01  -0.01     0.00   0.00   0.00     0.00   0.00   0.00
    24   1     0.00   0.20   0.18     0.00  -0.02  -0.02     0.00   0.00   0.00
    25   1     0.02  -0.01   0.01    -0.01   0.00   0.00     0.00   0.00   0.00
    26   8     0.01   0.01  -0.01     0.00   0.00   0.00     0.00   0.00   0.00
    27   1     0.04  -0.03   0.02     0.00   0.00   0.00     0.00   0.00   0.00
    28   1    -0.36  -0.29   0.33     0.01   0.01  -0.01     0.01   0.01  -0.01
                     31                     32                     33
                      A                      A                      A
 Frequencies --    854.6068               874.0172               931.4655
 Red. masses --      2.1857                 2.5997                 1.7318
 Frc consts  --      0.9405                 1.1701                 0.8853
 IR Inten    --      2.8218                 1.8864                12.5528
  Atom  AN      X      Y      Z        X      Y      Z        X      Y      Z
     1   6    -0.03   0.12   0.07     0.06   0.04   0.10     0.01  -0.06   0.09
     2   1    -0.21  -0.05  -0.19    -0.01  -0.12  -0.17    -0.01  -0.11   0.00
     3   6     0.06   0.04  -0.09     0.00  -0.03  -0.10    -0.09  -0.01  -0.04
     4   1     0.13  -0.03   0.12     0.09  -0.12   0.08    -0.20   0.09  -0.03
     5   6     0.00  -0.08  -0.02     0.00  -0.04  -0.04    -0.06   0.05  -0.05
[...]
 3919,-0.06338486,-0.01990509,-0.02380787,0.00524228,0.01681358,0.02114
 180,0.00667678,-0.03756275,0.01586207,-0.05937689,-0.01005056,0.001216
 89,0.01753883,-0.00245870,0.00244472,-0.00028497,-0.00036879,0.0020807
 8,0.00188801,0.00224156,-0.00259160,0.00020269,0.06836577,-0.00441620,
 0.07353421,0.00014231,-0.00045816,0.00026380,-0.00025328,0.00012505,-0
 .00007407,0.00015629,0.00042821,-0.00011638,0.00052108,-0.00043397,0.0
 0000086,-0.00009523,0.00028393,-0.00000275,0.00004414,0.00003236,-0.00
 005514,-0.00014038,-0.00020530,0.00004350,-0.00012973,0.00007061,0.000
 04742,-0.00003408,0.00005695,-0.00002969,-0.00016506,0.00004021,-0.000
 05274,-0.00019722,-0.00386674,-0.00006637,-0.00144414,0.00050586,-0.00
 004758,0.00453738,0.01301048,-0.00175377,-0.00223180,-0.00264098,-0.00
 067585,-0.00179030,-0.00201905,0.00059506,-0.21940875,-0.23923742,-0.0
 0633431,0.01267133,0.00383728,-0.00134162,0.00097931,0.00245659,0.0001
 3304,0.00267273,-0.00149821,0.00029512,0.00038249,0.00283691,-0.000749
 01,-0.09417585,-0.07925026,-0.01051237,0.31424155,0.00015718,-0.000291
 30,0.00035086,-0.00032342,0.00012597,-0.00011186,-0.00039350,0.0001462
 1,-0.00013353,0.00009562,-0.00082322,-0.00007605,-0.00014481,0.0002808
 6,0.00004676,0.00004109,0.00003790,-0.00007685,-0.00011228,-0.00018965
 ,0.00000693,-0.00010281,0.00003788,0.00003588,-0.00004165,0.00005616,-
 0.00004113,-0.00012652,0.00004840,-0.00003117,0.00060969,-0.00206160,0
 .00005842,-0.00094610,0.00031871,-0.00005749,0.00614448,0.01069753,0.0
 0009257,-0.00151088,-0.00128968,-0.00003125,-0.00119847,-0.00101754,-0
 .00011199,-0.21507212,-0.57327338,-0.00152503,-0.02167080,-0.05038618,
 0.00211696,0.00268997,-0.00564966,0.00252165,-0.00188437,0.00175945,-0
 .00083234,0.00216411,-0.00483210,-0.00126462,-0.07359936,-0.00338838,-
 0.00930181,0.29960928,0.63228114,0.00001643,-0.00001681,0.00002799,-0.
 00001367,-0.00000160,-0.00002451,0.00006700,0.00001037,0.00013704,0.00
 008153,-0.00002128,-0.00010584,-0.00000833,0.00003980,0.00001742,0.000
 00222,-0.00001187,-0.00001206,-0.00001841,-0.00002232,-0.00000067,-0.0
 0001996,0.00000577,0.00000842,-0.00000290,-0.00000098,-0.00000504,-0.0
 0001399,0.00000874,-0.00000684,-0.00019542,-0.00080208,0.00022148,-0.0
 0022635,0.00010442,-0.00021128,-0.00085813,0.00218582,0.00749016,0.000
 80788,0.00071009,-0.00039035,-0.00086353,-0.00105366,-0.00020150,-0.00
 756956,-0.00489572,-0.08161186,0.00020372,0.00627246,0.02846798,-0.002
 40044,0.00414630,-0.00158077,0.00008686,0.00013737,-0.00046772,0.00199
 331,-0.00430997,-0.00050043,-0.01143503,-0.01076367,0.01365932,0.02136
 147,0.00785580,0.03936523,0.00002204,-0.00011792,0.00005437,-0.0000424
 0,0.00002511,-0.00001318,-0.00000562,0.00007571,-0.00002739,0.00011193
 ,-0.00008375,0.00000340,-0.00000726,0.00005118,-0.00000952,0.00000891,
 0.00000965,-0.00000672,-0.00003284,-0.00004389,0.00001296,-0.00002764,
 0.00001776,0.00001251,-0.00000645,0.00001417,-0.00000665,-0.00003824,0
 .00000673,-0.00001418,0.00005298,-0.00027983,-0.00001001,-0.00017152,0
 .00003098,-0.00000833,0.00098051,0.00151605,0.00001737,-0.00019119,-0.
 00025745,-0.00003695,-0.00015871,-0.00021260,0.00000322,0.00613408,0.0
 0949448,0.00035858,-0.00026424,-0.00120189,-0.00001699,-0.00013038,-0.
 00022107,-0.00003346,-0.00068495,-0.00023057,0.00021511,0.00001284,-0.
 00014858,0.00000245,-0.00605468,-0.00254629,-0.00074078,-0.01588922,-0
 .00664052,-0.00128278,0.62660041,0.00001055,-0.00001384,0.00002737,-0.
 00002085,0.00000709,-0.00001192,-0.00003746,0.00000635,-0.00000621,0.0
 0000407,-0.00003448,-0.00000641,-0.00000564,0.00001800,0.00000910,0.00
 000149,0.00000147,-0.00000838,-0.00000675,-0.00001303,-0.00000113,-0.0
 0000704,0.00000021,0.00000332,-0.00000315,0.00000441,-0.00000515,-0.00
 000594,0.00000443,-0.00000104,0.00007967,0.00005504,0.00000817,-0.0000
 1174,0.00000478,-0.00000205,0.00014694,0.00002088,-0.00000367,-0.00000
 150,-0.00000704,0.00005593,0.00000697,-0.00000550,-0.00006180,0.001632
 45,-0.00158461,0.00023207,0.00033722,0.00000748,0.00001589,-0.00027654
 ,0.00005490,-0.00003127,-0.00077896,-0.00079183,-0.00021115,-0.0003010
 0,0.00002669,0.00002047,-0.00036426,0.00052696,-0.00007015,-0.00151451
 ,0.00384790,-0.00031833,0.05952365,0.26280583,0.00000451,0.00000538,0.
 00001428,-0.00000311,-0.00000597,-0.00001289,-0.00000227,-0.00000508,0
 .00002379,0.00000458,-0.00000828,-0.00003318,-0.00000090,0.00001522,0.
 00000987,-0.00000095,-0.00000798,-0.00000623,-0.00000482,-0.00000619,-
 0.00000177,-0.00000723,0.00000064,0.00000408,-0.00000032,-0.00000219,-
 0.00000285,-0.00000141,0.00000428,-0.00000218,0.00001139,-0.00000671,0
 .00005054,-0.00000617,0.00000440,-0.00001365,0.00010418,0.00008755,-0.
 00024498,-0.00002090,-0.00001075,0.00001168,0.00000740,-0.00001584,0.0
 0001004,0.00011408,0.00045455,-0.00002127,0.00009366,0.00013500,0.0005
 6270,0.00023819,0.00008184,-0.00000265,0.00009731,-0.00008415,-0.00084
 912,-0.00020261,-0.00009623,0.00000667,-0.00027827,-0.00013625,-0.0002
 2655,-0.00074898,-0.00056161,0.00326153,-0.08441785,-0.24492907,0.2407
 1977,-0.00003106,0.00016185,-0.00007080,0.00005927,-0.00003383,0.00001
 811,-0.00000431,-0.00011758,0.00003357,-0.00016375,0.00012439,-0.00000
 247,0.00001728,-0.00007363,0.00000921,-0.00001180,-0.00001096,0.000010
 79,0.00004223,0.00005844,-0.00001699,0.00003723,-0.00002234,-0.0000154
 8,0.00000877,-0.00001789,0.00000873,0.00004918,-0.00000964,0.00001729,
 -0.00004647,0.00049479,0.00001668,0.00025850,-0.00005091,0.00001458,-0
 .00137697,-0.00229552,-0.00007406,0.00029867,0.00039685,0.00009885,0.0
 0027204,0.00034814,-0.00005007,-0.01164632,-0.01648187,-0.00061233,0.0
 0038157,0.00140785,-0.00010419,-0.00022197,0.00053661,-0.00003018,0.00
 049556,-0.00056398,-0.00006548,-0.00024889,0.00039920,0.00002344,0.009
 65138,0.00414946,0.00098349,0.00625664,0.01054137,0.00109989,-0.460201
 11,0.06615615,-0.04033279,0.47620186,-0.00000963,0.00001780,-0.0000257
 1,0.00002056,-0.00000835,0.00000937,0.00004308,-0.00000698,0.00001431,
 -0.00000966,0.00003327,0.00000045,0.00000592,-0.00001727,-0.00000442,-
 0.00000216,-0.00000254,0.00000595,0.00000802,0.00001310,-0.00000063,0.
 00000751,-0.00000207,-0.00000319,0.00000299,-0.00000470,0.00000386,0.0
 0000846,-0.00000377,0.00000208,-0.00007797,-0.00004906,-0.00000929,0.0
 0002089,-0.00000437,0.00000028,-0.00021767,-0.00008315,0.00000264,0.00
 001422,0.00002917,-0.00005565,-0.00000143,0.00001379,0.00006760,-0.004
 62118,0.00064444,-0.00068489,-0.00125289,-0.00008887,0.00005267,0.0005
 3770,0.00003984,0.00002676,-0.00034908,-0.00279677,-0.00000931,0.00038
 304,0.00004321,-0.00001637,0.00060450,-0.00053768,0.00018423,0.0042527
 5,-0.00514437,0.00038717,0.10643178,-0.04625909,0.03162867,-0.07366756
 ,0.05084689,-0.00000406,0.00000591,-0.00001106,0.00000465,0.00000260,0
 .00000940,0.00000115,-0.00001332,-0.00001466,-0.00002043,0.00001360,0.
 00001740,0.00000246,-0.00001413,-0.00000679,-0.00000018,0.00000557,0.0
 0000437,0.00000592,0.00000645,0.00000051,0.00000713,-0.00000137,-0.000
 00323,0.00000071,0.00000097,0.00000214,0.00000335,-0.00000342,0.000002
 12,-0.00001417,0.00003040,-0.00004581,0.00001897,-0.00000524,0.0000058
 4,-0.00018678,-0.00018688,0.00040517,0.00006460,0.00006434,-0.00000720
 ,-0.00000683,0.00001522,-0.00001353,-0.00093078,-0.00141009,-0.0002056
 9,0.00014268,0.00012559,-0.00080689,-0.00015575,-0.00005948,-0.0000080
 8,-0.00008231,-0.00017543,0.00073473,0.00018368,0.00024079,0.00000318,
 0.00081594,0.00039605,0.00065418,0.00076325,0.00087353,-0.00508061,-0.
 07717251,0.03363546,-0.03493831,0.04519019,-0.03032887,0.03781680,-0.0
 0000099,0.00001574,-0.00000523,0.00000169,-0.00000182,0.00000155,-0.00
 000510,-0.00000579,-0.00000054,-0.00001422,0.00000367,0.00000378,-0.00
 000325,-0.00000496,0.00000278,-0.00000078,-0.00000089,-0.00000011,0.00
 000547,0.00000559,-0.00000241,0.00000405,-0.00000335,-0.00000255,0.000
 00041,-0.00000172,0.00000074,0.00000589,-0.00000053,0.00000301,-0.0000
 0463,0.00001091,-0.00000480,0.00001279,0.00000118,0.00000185,-0.000116
 88,-0.00013635,0.00003723,0.00001359,0.00001720,0.00000485,0.00000618,
 0.00001187,-0.00000474,-0.00035028,-0.00014532,-0.00006123,0.00018580,
 0.00006629,-0.00003747,-0.00001841,0.00000463,0.00002160,-0.00028742,-
 0.00013698,0.00001705,-0.00000298,0.00000625,-0.00001483,0.00038054,0.
 00007051,0.00010092,-0.00091193,0.00082523,-0.00092302,-0.15029069,-0.
 12452214,0.12539453,-0.01963200,-0.03217548,0.03135642,0.17104980,-0.0
 0000388,0.00000619,-0.00000805,0.00000618,-0.00000143,0.00000466,0.000
 00155,-0.00000254,-0.00000223,-0.00000369,0.00001234,0.00000421,0.0000
 0202,-0.00000705,-0.00000372,-0.00000026,0.,0.00000338,0.00000212,0.00
 000442,0.00000017,0.00000250,0.00000004,-0.00000128,0.00000096,-0.0000
 0109,0.00000192,0.00000144,-0.00000173,0.00000041,-0.00001282,0.000014
 05,-0.00000588,0.00000884,-0.00000438,0.00000268,-0.00005110,-0.000060
 85,0.00002224,0.00000985,0.00000895,-0.00000015,0.00001114,0.00001396,
 -0.00000304,-0.00047802,-0.00062139,0.00005206,0.00004009,-0.00007691,
 -0.00015089,-0.00012906,-0.00001413,0.00000575,-0.00002096,0.00005363,
 0.00023447,0.00000675,0.00000890,-0.00000790,0.00035715,0.00013305,0.0
 0001065,0.00116598,0.00025647,0.00012311,-0.16464500,-0.21852796,0.213
 46434,0.00763176,0.00308407,-0.00326291,0.15611636,0.21565529,-0.00000
 073,-0.00000700,-0.00000294,-0.00000109,0.00000323,0.00000446,-0.00000
 213,0.00000826,-0.00000966,0.00000573,-0.00000010,0.00001080,-0.000001
 02,-0.00000204,-0.00000364,0.00000077,0.00000269,0.00000204,0.00000006
 ,0.00000021,0.00000103,0.00000117,0.00000064,-0.00000127,-0.00000007,0
 .00000115,0.00000112,-0.00000117,-0.00000123,0.00000035,0.00000010,-0.
 00001602,-0.00001426,-0.00000837,0.00000004,0.00000491,0.00002209,0.00
 005741,0.00003320,-0.00000974,-0.00001934,-0.00000174,-0.00000728,-0.0
 0000666,-0.00000471,0.00041607,0.00038188,0.00009226,-0.00012909,-0.00
 017874,-0.00000253,-0.00007024,-0.00004547,0.00000979,0.00006296,0.000
 15691,0.00003492,-0.00002292,-0.00002282,-0.00000734,-0.00029414,-0.00
 011414,-0.00006735,-0.00105634,-0.00011701,-0.00030091,0.16312128,0.21
 164707,-0.20827582,-0.00613755,-0.00123231,0.00153791,-0.15593071,-0.2
 1047387,0.20693898,-0.00001775,-0.00031007,-0.00012572,0.00011324,0.00
 002158,0.00009055,0.00040249,0.00018765,-0.00022404,-0.00067246,0.0002
 0016,0.00062023,0.00004423,-0.00000389,-0.00007759,-0.00000318,-0.0000
 0770,0.00003323,-0.00002737,-0.00001368,0.00005392,-0.00002613,0.00003
 363,0.00000811,0.00001308,0.00000890,0.00001431,-0.00003347,-0.0000153
 8,-0.00001566,-0.00052777,-0.00003095,-0.00005703,0.00010153,-0.000203
 54,0.00004256,-0.00049662,-0.00064878,0.00003040,0.00015880,0.00005859
 ,-0.00002341,0.00012623,0.00007613,0.00002981,-0.00756051,-0.00370066,
 -0.00068111,0.00068774,0.00083007,-0.00007015,-0.00010933,0.00023115,-
 0.00001645,0.00010327,-0.00012518,0.00003763,-0.00009750,0.00021068,-0
 .00001464,0.00391681,0.00003274,0.00032578,0.00016931,0.00946861,0.000
 07971,-0.00047969,0.00023391,-0.00003329,0.00062032,-0.00019210,0.0000
 7872,0.00017531,-0.00007565,-0.00004371,0.30062956,0.00007486,-0.00068
 133,0.00011349,-0.00012050,0.00005442,-0.00006358,0.00013288,0.0004541
 0,-0.00013468,0.00101424,-0.00007785,0.00030920,-0.00016166,0.00016458
 ,-0.00002146,0.00002015,0.00001747,-0.00004090,-0.00005412,-0.00008586
 ,0.00008887,-0.00007196,0.00002411,0.00001742,-0.00002129,0.00003119,-
 0.00002828,-0.00005754,0.00002109,-0.00001648,-0.00023451,-0.00027761,
 -0.00003578,-0.00013373,-0.00014580,-0.00000415,0.00133402,0.00139179,
 0.00012812,-0.00015477,-0.00031775,-0.00007078,-0.00014965,-0.00028399
 ,0.00002875,0.00295611,0.00481989,0.00038138,-0.00034432,-0.00095078,0
 .00024703,0.00007527,-0.00023568,0.00002158,-0.00005342,0.00002517,-0.
 00001480,0.00009888,-0.00021985,-0.00002030,-0.00238712,-0.00282175,-0
 .00039725,0.00526403,-0.00877641,0.00003169,0.00087522,0.00030506,0.00
 005533,-0.00139816,-0.00036758,-0.00009484,-0.00000886,-0.00013378,0.0
 0001342,-0.16862733,0.51172840,-0.00000560,0.00005936,0.00004345,0.000
 01677,-0.00002346,-0.00008142,-0.00016305,-0.00011824,0.00049486,0.000
 39412,0.00017777,-0.00112118,-0.00004321,0.00002975,0.00006898,-0.0000
 0930,-0.00003887,-0.00002560,-0.00000526,0.00000113,-0.00000636,-0.000
 01739,-0.00001205,0.00000685,-0.00000016,-0.00001333,-0.00001192,0.000
 01059,0.00001332,0.00000210,0.00007964,0.00000183,0.00015024,-0.000016
 93,0.00001837,-0.00010319,0.00022187,0.00009573,-0.00008170,-0.0000413
 1,0.00003638,0.00001184,-0.00003113,-0.00012373,0.00000190,-0.00000001
 ,0.00033486,-0.00067217,0.00007875,-0.00009912,-0.00045660,0.00004348,
 -0.00005476,0.00002627,0.00000481,-0.00000402,-0.00002408,-0.00003720,
 0.00002768,0.00000647,-0.00036439,-0.00012249,0.00123813,0.00025413,-0
 .00024439,0.00299385,0.00000273,0.00001088,0.00021901,-0.00001690,0.00
 001045,-0.00016885,-0.00005174,0.00000512,-0.00007673,0.14491600,0.233
 15062,0.32279494,0.00003023,-0.00006606,0.00004678,-0.00002259,-0.0000
 0080,-0.00006027,-0.00003364,-0.00000092,0.00013990,0.00031735,0.00014
 843,-0.00032305,-0.00006632,0.00003531,0.00004032,-0.00000057,-0.00001
 035,-0.00002285,-0.00000117,-0.00000691,0.00001349,-0.00001470,-0.0000
 0952,0.00000202,-0.00000690,-0.00000085,-0.00001394,0.00000422,0.00001
 150,0.00000371,-0.00002173,-0.00003833,0.00003885,-0.00000266,-0.00002
 077,-0.00003441,0.00002413,0.00004358,-0.00002528,-0.00001647,-0.00000
 282,0.00000375,-0.00000342,-0.00002178,-0.00000596,0.00034285,-0.00009
 858,0.00002020,-0.00001175,0.00000823,0.00006647,0.00000069,0.00000995
 ,-0.00000695,0.00000241,0.00000944,0.00000060,0.00001270,-0.00001570,0
 .00000136,-0.00020047,-0.00008302,0.00004636,-0.00097540,0.00024825,-0
 .00053603,0.00001945,-0.00020025,-0.00005481,0.00007652,0.00018174,0.0
 0005475,-0.00007415,0.00007035,0.00004103,-0.06525278,-0.08840822,-0.1
 2926363,0.05907241,-0.00001842,0.00006377,-0.00000636,-0.00000044,-0.0
 0000596,-0.00000220,-0.00005940,0.00003111,0.00009043,0.00000663,-0.00
 012984,-0.00020158,-0.00001664,-0.00000433,0.00001460,-0.00000181,-0.0
 0001205,-0.00000133,0.00000916,0.00001610,-0.00001181,0.00000839,-0.00
 000610,-0.00000465,0.00000307,-0.00000827,0.00000536,0.00001426,-0.000
 00227,0.00000488,0.00007993,-0.00001097,0.00003128,0.00000860,0.000015
 05,-0.00001691,-0.00007026,-0.00017846,-0.00001587,0.00000749,0.000024
 25,0.00001828,0.00000758,-0.00001431,-0.00001123,-0.00063518,-0.000659
 25,-0.00024663,0.00006864,0.00010420,-0.00012722,-0.00000775,0.0000098
 3,0.00001340,0.00000910,-0.00000582,-0.00000156,-0.00002307,0.00001741
 ,0.00000041,0.00028853,-0.00001670,0.00025039,0.00048666,0.00071878,0.
 00078421,-0.00015104,0.00000891,0.00004528,0.00017916,-0.00003141,-0.0
 0005886,0.00003341,0.00001589,-0.00001204,-0.05311267,-0.21858985,-0.2
 1998775,0.06670907,0.24014358,-0.00000353,0.00000804,-0.00000701,0.000
 00198,0.00000046,0.00001474,0.00011050,0.00004725,-0.00000832,-0.00025
 277,-0.00013676,0.00004542,0.00002164,-0.00001416,-0.00002177,0.000001
 38,0.00001303,0.00000747,0.00000364,0.00000096,0.00000002,0.00000933,0
 .00000264,-0.00000227,0.00000020,0.00000353,0.00000287,-0.00000111,-0.
 00000430,-0.00000112,-0.00002279,0.00002793,-0.00002740,0.00001378,0.0
 0000646,0.00001088,-0.00014259,-0.00009357,0.00003363,0.00002363,0.000
 02926,-0.00000193,0.00001587,0.00004478,0.00000123,-0.00035968,-0.0005
 3319,0.00006110,0.00002038,0.00010093,-0.00001235,-0.00001140,0.000019
 72,-0.00000498,0.00000355,-0.00000447,0.00001112,-0.00000466,0.0000339
 1,0.00000162,0.00037744,0.00028622,0.00000312,-0.00033503,0.00087387,-
 0.00019989,-0.00005177,0.00003952,-0.00007961,0.00007039,-0.00004011,0
 .00008798,0.00003731,-0.00002391,0.00001345,-0.10198005,-0.25323560,-0
 .29315308,0.10694069,0.24925514,0.29467626,0.00003965,0.00036706,0.000
 04745,-0.00002811,-0.00000797,-0.00001837,-0.00025851,-0.00050083,0.00
 002826,-0.00112598,-0.00022248,-0.00013652,0.00003951,-0.00002802,0.00
 004119,-0.00000162,0.00000469,-0.00000585,0.00001799,0.00001048,-0.000
 05247,0.00002430,-0.00001774,-0.00000493,-0.00000273,-0.00000509,-0.00
 000198,0.00001786,0.00000459,0.00000941,0.00030014,-0.00014974,0.00000
 940,-0.00007865,0.00014687,-0.00000492,-0.00002538,0.00063210,-0.00009
 272,-0.00010272,-0.00001866,0.00003195,-0.00006722,0.00001650,-0.00003
 232,0.01315031,0.00657198,0.00117320,-0.00108016,-0.00145702,-0.000063
 16,0.00017952,-0.00039756,0.00004348,-0.00016958,0.00018061,-0.0000519
 9,0.00014264,-0.00029393,0.00001075,-0.00584226,0.00005976,-0.00057690
 ,-0.00493221,-0.00882727,0.00056752,0.00073369,-0.00007535,0.00004687,
 -0.00114236,0.00005365,-0.00012079,-0.00012780,-0.00001460,0.00004503,
 -0.23195737,0.25054152,-0.01595567,0.00680179,-0.01382301,-0.00448630,
 0.22549525,-0.00006191,0.00017987,-0.00013388,0.00014052,-0.00004262,0
 .00005689,0.00010756,-0.00017796,0.00003023,-0.00089972,0.00039210,0.0
 0001081,0.00009026,-0.00010363,-0.00002095,-0.00001668,-0.00001894,0.0
 0003419,0.00002992,0.00005913,-0.00000999,0.00003195,-0.00000604,-0.00
 000950,0.00001817,-0.00001893,0.00001911,0.00003340,-0.00001896,0.0000
 0666,-0.00027154,0.00026497,-0.00000565,0.00024627,-0.00007740,0.00001
 659,-0.00222774,-0.00197316,-0.00015644,0.00034429,0.00046646,0.000071
 62,0.00033459,0.00046512,-0.00002097,-0.00512564,-0.01183963,-0.000039
 68,0.00051787,0.00151592,-0.00016333,-0.00014838,0.00038673,-0.0000340
 2,0.00011110,-0.00003620,0.00002933,-0.00014706,0.00032264,0.00001848,
 0.00517789,0.00161520,0.00051932,-0.00333854,0.00651009,-0.00058485,-0
 .00129206,-0.00046902,-0.00010619,0.00215786,0.00064245,0.00019836,-0.
 00004465,0.00018598,-0.00002411,0.21547378,-0.28507142,-0.01313103,0.0
 2150901,-0.02149331,0.00329241,-0.23275052,0.30834055,-0.00000015,-0.0
 0003812,-0.00002402,-0.00000236,0.00001482,0.00002413,-0.00000755,0.00
 001884,-0.00018686,0.00003475,0.00006943,0.00037225,0.00000706,-0.0000
 1507,-0.00002085,0.00000300,0.00001419,0.00000958,0.00000122,0.0000021
 7,0.00000747,0.00000394,0.00000382,-0.00000265,0.,0.00000606,0.0000032
 9,-0.00000481,-0.00000528,-0.00000016,-0.00003455,-0.00002333,-0.00009
 883,0.00000124,-0.00001907,0.00004229,-0.00008317,-0.00001881,-0.00008
 005,-0.00001697,-0.00007844,-0.00001224,0.00004168,0.00009853,-0.00000
 468,0.00069398,0.00047259,0.00111798,-0.00015403,0.00002375,0.00098595
 ,-0.00006668,0.00010632,-0.00005333,-0.00001637,0.00000230,0.00001254,
 0.00008346,-0.00015351,-0.00001863,-0.00015211,-0.00007240,-0.00105756
 ,0.00019436,-0.00031511,-0.00495015,0.00004510,-0.00003754,-0.00018293
 ,-0.00006595,0.00001427,0.00002897,0.00005577,0.00000864,0.00008367,-0
 .04299812,0.01959198,-0.03207604,0.02288689,-0.02980765,-0.00145121,0.
 01955038,0.01013660,0.03753209\\0.00000156,-0.00000472,0.00000868,-0.0
 0000340,0.00000285,0.00001132,-0.00000110,-0.00000191,0.00000254,0.000
 00019,0.00000262,0.00000939,0.00000036,-0.00000551,-0.00000034,0.00000
 250,-0.00001145,-0.00000427,0.00000414,-0.00000436,0.00000520,-0.00000
 065,-0.00001528,0.00000880,-0.00000266,-0.00000509,0.00001223,-0.00000
 234,-0.00000865,-0.00000058,-0.00000302,-0.00000009,-0.00000778,0.0000
 0216,0.00000232,-0.00001237,0.00000261,0.00002023,-0.00001107,0.000002
 57,0.00000552,-0.00001446,0.00000500,-0.00000694,-0.00001254,-0.000001
 98,0.00000993,-0.00000224,0.00000191,-0.00000045,-0.00002167,0.0000057
 7,0.00000881,-0.00001241,0.00000141,0.00000212,-0.00001317,0.00000130,
 -0.00000459,-0.00001449,0.00000180,-0.00000980,0.00000162,-0.00001404,
 0.00001202,-0.00000560,0.00000783,0.00000233,0.00000303,-0.00000169,0.
 00000350,0.00000536,-0.00000461,0.00000869,0.00000420,-0.00000432,0.00
 000643,0.00002317,-0.00000468,-0.00000520,0.00002213,0.00000337,-0.000
 00333,0.00001531\\\@


 TIME GOES, YOU SAY?  AH NO!
 ALAS, TIME STAYS, WE GO.
    -- A. DOBSON (1840-1921)
 Job cpu time:       0 days  9 hours 12 minutes 44.2 seconds.
 File lengths (MBytes):  RWF=    643 Int=      0 D2E=      0 Chk=     22 Scr=      1
 Normal termination of Gaussian 09 at Wed Feb  9 16:14:12 2022.
