 Entering Gaussian System, Link 0=g09
 Input=dieneophile_water_ma2.com
 Output=dieneophile_water_ma2.log
 Initial command:
 /apps/applications/gaussian/G09.D01/2/default/g09/l1.exe "/nobackup/pmmass/Temp/Gau-264741.inp" -scrdir="/nobackup/pmmass/Temp/"
 Entering Link 1 = /apps/applications/gaussian/G09.D01/2/default/g09/l1.exe PID=    264742.
  
 Copyright (c) 1988,1990,1992,1993,1995,1998,2003,2009,2013,
            Gaussian, Inc.  All Rights Reserved.
  
 This is part of the Gaussian(R) 09 program.  It is based on
 the Gaussian(R) 03 system (copyright 2003, Gaussian, Inc.),
 the Gaussian(R) 98 system (copyright 1998, Gaussian, Inc.),
 the Gaussian(R) 94 system (copyright 1995, Gaussian, Inc.),
 the Gaussian 92(TM) system (copyright 1992, Gaussian, Inc.),
 the Gaussian 90(TM) system (copyright 1990, Gaussian, Inc.),
 the Gaussian 88(TM) system (copyright 1988, Gaussian, Inc.),
 the Gaussian 86(TM) system (copyright 1986, Carnegie Mellon
 University), and the Gaussian 82(TM) system (copyright 1983,
 Carnegie Mellon University). Gaussian is a federally registered
 trademark of Gaussian, Inc.
  
 This software contains proprietary and confidential information,
 including trade secrets, belonging to Gaussian, Inc.
  
 This software is provided under written license and may be
 used, copied, transmitted, or stored only in accord with that
 written license.
  
 The following legend is applicable only to US Government
 contracts under FAR:
  
                    RESTRICTED RIGHTS LEGEND
  
 Use, reproduction and disclosure by the US Government is
 subject to restrictions as set forth in subparagraphs (a)
 and (c) of the Commercial Computer Software - Restricted
 Rights clause in FAR 52.227-19.
  
 Gaussian, Inc.
 340 Quinnipiac St., Bldg. 40, Wallingford CT 06492
  
  
 ---------------------------------------------------------------
 Warning -- This program may not be used in any manner that
 competes with the business of Gaussian, Inc. or will provide
 assistance to any competitor of Gaussian, Inc.  The licensee
 of this program is prohibited from giving any competitor of
 Gaussian, Inc. access to this program.  By using this program,
 the user acknowledges that Gaussian, Inc. is engaged in the
 business of creating and licensing software in the field of
 computational chemistry and represents and warrants to the
 licensee that it is not a competitor of Gaussian, Inc. and that
 it will not use this program in any manner prohibited above.
 ---------------------------------------------------------------
  

 Cite this work as:
 Gaussian 09, Revision D.01,
 M. J. Frisch, G. W. Trucks, H. B. Schlegel, G. E. Scuseria, 
 M. A. Robb, J. R. Cheeseman, G. Scalmani, V. Barone, B. Mennucci, 
 G. A. Petersson, H. Nakatsuji, M. Caricato, X. Li, H. P. Hratchian, 
 A. F. Izmaylov, J. Bloino, G. Zheng, J. L. Sonnenberg, M. Hada, 
 M. Ehara, K. Toyota, R. Fukuda, J. Hasegawa, M. Ishida, T. Nakajima, 
 Y. Honda, O. Kitao, H. Nakai, T. Vreven, J. A. Montgomery, Jr., 
 J. E. Peralta, F. Ogliaro, M. Bearpark, J. J. Heyd, E. Brothers, 
 K. N. Kudin, V. N. Staroverov, T. Keith, R. Kobayashi, J. Normand, 
 K. Raghavachari, A. Rendell, J. C. Burant, S. S. Iyengar, J. Tomasi, 
 M. Cossi, N. Rega, J. M. Millam, M. Klene, J. E. Knox, J. B. Cross, 
 V. Bakken, C. Adamo, J. Jaramillo, R. Gomperts, R. E. Stratmann, 
 O. Yazyev, A. J. Austin, R. Cammi, C. Pomelli, J. W. Ochterski, 
 R. L. Martin, K. Morokuma, V. G. Zakrzewski, G. A. Voth, 
 P. Salvador, J. J. Dannenberg, S. Dapprich, A. D. Daniels, 
 O. Farkas, J. B. Foresman, J. V. Ortiz, J. Cioslowski, 
 and D. J. Fox, Gaussian, Inc., Wallingford CT, 2013.
 
 ******************************************
 Gaussian 09:  ES64L-G09RevD.01 24-Apr-2013
                21-Feb-2022 
 ******************************************
 %nprocshared=8
 Will use up to    8 processors via shared memory.
 %mem=4GB
 %NoSave
 %chk="dieneophile_water_ma2.chk"
 ----------------------------------------------------------------
 #n wB97XD/Gen scrf(smd,solvent=toluene) opt int=(grid=ultrafine)
 ----------------------------------------------------------------
 1/14=-1,18=20,19=15,26=4,38=1/1,3;
 2/9=110,12=2,17=6,18=5,40=1/2;
 3/5=7,11=2,16=1,25=1,30=1,70=32201,71=1,72=13,74=-58,75=-5/1,2,3;
 4//1;
 5/5=2,38=5,53=13/2;
 6/7=2,8=2,9=2,10=2,28=1/1;
 7//1,2,3,16;
 1/14=-1,18=20,19=15,26=4/3(2);
 2/9=110/2;
 99//99;
 2/9=110/2;
 3/5=7,6=1,11=2,16=1,25=1,30=1,70=32205,71=1,72=13,74=-58,75=-5,82=7/1,2,3;
 4/5=5,16=3,69=1/1;
 5/5=2,38=5,53=13/2;
 7//1,2,3,16;
 1/14=-1,18=20,19=15,26=4/3(-5);
 2/9=110/2;
 6/7=2,8=2,9=2,10=2,19=2,28=1/1;
 99/9=1/99;
 -------------------------------------------
 dieneophile diels-alder toluene 2 h2o - opt
 -------------------------------------------
 Symbolic Z-matrix:
 Charge =  0 Multiplicity = 1
 C                    -1.1302    0.31304   0.02324 
 C                    -0.65867  -1.10697   0.024 
 C                     0.66563  -1.10241   0.00489 
 C                     1.1305    0.32018  -0.00961 
 H                    -1.34915  -1.93701   0.03766 
 H                     1.36173  -1.92784  -0.00144 
 C                    -0.02088   2.55419  -0.00961 
 H                     1.00823   2.90291  -0.05762 
 H                    -0.56753   2.91804  -0.87909 
 H                    -0.4905    2.93795   0.89572 
 N                    -0.00337   1.10989   0.00285 
 O                     2.26589   0.73055  -0.02926 
 O                    -2.26568   0.72455   0.03662 
 O                     3.96356  -1.59207   0.07797 
 H                     4.73069  -1.56004  -0.4955 
 H                     3.56105  -0.71325   0.02701 
 O                    -3.94701  -1.60692  -0.10422 
 H                    -3.55339  -0.72477  -0.04101 
 H                    -4.72994  -1.58225   0.44787 
 
 Add virtual bond connecting atoms H18        and O13        Dist= 3.67D+00.
 Add virtual bond connecting atoms H16        and O12        Dist= 3.67D+00.

 GradGradGradGradGradGradGradGradGradGradGradGradGradGradGradGradGradGrad
 Berny optimization.
 Initialization pass.
                           ----------------------------
                           !    Initial Parameters    !
                           ! (Angstroms and Degrees)  !
 --------------------------                            --------------------------
 ! Name  Definition              Value          Derivative Info.                !
 --------------------------------------------------------------------------------
 ! R1    R(1,2)                  1.4963         estimate D2E/DX2                !
 ! R2    R(1,11)                 1.3803         estimate D2E/DX2                !
 ! R3    R(1,13)                 1.2078         estimate D2E/DX2                !
 ! R4    R(2,3)                  1.3244         estimate D2E/DX2                !
 ! R5    R(2,5)                  1.0798         estimate D2E/DX2                !
 ! R6    R(3,4)                  1.4967         estimate D2E/DX2                !
 ! R7    R(3,6)                  1.0798         estimate D2E/DX2                !
 ! R8    R(4,11)                 1.3818         estimate D2E/DX2                !
 ! R9    R(4,12)                 1.2074         estimate D2E/DX2                !
 ! R10   R(7,8)                  1.0876         estimate D2E/DX2                !
 ! R11   R(7,9)                  1.0896         estimate D2E/DX2                !
 ! R12   R(7,10)                 1.0897         estimate D2E/DX2                !
 ! R13   R(7,11)                 1.4445         estimate D2E/DX2                !
 ! R14   R(12,16)                1.9404         estimate D2E/DX2                !
 ! R15   R(13,18)                1.9403         estimate D2E/DX2                !
 ! R16   R(14,15)                0.9583         estimate D2E/DX2                !
 ! R17   R(14,16)                0.968          estimate D2E/DX2                !
 ! R18   R(17,18)                0.9681         estimate D2E/DX2                !
 ! R19   R(17,19)                0.9583         estimate D2E/DX2                !
 ! A1    A(2,1,11)             106.8957         estimate D2E/DX2                !
 ! A2    A(2,1,13)             128.2872         estimate D2E/DX2                !
 ! A3    A(11,1,13)            124.8171         estimate D2E/DX2                !
 ! A4    A(1,2,3)              108.1696         estimate D2E/DX2                !
 ! A5    A(1,2,5)              121.8724         estimate D2E/DX2                !
 ! A6    A(3,2,5)              129.9579         estimate D2E/DX2                !
 ! A7    A(2,3,4)              108.2991         estimate D2E/DX2                !
 ! A8    A(2,3,6)              129.9448         estimate D2E/DX2                !
 ! A9    A(4,3,6)              121.7561         estimate D2E/DX2                !
 ! A10   A(3,4,11)             106.7532         estimate D2E/DX2                !
 ! A11   A(3,4,12)             127.9713         estimate D2E/DX2                !
 ! A12   A(11,4,12)            125.2755         estimate D2E/DX2                !
 ! A13   A(8,7,9)              109.4152         estimate D2E/DX2                !
 ! A14   A(8,7,10)             109.3616         estimate D2E/DX2                !
 ! A15   A(8,7,11)             108.0287         estimate D2E/DX2                !
 ! A16   A(9,7,10)             109.2177         estimate D2E/DX2                !
 ! A17   A(9,7,11)             110.2954         estimate D2E/DX2                !
 ! A18   A(10,7,11)            110.499          estimate D2E/DX2                !
 ! A19   A(1,11,4)             109.8824         estimate D2E/DX2                !
 ! A20   A(1,11,7)             124.5749         estimate D2E/DX2                !
 ! A21   A(4,11,7)             125.5421         estimate D2E/DX2                !
 ! A22   A(4,12,16)            111.9801         estimate D2E/DX2                !
 ! A23   A(1,13,18)            111.6528         estimate D2E/DX2                !
 ! A24   A(15,14,16)           105.7252         estimate D2E/DX2                !
 ! A25   A(12,16,14)           162.6764         estimate D2E/DX2                !
 ! A26   A(18,17,19)           105.7307         estimate D2E/DX2                !
 ! A27   A(13,18,17)           162.391          estimate D2E/DX2                !
 ! D1    D(11,1,2,3)            -0.0039         estimate D2E/DX2                !
 ! D2    D(11,1,2,5)          -179.9597         estimate D2E/DX2                !
 ! D3    D(13,1,2,3)           179.952          estimate D2E/DX2                !
 ! D4    D(13,1,2,5)            -0.0038         estimate D2E/DX2                !
 ! D5    D(2,1,11,4)             0.0166         estimate D2E/DX2                !
 ! D6    D(2,1,11,7)           179.7564         estimate D2E/DX2                !
 ! D7    D(13,1,11,4)         -179.9412         estimate D2E/DX2                !
 ! D8    D(13,1,11,7)           -0.2014         estimate D2E/DX2                !
 ! D9    D(2,1,13,18)           -3.2577         estimate D2E/DX2                !
 ! D10   D(11,1,13,18)         176.6908         estimate D2E/DX2                !
 ! D11   D(1,2,3,4)             -0.0093         estimate D2E/DX2                !
 ! D12   D(1,2,3,6)           -179.9523         estimate D2E/DX2                !
 ! D13   D(5,2,3,4)            179.9417         estimate D2E/DX2                !
 ! D14   D(5,2,3,6)             -0.0012         estimate D2E/DX2                !
 ! D15   D(2,3,4,11)             0.0195         estimate D2E/DX2                !
 ! D16   D(2,3,4,12)          -179.9376         estimate D2E/DX2                !
 ! D17   D(6,3,4,11)           179.968          estimate D2E/DX2                !
 ! D18   D(6,3,4,12)             0.011          estimate D2E/DX2                !
 ! D19   D(3,4,11,1)            -0.022          estimate D2E/DX2                !
 ! D20   D(3,4,11,7)          -179.7587         estimate D2E/DX2                !
 ! D21   D(12,4,11,1)          179.9365         estimate D2E/DX2                !
 ! D22   D(12,4,11,7)            0.1998         estimate D2E/DX2                !
 ! D23   D(3,4,12,16)           -2.1925         estimate D2E/DX2                !
 ! D24   D(11,4,12,16)         177.8579         estimate D2E/DX2                !
 ! D25   D(8,7,11,1)          -178.1877         estimate D2E/DX2                !
 ! D26   D(8,7,11,4)             1.5116         estimate D2E/DX2                !
 ! D27   D(9,7,11,1)           -58.6444         estimate D2E/DX2                !
 ! D28   D(9,7,11,4)           121.0549         estimate D2E/DX2                !
 ! D29   D(10,7,11,1)           62.2151         estimate D2E/DX2                !
 ! D30   D(10,7,11,4)         -118.0856         estimate D2E/DX2                !
 ! D31   D(4,12,16,14)          -3.134          estimate D2E/DX2                !
 ! D32   D(1,13,18,17)          -3.5609         estimate D2E/DX2                !
 ! D33   D(15,14,16,12)        144.5028         estimate D2E/DX2                !
 ! D34   D(19,17,18,13)        146.036          estimate D2E/DX2                !
 --------------------------------------------------------------------------------
 Trust Radius=3.00D-01 FncErr=1.00D-07 GrdErr=1.00D-06
 Number of steps in this run=     90 maximum allowed number of steps=    114.
 GradGradGradGradGradGradGradGradGradGradGradGradGradGradGradGradGradGrad

                          Input orientation:                          
 ---------------------------------------------------------------------
 Center     Atomic      Atomic             Coordinates (Angstroms)
 Number     Number       Type             X           Y           Z
 ---------------------------------------------------------------------
      1          6           0       -1.130200    0.313040    0.023240
      2          6           0       -0.658670   -1.106970    0.024000
      3          6           0        0.665630   -1.102410    0.004890
      4          6           0        1.130500    0.320180   -0.009610
      5          1           0       -1.349150   -1.937010    0.037660
      6          1           0        1.361730   -1.927840   -0.001440
      7          6           0       -0.020880    2.554190   -0.009610
      8          1           0        1.008230    2.902910   -0.057620
      9          1           0       -0.567530    2.918040   -0.879090
     10          1           0       -0.490500    2.937950    0.895720
     11          7           0       -0.003370    1.109890    0.002850
     12          8           0        2.265890    0.730550   -0.029260
     13          8           0       -2.265680    0.724550    0.036620
     14          8           0        3.963560   -1.592070    0.077970
     15          1           0        4.730690   -1.560040   -0.495500
     16          1           0        3.561050   -0.713250    0.027010
     17          8           0       -3.947010   -1.606920   -0.104220
     18          1           0       -3.553390   -0.724770   -0.041010
     19          1           0       -4.729940   -1.582250    0.447870
 ---------------------------------------------------------------------
                    Distance matrix (angstroms):
                    1          2          3          4          5
     1  C    0.000000
     2  C    1.496252   0.000000
     3  C    2.286666   1.324446   0.000000
     4  C    2.260950   2.288890   1.496689   0.000000
     5  H    2.260724   1.079776   2.181048   3.353477   0.000000
     6  H    3.351398   2.180938   1.079782   2.259896   2.711177
     7  C    2.500885   3.716450   3.720515   2.513260   4.683739
     8  H    3.359590   4.343312   4.020432   2.586068   5.384343
     9  H    2.813685   4.126086   4.297223   3.223070   5.002287
    10  H    2.839118   4.141202   4.295896   3.209359   5.023821
    11  N    1.380265   2.311781   2.311241   1.381832   3.331056
    12  O    3.422061   3.454326   2.433463   1.207435   4.493203
    13  O    1.207822   2.436618   3.454181   3.420481   2.814948
    14  O    5.438642   4.647929   3.334884   3.419152   5.324049
    15  H    6.174751   5.433264   4.121229   4.090560   6.114803
    16  H    4.802199   4.238049   2.921539   2.641381   5.060412
    17  O    3.411292   3.328599   4.641431   5.431738   2.622588
    18  H    2.636859   2.920566   4.236136   4.799139   2.516821
    19  H    4.090301   4.120776   5.434947   6.178453   3.424013
                    6          7          8          9         10
     6  H    0.000000
     7  C    4.690445   0.000000
     8  H    4.843993   1.087648   0.000000
     9  H    5.289127   1.089591   1.777094   0.000000
    10  H    5.283140   1.089696   1.776591   1.776592   0.000000
    11  N    3.330363   1.444460   2.059590   2.089378   2.091965
    12  O    2.808081   2.924956   2.510311   3.679075   3.650464
    13  O    4.493854   2.896351   3.933525   2.921239   2.964533
    14  O    2.624608   5.751079   5.381190   6.464351   6.405345
    15  H    3.424801   6.303998   5.828067   6.947768   7.030521
    16  H    2.512578   4.848477   4.427264   5.572473   5.522769
    17  O    5.319424   5.721738   6.700384   5.700576   5.796825
    18  H    5.060370   4.819875   5.828269   4.784120   4.865622
    19  H    6.117986   6.284478   7.300601   6.272088   6.213343
                   11         12         13         14         15
    11  N    0.000000
    12  O    2.300972   0.000000
    13  O    2.295141   4.532053   0.000000
    14  O    4.800288   2.878914   6.646192   0.000000
    15  H    5.457857   3.396972   7.379139   0.958323   0.000000
    16  H    4.003687   1.940403   6.001512   0.967954   1.535620
    17  O    4.790075   6.638487   2.877926   7.912682   8.686643
    18  H    3.996316   5.998509   1.940297   7.567754   8.338478
    19  H    5.457667   7.383653   3.400446   8.701371   9.507574
                   16         17         18         19
    16  H    0.000000
    17  O    7.562198   0.000000
    18  H    7.114774   0.968050   0.000000
    19  H    8.347023   0.958327   1.535756   0.000000
 Stoichiometry    C5H9NO4
 Framework group  C1[X(C5H9NO4)]
 Deg. of freedom    51
 Full point group                 C1      NOp   1
 Largest Abelian subgroup         C1      NOp   1
 Largest concise Abelian subgroup C1      NOp   1
                         Standard orientation:                         
 ---------------------------------------------------------------------
 Center     Atomic      Atomic             Coordinates (Angstroms)
 Number     Number       Type             X           Y           Z
 ---------------------------------------------------------------------
      1          6           0       -1.130199    0.313040    0.023241
      2          6           0       -0.658670   -1.106970    0.024001
      3          6           0        0.665630   -1.102410    0.004891
      4          6           0        1.130501    0.320179   -0.009609
      5          1           0       -1.349150   -1.937010    0.037661
      6          1           0        1.361730   -1.927841   -0.001439
      7          6           0       -0.020879    2.554190   -0.009609
      8          1           0        1.008231    2.902909   -0.057619
      9          1           0       -0.567529    2.918040   -0.879089
     10          1           0       -0.490499    2.937950    0.895721
     11          7           0       -0.003369    1.109890    0.002851
     12          8           0        2.265891    0.730549   -0.029259
     13          8           0       -2.265679    0.724550    0.036621
     14          8           0        3.963560   -1.592071    0.077971
     15          1           0        4.730690   -1.560041   -0.495499
     16          1           0        3.561050   -0.713251    0.027011
     17          8           0       -3.947010   -1.606920   -0.104219
     18          1           0       -3.553390   -0.724770   -0.041009
     19          1           0       -4.729940   -1.582250    0.447871
 ---------------------------------------------------------------------
 Rotational constants (GHZ):      1.8880710      0.6444924      0.4826310
 General basis read from cards:  (5D, 7F)
 There are   454 symmetry adapted cartesian basis functions of A   symmetry.
 There are   404 symmetry adapted basis functions of A   symmetry.
   404 basis functions,   622 primitive gaussians,   454 cartesian basis functions
    39 alpha electrons       39 beta electrons
       nuclear repulsion energy       526.1510881647 Hartrees.
 NAtoms=   19 NActive=   19 NUniq=   19 SFac= 1.00D+00 NAtFMM=   60 NAOKFM=F Big=F
 Integral buffers will be    131072 words long.
 Raffenetti 2 integral format.
 Two-electron integral symmetry is turned on.
 Nuclear repulsion after empirical dispersion term =      526.1426160659 Hartrees.
 ------------------------------------------------------------------------------
 Polarizable Continuum Model (PCM)
 =================================
 Model                : PCM (using non-symmetric T matrix).
 Atomic radii         : SMD-Coulomb.
 Polarization charges : Total charges.
 Charge compensation  : None.
 Solution method      : On-the-fly selection.
 Cavity type          : VdW (van der Waals Surface) (Alpha=1.000).
 Cavity algorithm     : GePol (No added spheres)
                        Default sphere list used, NSphG=   19.
                        Lebedev-Laikov grids with approx.  5.0 points / Ang**2.
                        Smoothing algorithm: Karplus/York (Gamma=1.0000).
                        Polarization charges: spherical gaussians, with
                                              point-specific exponents (IZeta= 3).
                        Self-potential: point-specific (ISelfS= 7).
                        Self-field    : sphere-specific E.n sum rule (ISelfD= 2).
 1st derivatives      : Analytical E(r).r(x)/FMM algorithm (CHGder, D1EAlg=3).
                        Cavity 1st derivative terms included.
 Solvent              : Toluene, Eps=   2.374100 Eps(inf)=   2.238315
 ------------------------------------------------------------------------------
 Spheres list:
 ISph  on   Nord     Re0    Alpha      Xe            Ye            Ze
    1   C      1    1.8500  1.000     -1.130199      0.313040      0.023241
    2   C      2    1.8500  1.000     -0.658670     -1.106970      0.024001
    3   C      3    1.8500  1.000      0.665630     -1.102410      0.004891
    4   C      4    1.8500  1.000      1.130501      0.320179     -0.009609
    5   H      5    1.2000  1.000     -1.349150     -1.937010      0.037661
    6   H      6    1.2000  1.000      1.361730     -1.927841     -0.001439
    7   C      7    1.8500  1.000     -0.020879      2.554190     -0.009609
    8   H      8    1.2000  1.000      1.008231      2.902909     -0.057619
    9   H      9    1.2000  1.000     -0.567529      2.918040     -0.879089
   10   H     10    1.2000  1.000     -0.490499      2.937950      0.895721
   11   N     11    1.8900  1.000     -0.003369      1.109890      0.002851
   12   O     12    2.2940  1.000      2.265891      0.730549     -0.029259
   13   O     13    2.2940  1.000     -2.265679      0.724550      0.036621
   14   O     14    2.2940  1.000      3.963560     -1.592071      0.077971
   15   H     15    1.2000  1.000      4.730690     -1.560041     -0.495499
   16   H     16    1.2000  1.000      3.561050     -0.713251      0.027011
   17   O     17    2.2940  1.000     -3.947010     -1.606920     -0.104219
   18   H     18    1.2000  1.000     -3.553390     -0.724770     -0.041009
   19   H     19    1.2000  1.000     -4.729940     -1.582250      0.447871
 ------------------------------------------------------------------------------
 ------------------------------------------------------------------------------
 Atomic radii for non-electrostatic terms: SMD-CDS.
 ------------------------------------------------------------------------------
 Nuclear repulsion after PCM non-electrostatic terms =      526.1357613407 Hartrees.
 One-electron integrals computed using PRISM.
 NBasis=   404 RedAO= T EigKep=  9.08D-06  NBF=   404
 NBsUse=   403 1.00D-06 EigRej=  8.22D-07 NBFU=   403
 ExpMin= 3.17D-02 ExpMax= 2.70D+04 ExpMxC= 9.22D+02 IAcc=3 IRadAn=         5 AccDes= 0.00D+00
 Harris functional with IExCor= 4639 and IRadAn=       5 diagonalized for initial guess.
 HarFok:  IExCor= 4639 AccDes= 0.00D+00 IRadAn=         5 IDoV= 1 UseB2=F ITyADJ=14
 ICtDFT=  3500011 ScaDFX=  1.000000  1.000000  1.000000  1.000000
 FoFCou: FMM=F IPFlag=           0 FMFlag=      100000 FMFlg1=           0
         NFxFlg=           0 DoJE=T BraDBF=F KetDBF=T FulRan=T
         wScrn=  0.000000 ICntrl=     500 IOpCl=  0 I1Cent=   200000004 NGrid=           0
         NMat0=    1 NMatS0=      1 NMatT0=    0 NMatD0=    1 NMtDS0=    0 NMtDT0=    0
 Petite list used in FoFCou.
 Requested convergence on RMS density matrix=1.00D-08 within 128 cycles.
 Requested convergence on MAX density matrix=1.00D-06.
 Requested convergence on             energy=1.00D-06.
 No special actions if energy rises.
 Inv3:  Mode=1 IEnd=     9644547.
 Iteration    1 A*A^-1 deviation from unit magnitude is 4.22D-15 for   1779.
 Iteration    1 A*A^-1 deviation from orthogonality  is 1.65D-15 for   1776   1607.
 Iteration    1 A^-1*A deviation from unit magnitude is 4.66D-15 for   1779.
 Iteration    1 A^-1*A deviation from orthogonality  is 1.55D-15 for    231    179.
 Error on total polarization charges =  0.00885
 SCF Done:  E(RwB97XD) =  -551.684314169     A.U. after   13 cycles
            NFock= 13  Conv=0.61D-08     -V/T= 2.0043
 SMD-CDS (non-electrostatic) energy       (kcal/mol) =      -4.30
 (included in total energy above)

 **********************************************************************

            Population analysis using the SCF density.

 **********************************************************************

 Orbital symmetries:
       Occupied  (A) (A) (A) (A) (A) (A) (A) (A) (A) (A) (A) (A)
                 (A) (A) (A) (A) (A) (A) (A) (A) (A) (A) (A) (A)
                 (A) (A) (A) (A) (A) (A) (A) (A) (A) (A) (A) (A)
                 (A) (A) (A)
       Virtual   (A) (A) (A) (A) (A) (A) (A) (A) (A) (A) (A) (A)
                 (A) (A) (A) (A) (A) (A) (A) (A) (A) (A) (A) (A)
                 (A) (A) (A) (A) (A) (A) (A) (A) (A) (A) (A) (A)
                 (A) (A) (A) (A) (A) (A) (A) (A) (A) (A) (A) (A)
                 (A) (A) (A) (A) (A) (A) (A) (A) (A) (A) (A) (A)
                 (A) (A) (A) (A) (A) (A) (A) (A) (A) (A) (A) (A)
                 (A) (A) (A) (A) (A) (A) (A) (A) (A) (A) (A) (A)
                 (A) (A) (A) (A) (A) (A) (A) (A) (A) (A) (A) (A)
                 (A) (A) (A) (A) (A) (A) (A) (A) (A) (A) (A) (A)
                 (A) (A) (A) (A) (A) (A) (A) (A) (A) (A) (A) (A)
                 (A) (A) (A) (A) (A) (A) (A) (A) (A) (A) (A) (A)
                 (A) (A) (A) (A) (A) (A) (A) (A) (A) (A) (A) (A)
                 (A) (A) (A) (A) (A) (A) (A) (A) (A) (A) (A) (A)
                 (A) (A) (A) (A) (A) (A) (A) (A) (A) (A) (A) (A)
                 (A) (A) (A) (A) (A) (A) (A) (A) (A) (A) (A) (A)
                 (A) (A) (A) (A) (A) (A) (A) (A) (A) (A) (A) (A)
                 (A) (A) (A) (A) (A) (A) (A) (A) (A) (A) (A) (A)
                 (A) (A) (A) (A) (A) (A) (A) (A) (A) (A) (A) (A)
                 (A) (A) (A) (A) (A) (A) (A) (A) (A) (A) (A) (A)
                 (A) (A) (A) (A) (A) (A) (A) (A) (A) (A) (A) (A)
                 (A) (A) (A) (A) (A) (A) (A) (A) (A) (A) (A) (A)
                 (A) (A) (A) (A) (A) (A) (A) (A) (A) (A) (A) (A)
                 (A) (A) (A) (A) (A) (A) (A) (A) (A) (A) (A) (A)
                 (A) (A) (A) (A) (A) (A) (A) (A) (A) (A) (A) (A)
                 (A) (A) (A) (A) (A) (A) (A) (A) (A) (A) (A) (A)
                 (A) (A) (A) (A) (A) (A) (A) (A) (A) (A) (A) (A)
                 (A) (A) (A) (A) (A) (A) (A) (A) (A) (A) (A) (A)
                 (A) (A) (A) (A) (A) (A) (A) (A) (A) (A) (A) (A)
                 (A) (A) (A) (A) (A) (A) (A) (A) (A) (A) (A) (A)
                 (A) (A) (A) (A) (A) (A) (A) (A) (A) (A) (A) (A)
                 (A) (A) (A) (A)
 The electronic state is 1-A.
 Alpha  occ. eigenvalues --  -19.27023 -19.26992 -19.23626 -19.23621 -14.49945
 Alpha  occ. eigenvalues --  -10.42942 -10.42816 -10.32868 -10.32808 -10.32770
 Alpha  occ. eigenvalues --   -1.20337  -1.18388  -1.09935  -1.09864  -1.08729
 Alpha  occ. eigenvalues --   -0.94679  -0.82425  -0.78743  -0.72140  -0.66521
 Alpha  occ. eigenvalues --   -0.61706  -0.61118  -0.60868  -0.60016  -0.57191
 Alpha  occ. eigenvalues --   -0.55301  -0.54549  -0.52898  -0.51559  -0.51025
 Alpha  occ. eigenvalues --   -0.49567  -0.46709  -0.46478  -0.40612  -0.40105
 Alpha  occ. eigenvalues --   -0.39371  -0.39196  -0.37618  -0.37021
 Alpha virt. eigenvalues --   -0.03865   0.04539   0.05963   0.06080   0.06925
 Alpha virt. eigenvalues --    0.07972   0.08499   0.09201   0.09679   0.10131
 Alpha virt. eigenvalues --    0.11535   0.11696   0.11784   0.11946   0.12392
 Alpha virt. eigenvalues --    0.12584   0.13178   0.15260   0.15747   0.15887
 Alpha virt. eigenvalues --    0.16991   0.17498   0.17695   0.18273   0.18676
 Alpha virt. eigenvalues --    0.18817   0.20206   0.20589   0.21287   0.21719
 Alpha virt. eigenvalues --    0.21900   0.22326   0.22470   0.23678   0.23909
 Alpha virt. eigenvalues --    0.24192   0.24664   0.25245   0.25533   0.26542
 Alpha virt. eigenvalues --    0.27324   0.27576   0.28092   0.29252   0.29495
 Alpha virt. eigenvalues --    0.30858   0.31421   0.31813   0.33803   0.34808
 Alpha virt. eigenvalues --    0.35580   0.36158   0.37607   0.38879   0.39189
 Alpha virt. eigenvalues --    0.40265   0.41055   0.41610   0.43033   0.44067
 Alpha virt. eigenvalues --    0.45728   0.45905   0.46427   0.47439   0.49001
 Alpha virt. eigenvalues --    0.49565   0.49804   0.50850   0.53778   0.54925
 Alpha virt. eigenvalues --    0.55172   0.55878   0.56530   0.57292   0.58729
 Alpha virt. eigenvalues --    0.61296   0.61821   0.62375   0.62644   0.63246
 Alpha virt. eigenvalues --    0.63908   0.65067   0.66996   0.67254   0.68420
 Alpha virt. eigenvalues --    0.69767   0.70009   0.70534   0.71012   0.72106
 Alpha virt. eigenvalues --    0.73241   0.74970   0.75314   0.76047   0.76558
 Alpha virt. eigenvalues --    0.79076   0.79327   0.79910   0.80330   0.81460
 Alpha virt. eigenvalues --    0.82989   0.86200   0.87530   0.87892   0.90113
 Alpha virt. eigenvalues --    0.92205   0.95794   0.97617   0.98761   1.01010
 Alpha virt. eigenvalues --    1.01355   1.02277   1.04480   1.09001   1.10599
 Alpha virt. eigenvalues --    1.12395   1.13592   1.14411   1.14594   1.16244
 Alpha virt. eigenvalues --    1.18321   1.19260   1.24527   1.24895   1.27097
 Alpha virt. eigenvalues --    1.27919   1.29294   1.29855   1.31337   1.34833
 Alpha virt. eigenvalues --    1.36589   1.39264   1.41959   1.43230   1.43925
 Alpha virt. eigenvalues --    1.45798   1.47512   1.48219   1.52645   1.54230
 Alpha virt. eigenvalues --    1.57335   1.57891   1.60006   1.61741   1.63096
 Alpha virt. eigenvalues --    1.63889   1.64571   1.66451   1.67537   1.68011
 Alpha virt. eigenvalues --    1.74254   1.74928   1.75456   1.76806   1.78876
 Alpha virt. eigenvalues --    1.81746   1.82119   1.83755   1.84133   1.86255
 Alpha virt. eigenvalues --    1.87362   1.89958   1.91157   1.91660   1.97237
 Alpha virt. eigenvalues --    1.98450   2.01186   2.02086   2.04043   2.04436
 Alpha virt. eigenvalues --    2.06771   2.12026   2.12452   2.16474   2.17795
 Alpha virt. eigenvalues --    2.18930   2.19523   2.20820   2.23199   2.25921
 Alpha virt. eigenvalues --    2.26319   2.28877   2.30286   2.33000   2.35779
 Alpha virt. eigenvalues --    2.36310   2.37240   2.40013   2.41110   2.42604
 Alpha virt. eigenvalues --    2.46296   2.47880   2.48751   2.51172   2.53551
 Alpha virt. eigenvalues --    2.55431   2.56319   2.57232   2.57348   2.58199
 Alpha virt. eigenvalues --    2.59702   2.60938   2.63357   2.63558   2.67690
 Alpha virt. eigenvalues --    2.67917   2.71539   2.71740   2.74086   2.74121
 Alpha virt. eigenvalues --    2.76227   2.77722   2.79281   2.81245   2.81797
 Alpha virt. eigenvalues --    2.82906   2.86153   2.86856   2.90568   2.91014
 Alpha virt. eigenvalues --    2.92256   2.93972   2.96457   3.00127   3.00474
 Alpha virt. eigenvalues --    3.02325   3.04831   3.07227   3.09062   3.10307
 Alpha virt. eigenvalues --    3.13075   3.13278   3.14530   3.16246   3.16412
 Alpha virt. eigenvalues --    3.17384   3.18837   3.21027   3.23310   3.24265
 Alpha virt. eigenvalues --    3.25563   3.27345   3.30980   3.33920   3.38244
 Alpha virt. eigenvalues --    3.39412   3.40671   3.41026   3.43948   3.45085
 Alpha virt. eigenvalues --    3.45656   3.47099   3.50162   3.54480   3.56994
 Alpha virt. eigenvalues --    3.58857   3.59165   3.61766   3.66429   3.66875
 Alpha virt. eigenvalues --    3.68607   3.70494   3.75770   3.79787   3.83863
 Alpha virt. eigenvalues --    3.84120   3.84510   3.84796   3.96664   3.96975
 Alpha virt. eigenvalues --    4.01139   4.07067   4.07428   4.11099   4.12256
 Alpha virt. eigenvalues --    4.16268   4.16614   4.21904   4.25985   4.29813
 Alpha virt. eigenvalues --    4.33553   4.38240   4.43637   4.45614   4.47173
 Alpha virt. eigenvalues --    4.55723   4.56999   4.63755   4.74127   4.82469
 Alpha virt. eigenvalues --    4.82948   4.85598   4.87041   4.96803   5.03591
 Alpha virt. eigenvalues --    5.08210   5.15492   5.18715   5.18841   5.20089
 Alpha virt. eigenvalues --    5.20185   5.23518   5.25439   5.29552   5.30050
 Alpha virt. eigenvalues --    5.30700   5.31188   5.35398   5.41652   5.47896
 Alpha virt. eigenvalues --    5.49087   5.50793   5.52693   5.52846   5.59630
 Alpha virt. eigenvalues --    5.60336   5.65578   5.70687   5.72933   5.78319
 Alpha virt. eigenvalues --    5.82204   5.85255   5.98742   6.10726   6.14985
 Alpha virt. eigenvalues --    6.17061   6.24029   6.25184   6.34901   6.35211
 Alpha virt. eigenvalues --    6.41259   6.41388   6.43355   6.43527   6.45290
 Alpha virt. eigenvalues --    6.49948   6.50794   6.53720   6.54110   6.58333
 Alpha virt. eigenvalues --    6.70673   6.72868   6.85632   6.88483   6.92196
 Alpha virt. eigenvalues --    7.00533   7.07095   7.07850   7.14900   7.15771
 Alpha virt. eigenvalues --    7.20886   7.24517   7.25588   7.27972  22.41249
 Alpha virt. eigenvalues --   22.62776  22.92949  23.31506  23.71652  33.00365
 Alpha virt. eigenvalues --   43.69378  43.70166  44.15355  44.28876
          Condensed to atoms (all electrons):
               1          2          3          4          5          6
     1  C    5.233657   0.239428  -0.235145  -0.228289  -0.058379   0.004424
     2  C    0.239428   5.607277   0.350020  -0.250029   0.429317  -0.017326
     3  C   -0.235145   0.350020   5.620513   0.256320  -0.015324   0.434371
     4  C   -0.228289  -0.250029   0.256320   5.168789   0.004609  -0.060375
     5  H   -0.058379   0.429317  -0.015324   0.004609   0.421284  -0.003318
     6  H    0.004424  -0.017326   0.434371  -0.060375  -0.003318   0.422168
     7  C   -0.056207   0.006693  -0.008005  -0.048663  -0.000631  -0.001516
     8  H   -0.000964  -0.001922   0.007581   0.006218   0.000000   0.000033
     9  H    0.001078   0.003318   0.000496  -0.010657  -0.000009   0.000009
    10  H   -0.000653   0.004502   0.001370  -0.012443   0.000000   0.000014
    11  N    0.351876  -0.098971  -0.138981   0.390555   0.007275   0.007457
    12  O    0.038900   0.030613  -0.182205   0.375627   0.000908  -0.011218
    13  O    0.378806  -0.166851   0.036108   0.036017  -0.009200   0.001063
    14  O    0.000158  -0.004801  -0.009171   0.036407   0.000259  -0.025265
    15  H   -0.000113  -0.000302  -0.000479  -0.000277  -0.000001   0.000346
    16  H   -0.001390  -0.020641  -0.025428   0.033624  -0.000030   0.000040
    17  O    0.027051  -0.005023  -0.001700   0.001229  -0.025444   0.000267
    18  H    0.036255  -0.028029  -0.021110  -0.001726   0.000106  -0.000031
    19  H    0.000594  -0.000809  -0.000513  -0.000179   0.000350  -0.000002
               7          8          9         10         11         12
     1  C   -0.056207  -0.000964   0.001078  -0.000653   0.351876   0.038900
     2  C    0.006693  -0.001922   0.003318   0.004502  -0.098971   0.030613
     3  C   -0.008005   0.007581   0.000496   0.001370  -0.138981  -0.182205
     4  C   -0.048663   0.006218  -0.010657  -0.012443   0.390555   0.375627
     5  H   -0.000631   0.000000  -0.000009   0.000000   0.007275   0.000908
     6  H   -0.001516   0.000033   0.000009   0.000014   0.007457  -0.011218
     7  C    4.988531   0.411036   0.417179   0.417962   0.241582  -0.000392
     8  H    0.411036   0.475805  -0.015539  -0.015491  -0.057079   0.005813
     9  H    0.417179  -0.015539   0.502833  -0.031388  -0.034925  -0.000812
    10  H    0.417962  -0.015491  -0.031388   0.502499  -0.032820  -0.000966
    11  N    0.241582  -0.057079  -0.034925  -0.032820   6.628804  -0.106644
    12  O   -0.000392   0.005813  -0.000812  -0.000966  -0.106644   8.355273
    13  O   -0.001800   0.002985  -0.001852  -0.002438  -0.110693  -0.007987
    14  O   -0.000017  -0.000010  -0.000003  -0.000010  -0.006640  -0.023702
    15  H    0.000169   0.000000   0.000000   0.000000   0.000542   0.000264
    16  H   -0.000741   0.000054   0.000004   0.000003   0.004463   0.020459
    17  O   -0.000387   0.000002  -0.000010  -0.000009  -0.004290  -0.000065
    18  H   -0.000293   0.000004  -0.000007  -0.000011   0.004049   0.000034
    19  H    0.000187   0.000000   0.000001   0.000000   0.000258   0.000005
              13         14         15         16         17         18
     1  C    0.378806   0.000158  -0.000113  -0.001390   0.027051   0.036255
     2  C   -0.166851  -0.004801  -0.000302  -0.020641  -0.005023  -0.028029
     3  C    0.036108  -0.009171  -0.000479  -0.025428  -0.001700  -0.021110
     4  C    0.036017   0.036407  -0.000277   0.033624   0.001229  -0.001726
     5  H   -0.009200   0.000259  -0.000001  -0.000030  -0.025444   0.000106
     6  H    0.001063  -0.025265   0.000346   0.000040   0.000267  -0.000031
     7  C   -0.001800  -0.000017   0.000169  -0.000741  -0.000387  -0.000293
     8  H    0.002985  -0.000010   0.000000   0.000054   0.000002   0.000004
     9  H   -0.001852  -0.000003   0.000000   0.000004  -0.000010  -0.000007
    10  H   -0.002438  -0.000010   0.000000   0.000003  -0.000009  -0.000011
    11  N   -0.110693  -0.006640   0.000542   0.004463  -0.004290   0.004049
    12  O   -0.007987  -0.023702   0.000264   0.020459  -0.000065   0.000034
    13  O    8.329333  -0.000142   0.000006   0.000078  -0.025771   0.024581
    14  O   -0.000142   8.147783   0.299471   0.295187  -0.000009   0.000000
    15  H    0.000006   0.299471   0.368214  -0.012136   0.000000   0.000000
    16  H    0.000078   0.295187  -0.012136   0.370169   0.000000   0.000000
    17  O   -0.025771  -0.000009   0.000000   0.000000   8.151755   0.291972
    18  H    0.024581   0.000000   0.000000   0.000000   0.291972   0.371391
    19  H    0.000047   0.000000   0.000000   0.000000   0.298959  -0.011377
              19
     1  C    0.000594
     2  C   -0.000809
     3  C   -0.000513
     4  C   -0.000179
     5  H    0.000350
     6  H   -0.000002
     7  C    0.000187
     8  H    0.000000
     9  H    0.000001
    10  H    0.000000
    11  N    0.000258
    12  O    0.000005
    13  O    0.000047
    14  O    0.000000
    15  H    0.000000
    16  H    0.000000
    17  O    0.298959
    18  H   -0.011377
    19  H    0.368234
 Mulliken charges:
               1
     1  C    0.268912
     2  C   -0.076464
     3  C   -0.068718
     4  C    0.303244
     5  H    0.248230
     6  H    0.248859
     7  C   -0.364687
     8  H    0.181474
     9  H    0.170283
    10  H    0.169878
    11  N   -0.045818
    12  O   -0.493903
    13  O   -0.482289
    14  O   -0.709494
    15  H    0.344296
    16  H    0.336284
    17  O   -0.708526
    18  H    0.334193
    19  H    0.344246
 Sum of Mulliken charges =   0.00000
 Mulliken charges with hydrogens summed into heavy atoms:
               1
     1  C    0.268912
     2  C    0.171766
     3  C    0.180140
     4  C    0.303244
     7  C    0.156948
    11  N   -0.045818
    12  O   -0.493903
    13  O   -0.482289
    14  O   -0.028913
    17  O   -0.030086
 Electronic spatial extent (au):  <R**2>=           2216.2529
 Charge=              0.0000 electrons
 Dipole moment (field-independent basis, Debye):
    X=             -0.0119    Y=              2.3856    Z=             -0.0109  Tot=              2.3856
 Quadrupole moment (field-independent basis, Debye-Ang):
   XX=            -64.9912   YY=            -58.6666   ZZ=            -59.0258
   XY=              0.2139   XZ=            -11.1759   YZ=             -0.1061
 Traceless Quadrupole moment (field-independent basis, Debye-Ang):
   XX=             -4.0967   YY=              2.2280   ZZ=              1.8687
   XY=              0.2139   XZ=            -11.1759   YZ=             -0.1061
 Octapole moment (field-independent basis, Debye-Ang**2):
  XXX=             -1.6238  YYY=             25.4179  ZZZ=             -0.0681  XYY=              0.1301
  XXY=              4.8113  XXZ=             -1.0418  XZZ=             -0.1814  YZZ=              3.0718
  YYZ=              0.0557  XYZ=             18.6884
 Hexadecapole moment (field-independent basis, Debye-Ang**3):
 XXXX=          -1407.2121 YYYY=           -709.7137 ZZZZ=            -65.7966 XXXY=              8.8994
 XXXZ=           -270.1211 YYYX=              1.4498 YYYZ=             -0.5117 ZZZX=             -8.8842
 ZZZY=              0.4239 XXYY=           -503.6612 XXZZ=           -319.1951 YYZZ=           -134.6764
 XXYZ=              0.2312 YYXZ=            -31.1709 ZZXY=             -3.1340
 N-N= 5.261357613407D+02 E-N=-2.345759369866D+03  KE= 5.493122601709D+02
 D1PCM: PCM CHGder 1st derivatives, ID1Alg=3 FixD1E=F DoIter=F DoCFld=F I1PDM=0.
 Calling FoFJK, ICntrl=      2127 FMM=F ISym2X=0 I1Cent= 0 IOpClX= 0 NMat=1 NMatS=1 NMatT=0.
 ***** Axes restored to original set *****
 -------------------------------------------------------------------
 Center     Atomic                   Forces (Hartrees/Bohr)
 Number     Number              X              Y              Z
 -------------------------------------------------------------------
      1        6           0.000051044   -0.000017108    0.000028044
      2        6          -0.000024278    0.000172724   -0.000016406
      3        6          -0.000000793    0.000140027    0.000022843
      4        6          -0.000043448   -0.000051371   -0.000025937
      5        1           0.000112766   -0.000055564    0.000014444
      6        1          -0.000107575   -0.000056791    0.000006744
      7        6           0.000079981    0.000119845   -0.000087108
      8        1           0.000008571   -0.000072648    0.000037995
      9        1          -0.000043726   -0.000010214   -0.000006562
     10        1          -0.000035622   -0.000050943    0.000028684
     11        7          -0.000003066   -0.000151290   -0.000020427
     12        8           0.000128961    0.000015873   -0.000002364
     13        8          -0.000121381    0.000001366    0.000005684
     14        8          -0.000057408    0.000016949    0.000037183
     15        1           0.000034724   -0.000002442   -0.000005599
     16        1           0.000015225   -0.000004122   -0.000008824
     17        8           0.000027513    0.000027511   -0.000015137
     18        1           0.000002072   -0.000019686   -0.000007546
     19        1          -0.000023561   -0.000002115    0.000014291
 -------------------------------------------------------------------
 Cartesian Forces:  Max     0.000172724 RMS     0.000058776

 GradGradGradGradGradGradGradGradGradGradGradGradGradGradGradGradGradGrad
 Berny optimization.
 FormGI is forming the generalized inverse of G from B-inverse, IUseBI=4.
 Internal  Forces:  Max     0.000157985 RMS     0.000051673
 Search for a local minimum.
 Step number   1 out of a maximum of   90
 All quantities printed in internal units (Hartrees-Bohrs-Radians)
 Mixed Optimization -- En-DIIS/RFO-DIIS
 Second derivative matrix not updated -- first step.
 ITU=  0
     Eigenvalues ---    0.00230   0.00230   0.01104   0.01300   0.01451
     Eigenvalues ---    0.01452   0.01480   0.01660   0.02001   0.02086
     Eigenvalues ---    0.02106   0.02467   0.04234   0.04239   0.04761
     Eigenvalues ---    0.04762   0.07561   0.07828   0.16000   0.16000
     Eigenvalues ---    0.16000   0.16000   0.16000   0.16000   0.16000
     Eigenvalues ---    0.16000   0.16000   0.22725   0.24799   0.25000
     Eigenvalues ---    0.25000   0.25000   0.25000   0.25000   0.31208
     Eigenvalues ---    0.32530   0.34848   0.34860   0.35086   0.36021
     Eigenvalues ---    0.36021   0.38980   0.45267   0.47526   0.53777
     Eigenvalues ---    0.53797   0.55835   0.55836   0.58395   1.00989
     Eigenvalues ---    1.01174
 RFO step:  Lambda=-1.18264725D-06 EMin= 2.30000000D-03
 Linear search not attempted -- first point.
 Iteration  1 RMS(Cart)=  0.00110340 RMS(Int)=  0.00000121
 Iteration  2 RMS(Cart)=  0.00000112 RMS(Int)=  0.00000011
 Iteration  3 RMS(Cart)=  0.00000000 RMS(Int)=  0.00000011
 Variable       Old X    -DE/DX   Delta X   Delta X   Delta X     New X
                                 (Linear)    (Quad)   (Total)
    R1        2.82751  -0.00010   0.00000  -0.00033  -0.00033   2.82718
    R2        2.60832   0.00001   0.00000   0.00004   0.00004   2.60837
    R3        2.28245   0.00011   0.00000   0.00011   0.00011   2.28256
    R4        2.50284  -0.00010   0.00000  -0.00019  -0.00019   2.50265
    R5        2.04048  -0.00003   0.00000  -0.00008  -0.00008   2.04040
    R6        2.82833  -0.00009   0.00000  -0.00028  -0.00028   2.82805
    R7        2.04049  -0.00003   0.00000  -0.00007  -0.00007   2.04042
    R8        2.61128   0.00002   0.00000   0.00006   0.00006   2.61134
    R9        2.28172   0.00013   0.00000   0.00013   0.00013   2.28185
   R10        2.05536  -0.00002   0.00000  -0.00005  -0.00005   2.05530
   R11        2.05903   0.00002   0.00000   0.00006   0.00006   2.05909
   R12        2.05923   0.00003   0.00000   0.00007   0.00007   2.05930
   R13        2.72963  -0.00001   0.00000  -0.00004  -0.00004   2.72960
   R14        3.66683  -0.00002   0.00000  -0.00035  -0.00035   3.66648
   R15        3.66663   0.00000   0.00000  -0.00009  -0.00009   3.66654
   R16        1.81097   0.00004   0.00000   0.00006   0.00006   1.81103
   R17        1.82917  -0.00003   0.00000  -0.00005  -0.00005   1.82912
   R18        1.82935  -0.00002   0.00000  -0.00004  -0.00004   1.82931
   R19        1.81098   0.00003   0.00000   0.00005   0.00005   1.81102
    A1        1.86568  -0.00010   0.00000  -0.00037  -0.00037   1.86531
    A2        2.23903  -0.00001   0.00000  -0.00005  -0.00005   2.23898
    A3        2.17847   0.00011   0.00000   0.00043   0.00043   2.17890
    A4        1.88792   0.00006   0.00000   0.00022   0.00022   1.88813
    A5        2.12708   0.00009   0.00000   0.00068   0.00068   2.12775
    A6        2.26819  -0.00016   0.00000  -0.00090  -0.00090   2.26730
    A7        1.89018   0.00005   0.00000   0.00016   0.00016   1.89033
    A8        2.26796  -0.00015   0.00000  -0.00083  -0.00083   2.26713
    A9        2.12505   0.00009   0.00000   0.00067   0.00067   2.12572
   A10        1.86320  -0.00010   0.00000  -0.00036  -0.00036   1.86283
   A11        2.23352   0.00004   0.00000   0.00015   0.00015   2.23367
   A12        2.18647   0.00006   0.00000   0.00021   0.00021   2.18668
   A13        1.90966   0.00007   0.00000   0.00069   0.00069   1.91035
   A14        1.90872   0.00006   0.00000   0.00023   0.00023   1.90895
   A15        1.88546  -0.00008   0.00000  -0.00044  -0.00044   1.88502
   A16        1.90621   0.00003   0.00000   0.00007   0.00007   1.90628
   A17        1.92502   0.00002   0.00000   0.00016   0.00016   1.92518
   A18        1.92857  -0.00009   0.00000  -0.00070  -0.00070   1.92787
   A19        1.91781   0.00008   0.00000   0.00036   0.00036   1.91817
   A20        2.17424  -0.00002   0.00000  -0.00010  -0.00010   2.17414
   A21        2.19112  -0.00006   0.00000  -0.00026  -0.00026   2.19087
   A22        1.95442   0.00000   0.00000   0.00002   0.00002   1.95444
   A23        1.94871  -0.00003   0.00000  -0.00019  -0.00019   1.94852
   A24        1.84525   0.00001   0.00000   0.00004   0.00004   1.84529
   A25        2.83924  -0.00003   0.00000  -0.00010  -0.00010   2.83914
   A26        1.84535   0.00001   0.00000   0.00007   0.00007   1.84542
   A27        2.83426   0.00000   0.00000  -0.00002  -0.00002   2.83424
    D1       -0.00007   0.00000   0.00000   0.00028   0.00028   0.00021
    D2       -3.14089  -0.00001   0.00000  -0.00028  -0.00028  -3.14117
    D3        3.14075   0.00001   0.00000   0.00044   0.00044   3.14119
    D4       -0.00007   0.00000   0.00000  -0.00012  -0.00012  -0.00019
    D5        0.00029   0.00000   0.00000  -0.00006  -0.00006   0.00023
    D6        3.13734   0.00002   0.00000   0.00099   0.00099   3.13833
    D7       -3.14057   0.00000   0.00000  -0.00021  -0.00021  -3.14078
    D8       -0.00352   0.00001   0.00000   0.00084   0.00084  -0.00268
    D9       -0.05686  -0.00002   0.00000  -0.00043  -0.00043  -0.05729
   D10        3.08384  -0.00001   0.00000  -0.00025  -0.00025   3.08359
   D11       -0.00016  -0.00001   0.00000  -0.00037  -0.00037  -0.00053
   D12       -3.14076  -0.00001   0.00000  -0.00032  -0.00032  -3.14108
   D13        3.14058   0.00000   0.00000   0.00026   0.00026   3.14083
   D14       -0.00002   0.00001   0.00000   0.00030   0.00030   0.00028
   D15        0.00034   0.00001   0.00000   0.00034   0.00034   0.00068
   D16       -3.14050  -0.00001   0.00000  -0.00039  -0.00039  -3.14090
   D17        3.14103   0.00001   0.00000   0.00029   0.00029   3.14133
   D18        0.00019  -0.00001   0.00000  -0.00044  -0.00044  -0.00025
   D19       -0.00038  -0.00001   0.00000  -0.00016  -0.00016  -0.00054
   D20       -3.13738  -0.00002   0.00000  -0.00122  -0.00122  -3.13860
   D21        3.14048   0.00001   0.00000   0.00055   0.00055   3.14103
   D22        0.00349  -0.00001   0.00000  -0.00051  -0.00051   0.00297
   D23       -0.03827  -0.00002   0.00000  -0.00023  -0.00023  -0.03850
   D24        3.10421  -0.00004   0.00000  -0.00109  -0.00109   3.10312
   D25       -3.10996  -0.00004   0.00000  -0.00159  -0.00159  -3.11155
   D26        0.02638  -0.00003   0.00000  -0.00037  -0.00037   0.02601
   D27       -1.02354   0.00001   0.00000  -0.00092  -0.00092  -1.02445
   D28        2.11281   0.00003   0.00000   0.00030   0.00030   2.11310
   D29        1.08586  -0.00001   0.00000  -0.00118  -0.00118   1.08468
   D30       -2.06098   0.00001   0.00000   0.00003   0.00003  -2.06095
   D31       -0.05470   0.00000   0.00000   0.00203   0.00203  -0.05266
   D32       -0.06215   0.00000   0.00000  -0.00205  -0.00205  -0.06420
   D33        2.52205   0.00002   0.00000   0.00121   0.00121   2.52326
   D34        2.54881   0.00000   0.00000  -0.00016  -0.00016   2.54865
         Item               Value     Threshold  Converged?
 Maximum Force            0.000158     0.000450     YES
 RMS     Force            0.000052     0.000300     YES
 Maximum Displacement     0.004606     0.001800     NO 
 RMS     Displacement     0.001103     0.001200     YES
 Predicted change in Energy=-5.913069D-07
 GradGradGradGradGradGradGradGradGradGradGradGradGradGradGradGradGradGrad

                          Input orientation:                          
 ---------------------------------------------------------------------
 Center     Atomic      Atomic             Coordinates (Angstroms)
 Number     Number       Type             X           Y           Z
 ---------------------------------------------------------------------
      1          6           0       -1.130571    0.313492    0.022790
      2          6           0       -0.659045   -1.106336    0.023507
      3          6           0        0.665152   -1.102016    0.004154
      4          6           0        1.130447    0.320271   -0.011003
      5          1           0       -1.348894   -1.936833    0.037829
      6          1           0        1.360396   -1.928118   -0.001998
      7          6           0       -0.020621    2.554265   -0.009650
      8          1           0        1.008726    2.902312   -0.056831
      9          1           0       -0.567257    2.919034   -0.878792
     10          1           0       -0.490424    2.936797    0.896153
     11          7           0       -0.003462    1.109971    0.001798
     12          8           0        2.265978    0.730448   -0.030652
     13          8           0       -2.266132    0.724922    0.036784
     14          8           0        3.963015   -1.592277    0.078167
     15          1           0        4.731835   -1.559742   -0.493063
     16          1           0        3.560777   -0.713370    0.027028
     17          8           0       -3.946857   -1.606871   -0.104462
     18          1           0       -3.553448   -0.724695   -0.040618
     19          1           0       -4.728655   -1.583484    0.449329
 ---------------------------------------------------------------------
                    Distance matrix (angstroms):
                    1          2          3          4          5
     1  C    0.000000
     2  C    1.496077   0.000000
     3  C    2.286620   1.324345   0.000000
     4  C    2.261282   2.288816   1.496539   0.000000
     5  H    2.260940   1.079733   2.180466   3.353213   0.000000
     6  H    3.351171   2.180394   1.079744   2.260135   2.709597
     7  C    2.500821   3.716003   3.720062   2.513104   4.683644
     8  H    3.359304   4.342484   4.019502   2.585314   5.383739
     9  H    2.814076   4.126278   4.297356   3.223170   5.003058
    10  H    2.838007   4.139670   4.294534   3.208795   5.022545
    11  N    1.380289   2.311336   2.310830   1.381861   3.330841
    12  O    3.422463   3.454340   2.433470   1.207502   4.492925
    13  O    1.207878   2.436475   3.454156   3.420933   2.815362
    14  O    5.438717   4.647855   3.334926   3.418951   5.323224
    15  H    6.175996   5.434520   4.122457   4.091067   6.115497
    16  H    4.802418   4.238081   2.921680   2.641281   5.059826
    17  O    3.411077   3.328156   4.640830   5.431540   2.622696
    18  H    2.636699   2.920160   4.235678   4.799136   2.517041
    19  H    4.089824   4.119554   5.433521   6.177805   3.423007
                    6          7          8          9         10
     6  H    0.000000
     7  C    4.690312   0.000000
     8  H    4.843525   1.087620   0.000000
     9  H    5.289565   1.089622   1.777533   0.000000
    10  H    5.282008   1.089735   1.776744   1.776696   0.000000
    11  N    3.330182   1.444441   2.059234   2.089500   2.091481
    12  O    2.808714   2.924942   2.509653   3.679194   3.650300
    13  O    4.493533   2.896718   3.933762   2.922086   2.963789
    14  O    2.625421   5.750728   5.380276   6.464600   6.404274
    15  H    3.426871   6.304331   5.827672   6.949000   7.029991
    16  H    2.513589   4.848216   4.426415   5.572749   5.521896
    17  O    5.317954   5.721832   6.700209   5.701324   5.795953
    18  H    5.059209   4.820104   5.828282   4.785043   4.864789
    19  H    6.115474   6.284681   7.300418   6.273262   6.212503
                   11         12         13         14         15
    11  N    0.000000
    12  O    2.301184   0.000000
    13  O    2.295466   4.532615   0.000000
    14  O    4.800095   2.878685   6.646307   0.000000
    15  H    5.458507   3.396947   7.380513   0.958357   0.000000
    16  H    4.003625   1.940217   6.001804   0.967929   1.535649
    17  O    4.789874   6.638360   2.877854   7.911993   8.687516
    18  H    3.996274   5.998605   1.940248   7.567300   8.339540
    19  H    5.457329   7.383059   3.400434   8.699596   9.507342
                   16         17         18         19
    16  H    0.000000
    17  O    7.561759   0.000000
    18  H    7.114556   0.968029   0.000000
    19  H    8.345665   0.958353   1.535799   0.000000
 Stoichiometry    C5H9NO4
 Framework group  C1[X(C5H9NO4)]
 Deg. of freedom    51
 Full point group                 C1      NOp   1
 Largest Abelian subgroup         C1      NOp   1
 Largest concise Abelian subgroup C1      NOp   1
                         Standard orientation:                         
 ---------------------------------------------------------------------
 Center     Atomic      Atomic             Coordinates (Angstroms)
 Number     Number       Type             X           Y           Z
 ---------------------------------------------------------------------
      1          6           0       -1.130434    0.313358    0.023186
      2          6           0       -0.658893   -1.106464    0.023903
      3          6           0        0.665304   -1.102131    0.004550
      4          6           0        1.130585    0.320160   -0.010607
      5          1           0       -1.348733   -1.936969    0.038225
      6          1           0        1.360557   -1.928227   -0.001602
      7          6           0       -0.020506    2.554143   -0.009254
      8          1           0        1.008837    2.902199   -0.056435
      9          1           0       -0.567146    2.918906   -0.878396
     10          1           0       -0.490313    2.936670    0.896549
     11          7           0       -0.003332    1.109849    0.002194
     12          8           0        2.266111    0.730349   -0.030256
     13          8           0       -2.265999    0.724776    0.037180
     14          8           0        3.963171   -1.592359    0.078563
     15          1           0        4.731992   -1.559817   -0.492667
     16          1           0        3.560925   -0.713457    0.027424
     17          8           0       -3.946700   -1.607033   -0.104066
     18          1           0       -3.553300   -0.724853   -0.040222
     19          1           0       -4.728498   -1.583654    0.449725
 ---------------------------------------------------------------------
 Rotational constants (GHZ):      1.8880764      0.6445314      0.4826551
 Basis read from rwf:  (5D, 7F)
 There are   454 symmetry adapted cartesian basis functions of A   symmetry.
 There are   404 symmetry adapted basis functions of A   symmetry.
   404 basis functions,   622 primitive gaussians,   454 cartesian basis functions
    39 alpha electrons       39 beta electrons
       nuclear repulsion energy       526.1592564945 Hartrees.
 NAtoms=   19 NActive=   19 NUniq=   19 SFac= 1.00D+00 NAtFMM=   60 NAOKFM=F Big=F
 Integral buffers will be    131072 words long.
 Raffenetti 2 integral format.
 Two-electron integral symmetry is turned on.
 Nuclear repulsion after empirical dispersion term =      526.1507840629 Hartrees.
 ------------------------------------------------------------------------------
 Polarizable Continuum Model (PCM)
 =================================
 Model                : PCM (using non-symmetric T matrix).
 Atomic radii         : SMD-Coulomb.
 Polarization charges : Total charges.
 Charge compensation  : None.
 Solution method      : On-the-fly selection.
 Cavity type          : VdW (van der Waals Surface) (Alpha=1.000).
 Cavity algorithm     : GePol (No added spheres)
                        Default sphere list used, NSphG=   19.
                        Lebedev-Laikov grids with approx.  5.0 points / Ang**2.
                        Smoothing algorithm: Karplus/York (Gamma=1.0000).
                        Polarization charges: spherical gaussians, with
                                              point-specific exponents (IZeta= 3).
                        Self-potential: point-specific (ISelfS= 7).
                        Self-field    : sphere-specific E.n sum rule (ISelfD= 2).
 1st derivatives      : Analytical E(r).r(x)/FMM algorithm (CHGder, D1EAlg=3).
                        Cavity 1st derivative terms included.
 Solvent              : Toluene, Eps=   2.374100 Eps(inf)=   2.238315
 ------------------------------------------------------------------------------
 Spheres list:
 ISph  on   Nord     Re0    Alpha      Xe            Ye            Ze
    1   C      1    1.8500  1.000     -1.130434      0.313358      0.023186
    2   C      2    1.8500  1.000     -0.658893     -1.106464      0.023903
    3   C      3    1.8500  1.000      0.665304     -1.102131      0.004550
    4   C      4    1.8500  1.000      1.130585      0.320160     -0.010607
    5   H      5    1.2000  1.000     -1.348733     -1.936969      0.038225
    6   H      6    1.2000  1.000      1.360557     -1.928227     -0.001602
    7   C      7    1.8500  1.000     -0.020506      2.554143     -0.009254
    8   H      8    1.2000  1.000      1.008837      2.902199     -0.056435
    9   H      9    1.2000  1.000     -0.567146      2.918906     -0.878396
   10   H     10    1.2000  1.000     -0.490313      2.936670      0.896549
   11   N     11    1.8900  1.000     -0.003332      1.109849      0.002194
   12   O     12    2.2940  1.000      2.266111      0.730349     -0.030256
   13   O     13    2.2940  1.000     -2.265999      0.724776      0.037180
   14   O     14    2.2940  1.000      3.963171     -1.592359      0.078563
   15   H     15    1.2000  1.000      4.731992     -1.559817     -0.492667
   16   H     16    1.2000  1.000      3.560925     -0.713457      0.027424
   17   O     17    2.2940  1.000     -3.946700     -1.607033     -0.104066
   18   H     18    1.2000  1.000     -3.553300     -0.724853     -0.040222
   19   H     19    1.2000  1.000     -4.728498     -1.583654      0.449725
 ------------------------------------------------------------------------------
 ------------------------------------------------------------------------------
 Atomic radii for non-electrostatic terms: SMD-CDS.
 ------------------------------------------------------------------------------
 Nuclear repulsion after PCM non-electrostatic terms =      526.1439289911 Hartrees.
 One-electron integrals computed using PRISM.
 NBasis=   404 RedAO= T EigKep=  9.07D-06  NBF=   404
 NBsUse=   403 1.00D-06 EigRej=  8.21D-07 NBFU=   403
 Initial guess from the checkpoint file:  ""dieneophile_water_ma2.chk""
 B after Tr=     0.000000    0.000000    0.000000
         Rot=    1.000000    0.000031   -0.000021    0.000018 Ang=   0.00 deg.
 Requested convergence on RMS density matrix=1.00D-08 within 128 cycles.
 Requested convergence on MAX density matrix=1.00D-06.
 Requested convergence on             energy=1.00D-06.
 No special actions if energy rises.
 Inv3:  Mode=1 IEnd=     9655308.
 Iteration    1 A*A^-1 deviation from unit magnitude is 4.00D-15 for   1759.
 Iteration    1 A*A^-1 deviation from orthogonality  is 1.53D-15 for    282    100.
 Iteration    1 A^-1*A deviation from unit magnitude is 3.66D-15 for   1785.
 Iteration    1 A^-1*A deviation from orthogonality  is 2.08D-15 for    220    180.
 Error on total polarization charges =  0.00885
 SCF Done:  E(RwB97XD) =  -551.684314869     A.U. after    8 cycles
            NFock=  8  Conv=0.42D-08     -V/T= 2.0043
 SMD-CDS (non-electrostatic) energy       (kcal/mol) =      -4.30
 (included in total energy above)
 D1PCM: PCM CHGder 1st derivatives, ID1Alg=3 FixD1E=F DoIter=F DoCFld=F I1PDM=0.
 Calling FoFJK, ICntrl=      2127 FMM=F ISym2X=0 I1Cent= 0 IOpClX= 0 NMat=1 NMatS=1 NMatT=0.
 ***** Axes restored to original set *****
 -------------------------------------------------------------------
 Center     Atomic                   Forces (Hartrees/Bohr)
 Number     Number              X              Y              Z
 -------------------------------------------------------------------
      1        6           0.000037725   -0.000047790    0.000012920
      2        6          -0.000077180    0.000035416    0.000020961
      3        6           0.000081343    0.000029145   -0.000023614
      4        6          -0.000023275   -0.000050068    0.000068644
      5        1           0.000041369   -0.000033222    0.000001565
      6        1          -0.000042697   -0.000033710    0.000000061
      7        6           0.000026174    0.000066794   -0.000001545
      8        1          -0.000001850   -0.000003155    0.000010714
      9        1           0.000003661   -0.000006723    0.000003870
     10        1          -0.000012665    0.000008875   -0.000007145
     11        7          -0.000028401   -0.000019871   -0.000079422
     12        8          -0.000011718    0.000013515   -0.000027550
     13        8           0.000013339    0.000034968    0.000009561
     14        8          -0.000012231   -0.000006999    0.000026743
     15        1           0.000001114   -0.000002362    0.000013232
     16        1           0.000004709    0.000012310   -0.000019962
     17        8           0.000000261    0.000001178    0.000002777
     18        1           0.000003009   -0.000003383   -0.000008797
     19        1          -0.000002688    0.000005083   -0.000003013
 -------------------------------------------------------------------
 Cartesian Forces:  Max     0.000081343 RMS     0.000029802

 GradGradGradGradGradGradGradGradGradGradGradGradGradGradGradGradGradGrad
 Berny optimization.
 Using GEDIIS/GDIIS optimizer.
 FormGI is forming the generalized inverse of G from B-inverse, IUseBI=4.
 GSVD:  received Info=                   1 from GESDD.
 Internal  Forces:  Max     0.000065490 RMS     0.000018511
 Search for a local minimum.
 Step number   2 out of a maximum of   90
 All quantities printed in internal units (Hartrees-Bohrs-Radians)
 Mixed Optimization -- En-DIIS/RFO-DIIS
 Swapping is turned off.
 Update second derivatives using D2CorX and points    1    2
 DE= -7.01D-07 DEPred=-5.91D-07 R= 1.19D+00
 Trust test= 1.19D+00 RLast= 5.14D-03 DXMaxT set to 3.00D-01
 ITU=  0  0
     Eigenvalues ---    0.00230   0.00240   0.00996   0.01248   0.01418
     Eigenvalues ---    0.01454   0.01481   0.01568   0.01998   0.02094
     Eigenvalues ---    0.02229   0.02484   0.03912   0.04237   0.04742
     Eigenvalues ---    0.04763   0.07505   0.07799   0.12596   0.16000
     Eigenvalues ---    0.16000   0.16000   0.16000   0.16000   0.16000
     Eigenvalues ---    0.16000   0.16515   0.22719   0.24697   0.24972
     Eigenvalues ---    0.25000   0.25000   0.25000   0.28594   0.31217
     Eigenvalues ---    0.32968   0.34829   0.34960   0.35079   0.36021
     Eigenvalues ---    0.36036   0.40191   0.45558   0.47564   0.53780
     Eigenvalues ---    0.53828   0.55835   0.55905   0.59027   1.01054
     Eigenvalues ---    1.02092
 En-DIIS/RFO-DIIS IScMMF=        0 using points:     2    1
 RFO step:  Lambda=-8.84099648D-08.
 DidBck=F Rises=F RFO-DIIS coefs:    1.23214   -0.23214
 Iteration  1 RMS(Cart)=  0.00095761 RMS(Int)=  0.00000063
 Iteration  2 RMS(Cart)=  0.00000080 RMS(Int)=  0.00000008
 Variable       Old X    -DE/DX   Delta X   Delta X   Delta X     New X
                                 (Linear)    (Quad)   (Total)
    R1        2.82718   0.00000  -0.00008  -0.00005  -0.00012   2.82705
    R2        2.60837  -0.00001   0.00001  -0.00003  -0.00002   2.60834
    R3        2.28256   0.00000   0.00002   0.00000   0.00003   2.28259
    R4        2.50265   0.00001  -0.00004   0.00001  -0.00003   2.50262
    R5        2.04040   0.00000  -0.00002  -0.00001  -0.00003   2.04037
    R6        2.82805  -0.00001  -0.00007  -0.00006  -0.00012   2.82792
    R7        2.04042   0.00000  -0.00002  -0.00001  -0.00003   2.04039
    R8        2.61134   0.00000   0.00001   0.00001   0.00002   2.61136
    R9        2.28185  -0.00001   0.00003   0.00000   0.00003   2.28188
   R10        2.05530   0.00000  -0.00001  -0.00002  -0.00003   2.05527
   R11        2.05909  -0.00001   0.00001  -0.00003  -0.00002   2.05907
   R12        2.05930   0.00001   0.00002   0.00003   0.00005   2.05935
   R13        2.72960   0.00007  -0.00001   0.00020   0.00020   2.72979
   R14        3.66648  -0.00001  -0.00008  -0.00031  -0.00039   3.66609
   R15        3.66654   0.00000  -0.00002   0.00002   0.00000   3.66654
   R16        1.81103   0.00000   0.00001   0.00000   0.00002   1.81105
   R17        1.82912   0.00000  -0.00001   0.00000  -0.00001   1.82911
   R18        1.82931   0.00000  -0.00001  -0.00001  -0.00002   1.82930
   R19        1.81102   0.00000   0.00001   0.00000   0.00002   1.81104
    A1        1.86531   0.00002  -0.00009   0.00004  -0.00005   1.86526
    A2        2.23898   0.00002  -0.00001   0.00011   0.00010   2.23908
    A3        2.17890  -0.00004   0.00010  -0.00015  -0.00005   2.17884
    A4        1.88813  -0.00001   0.00005   0.00000   0.00005   1.88818
    A5        2.12775   0.00006   0.00016   0.00050   0.00066   2.12842
    A6        2.26730  -0.00005  -0.00021  -0.00050  -0.00071   2.26659
    A7        1.89033  -0.00001   0.00004  -0.00004   0.00000   1.89033
    A8        2.26713  -0.00005  -0.00019  -0.00047  -0.00067   2.26647
    A9        2.12572   0.00006   0.00016   0.00051   0.00066   2.12638
   A10        1.86283   0.00002  -0.00008   0.00006  -0.00003   1.86280
   A11        2.23367   0.00002   0.00003   0.00011   0.00015   2.23381
   A12        2.18668  -0.00004   0.00005  -0.00017  -0.00012   2.18657
   A13        1.91035   0.00001   0.00016   0.00018   0.00034   1.91069
   A14        1.90895   0.00000   0.00005   0.00000   0.00005   1.90900
   A15        1.88502   0.00000  -0.00010  -0.00002  -0.00012   1.88490
   A16        1.90628  -0.00001   0.00002  -0.00009  -0.00007   1.90621
   A17        1.92518   0.00000   0.00004  -0.00001   0.00003   1.92521
   A18        1.92787   0.00000  -0.00016  -0.00006  -0.00022   1.92765
   A19        1.91817  -0.00002   0.00008  -0.00006   0.00002   1.91819
   A20        2.17414   0.00002  -0.00002   0.00010   0.00007   2.17421
   A21        2.19087   0.00000  -0.00006  -0.00003  -0.00009   2.19078
   A22        1.95444  -0.00001   0.00001  -0.00006  -0.00006   1.95439
   A23        1.94852  -0.00001  -0.00004  -0.00013  -0.00017   1.94835
   A24        1.84529   0.00000   0.00001   0.00001   0.00002   1.84531
   A25        2.83914  -0.00002  -0.00002  -0.00012  -0.00014   2.83900
   A26        1.84542   0.00000   0.00002  -0.00001   0.00001   1.84543
   A27        2.83424   0.00000   0.00000   0.00002   0.00001   2.83425
    D1        0.00021   0.00000   0.00006   0.00000   0.00006   0.00027
    D2       -3.14117   0.00000  -0.00007   0.00024   0.00018  -3.14100
    D3        3.14119   0.00000   0.00010   0.00004   0.00014   3.14133
    D4       -0.00019   0.00000  -0.00003   0.00028   0.00026   0.00006
    D5        0.00023  -0.00001  -0.00001  -0.00046  -0.00047  -0.00024
    D6        3.13833   0.00001   0.00023   0.00073   0.00096   3.13929
    D7       -3.14078  -0.00001  -0.00005  -0.00050  -0.00055  -3.14132
    D8       -0.00268   0.00001   0.00019   0.00069   0.00088  -0.00179
    D9       -0.05729  -0.00001  -0.00010  -0.00034  -0.00044  -0.05773
   D10        3.08359  -0.00001  -0.00006  -0.00029  -0.00035   3.08324
   D11       -0.00053   0.00001  -0.00009   0.00042   0.00034  -0.00019
   D12       -3.14108   0.00001  -0.00007   0.00026   0.00019  -3.14089
   D13        3.14083   0.00000   0.00006   0.00015   0.00021   3.14104
   D14        0.00028   0.00000   0.00007  -0.00001   0.00006   0.00034
   D15        0.00068  -0.00001   0.00008  -0.00070  -0.00062   0.00005
   D16       -3.14090   0.00000  -0.00009  -0.00006  -0.00015  -3.14105
   D17        3.14133  -0.00001   0.00007  -0.00056  -0.00049   3.14084
   D18       -0.00025   0.00000  -0.00010   0.00008  -0.00002  -0.00026
   D19       -0.00054   0.00001  -0.00004   0.00070   0.00067   0.00012
   D20       -3.13860   0.00000  -0.00028  -0.00050  -0.00078  -3.13938
   D21        3.14103   0.00000   0.00013   0.00008   0.00021   3.14124
   D22        0.00297  -0.00002  -0.00012  -0.00112  -0.00124   0.00174
   D23       -0.03850  -0.00003  -0.00005  -0.00124  -0.00129  -0.03979
   D24        3.10312  -0.00002  -0.00025  -0.00048  -0.00074   3.10238
   D25       -3.11155  -0.00002  -0.00037  -0.00167  -0.00204  -3.11359
   D26        0.02601   0.00000  -0.00009  -0.00031  -0.00039   0.02562
   D27       -1.02445  -0.00001  -0.00021  -0.00147  -0.00169  -1.02614
   D28        2.11310   0.00001   0.00007  -0.00011  -0.00004   2.11307
   D29        1.08468  -0.00002  -0.00027  -0.00163  -0.00190   1.08278
   D30       -2.06095   0.00000   0.00001  -0.00026  -0.00025  -2.06120
   D31       -0.05266  -0.00001   0.00047  -0.00253  -0.00206  -0.05472
   D32       -0.06420   0.00001  -0.00048   0.00263   0.00216  -0.06205
   D33        2.52326   0.00001   0.00028   0.00096   0.00124   2.52450
   D34        2.54865   0.00001  -0.00004   0.00043   0.00039   2.54904
         Item               Value     Threshold  Converged?
 Maximum Force            0.000065     0.000450     YES
 RMS     Force            0.000019     0.000300     YES
 Maximum Displacement     0.003051     0.001800     NO 
 RMS     Displacement     0.000958     0.001200     YES
 Predicted change in Energy=-2.214026D-07
 GradGradGradGradGradGradGradGradGradGradGradGradGradGradGradGradGradGrad

                          Input orientation:                          
 ---------------------------------------------------------------------
 Center     Atomic      Atomic             Coordinates (Angstroms)
 Number     Number       Type             X           Y           Z
 ---------------------------------------------------------------------
      1          6           0       -1.130563    0.313441    0.022541
      2          6           0       -0.658978   -1.106299    0.023094
      3          6           0        0.665191   -1.101975    0.003028
      4          6           0        1.130461    0.320252   -0.011996
      5          1           0       -1.348215   -1.937278    0.037732
      6          1           0        1.359874   -1.928527   -0.003591
      7          6           0       -0.020545    2.554329   -0.009621
      8          1           0        1.008891    2.902213   -0.055635
      9          1           0       -0.566680    2.919779   -0.878779
     10          1           0       -0.491051    2.936026    0.896201
     11          7           0       -0.003484    1.109923    0.000805
     12          8           0        2.265940    0.730605   -0.032006
     13          8           0       -2.266110    0.724928    0.037253
     14          8           0        3.962983   -1.591679    0.079782
     15          1           0        4.731615   -1.560247   -0.491779
     16          1           0        3.560756   -0.712864    0.027154
     17          8           0       -3.946611   -1.607067   -0.103207
     18          1           0       -3.553293   -0.724819   -0.039927
     19          1           0       -4.729221   -1.582973    0.449421
 ---------------------------------------------------------------------
                    Distance matrix (angstroms):
                    1          2          3          4          5
     1  C    0.000000
     2  C    1.496013   0.000000
     3  C    2.286595   1.324328   0.000000
     4  C    2.261297   2.288749   1.496473   0.000000
     5  H    2.261269   1.079717   2.180078   3.353021   0.000000
     6  H    3.351026   2.180030   1.079729   2.260466   2.708418
     7  C    2.500950   3.716027   3.720074   2.513148   4.683960
     8  H    3.359332   4.342368   4.019340   2.585190   5.383804
     9  H    2.814842   4.126887   4.297627   3.223219   5.004177
    10  H    2.837289   4.138950   4.294195   3.208800   5.022030
    11  N    1.380276   2.311235   2.310762   1.381873   3.330930
    12  O    3.422460   3.454330   2.433510   1.207519   4.492725
    13  O    1.207893   2.436486   3.454168   3.420947   2.816003
    14  O    5.438471   4.647723   3.334836   3.418638   5.322597
    15  H    6.175788   5.434119   4.121971   4.090817   6.114480
    16  H    4.802270   4.238038   2.921692   2.641060   5.059378
    17  O    3.410908   3.327950   4.640595   5.431348   2.623083
    18  H    2.636571   2.920027   4.235528   4.799010   2.517628
    19  H    4.090105   4.120176   5.434180   6.178272   3.424357
                    6          7          8          9         10
     6  H    0.000000
     7  C    4.690584   0.000000
     8  H    4.843753   1.087603   0.000000
     9  H    5.289956   1.089612   1.777723   0.000000
    10  H    5.281991   1.089762   1.776784   1.776665   0.000000
    11  N    3.330306   1.444544   2.059222   2.089603   2.091437
    12  O    2.809403   2.924805   2.509306   3.678756   3.650541
    13  O    4.493356   2.896803   3.933806   2.923106   2.962698
    14  O    2.626137   5.750293   5.379597   6.464514   6.403521
    15  H    3.426747   6.304382   5.827731   6.949269   7.029879
    16  H    2.514491   4.847846   4.425794   5.572481   5.521484
    17  O    5.317146   5.721885   6.700215   5.702437   5.794774
    18  H    5.058600   4.820170   5.828305   4.786086   4.863687
    19  H    6.115693   6.284872   7.300542   6.274204   6.211526
                   11         12         13         14         15
    11  N    0.000000
    12  O    2.301139   0.000000
    13  O    2.295436   4.532583   0.000000
    14  O    4.799765   2.878446   6.646057   0.000000
    15  H    5.458352   3.396902   7.380383   0.958365   0.000000
    16  H    4.003380   1.940013   6.001643   0.967922   1.535663
    17  O    4.789688   6.638190   2.877849   7.911726   8.687047
    18  H    3.996133   5.998482   1.940248   7.567045   8.339173
    19  H    5.457613   7.383542   3.400471   8.700065   9.507565
                   16         17         18         19
    16  H    0.000000
    17  O    7.561558   0.000000
    18  H    7.114375   0.968022   0.000000
    19  H    8.346204   0.958361   1.535805   0.000000
 Stoichiometry    C5H9NO4
 Framework group  C1[X(C5H9NO4)]
 Deg. of freedom    51
 Full point group                 C1      NOp   1
 Largest Abelian subgroup         C1      NOp   1
 Largest concise Abelian subgroup C1      NOp   1
                         Standard orientation:                         
 ---------------------------------------------------------------------
 Center     Atomic      Atomic             Coordinates (Angstroms)
 Number     Number       Type             X           Y           Z
 ---------------------------------------------------------------------
      1          6           0       -1.130429    0.313347    0.022993
      2          6           0       -0.658954   -1.106430    0.023108
      3          6           0        0.665217   -1.102201    0.003191
      4          6           0        1.130598    0.319995   -0.011288
      5          1           0       -1.348258   -1.937360    0.037380
      6          1           0        1.359837   -1.928804   -0.003636
      7          6           0       -0.020235    2.554159   -0.008267
      8          1           0        1.009233    2.901981   -0.054045
      9          1           0       -0.566245    2.919953   -0.877360
     10          1           0       -0.490814    2.935579    0.897634
     11          7           0       -0.003287    1.109749    0.001660
     12          8           0        2.266111    0.730267   -0.031028
     13          8           0       -2.265947    0.724916    0.037722
     14          8           0        3.962963   -1.592186    0.080144
     15          1           0        4.731661   -1.560616   -0.491319
     16          1           0        3.560809   -0.713322    0.027776
     17          8           0       -3.946612   -1.606901   -0.103735
     18          1           0       -3.553233   -0.724705   -0.040105
     19          1           0       -4.729282   -1.582937    0.448813
 ---------------------------------------------------------------------
[...]
 Center     Atomic      Atomic             Coordinates (Angstroms)
 Number     Number       Type             X           Y           Z
 ---------------------------------------------------------------------
      1          6           0       -1.130232    0.313130    0.025137
      2          6           0       -0.658725   -1.106665    0.021206
      3          6           0        0.665437   -1.102293   -0.002886
      4          6           0        1.130640    0.319984   -0.016686
      5          1           0       -1.347995   -1.937623    0.036168
      6          1           0        1.360245   -1.928721   -0.012981
      7          6           0       -0.020466    2.554063   -0.006083
      8          1           0        1.009693    2.902315   -0.024750
      9          1           0       -0.544005    2.922365   -0.887977
     10          1           0       -0.514417    2.932560    0.888375
     11          7           0       -0.003247    1.109647    0.001847
     12          8           0        2.266007    0.730431   -0.039770
     13          8           0       -2.265660    0.724781    0.044259
     14          8           0        3.961734   -1.591659    0.088248
     15          1           0        4.735303   -1.563681   -0.476781
     16          1           0        3.560843   -0.712700    0.027998
     17          8           0       -3.946467   -1.606397   -0.104845
     18          1           0       -3.552471   -0.724713   -0.037757
     19          1           0       -4.729306   -1.583886    0.447509
 ---------------------------------------------------------------------
 Rotational constants (GHZ):      1.8882633      0.6446850      0.4827825

 **********************************************************************

            Population analysis using the SCF density.

 **********************************************************************

 Orbital symmetries:
       Occupied  (A) (A) (A) (A) (A) (A) (A) (A) (A) (A) (A) (A)
                 (A) (A) (A) (A) (A) (A) (A) (A) (A) (A) (A) (A)
                 (A) (A) (A) (A) (A) (A) (A) (A) (A) (A) (A) (A)
                 (A) (A) (A)
       Virtual   (A) (A) (A) (A) (A) (A) (A) (A) (A) (A) (A) (A)
                 (A) (A) (A) (A) (A) (A) (A) (A) (A) (A) (A) (A)
                 (A) (A) (A) (A) (A) (A) (A) (A) (A) (A) (A) (A)
                 (A) (A) (A) (A) (A) (A) (A) (A) (A) (A) (A) (A)
                 (A) (A) (A) (A) (A) (A) (A) (A) (A) (A) (A) (A)
                 (A) (A) (A) (A) (A) (A) (A) (A) (A) (A) (A) (A)
                 (A) (A) (A) (A) (A) (A) (A) (A) (A) (A) (A) (A)
                 (A) (A) (A) (A) (A) (A) (A) (A) (A) (A) (A) (A)
                 (A) (A) (A) (A) (A) (A) (A) (A) (A) (A) (A) (A)
                 (A) (A) (A) (A) (A) (A) (A) (A) (A) (A) (A) (A)
                 (A) (A) (A) (A) (A) (A) (A) (A) (A) (A) (A) (A)
                 (A) (A) (A) (A) (A) (A) (A) (A) (A) (A) (A) (A)
                 (A) (A) (A) (A) (A) (A) (A) (A) (A) (A) (A) (A)
                 (A) (A) (A) (A) (A) (A) (A) (A) (A) (A) (A) (A)
                 (A) (A) (A) (A) (A) (A) (A) (A) (A) (A) (A) (A)
                 (A) (A) (A) (A) (A) (A) (A) (A) (A) (A) (A) (A)
                 (A) (A) (A) (A) (A) (A) (A) (A) (A) (A) (A) (A)
                 (A) (A) (A) (A) (A) (A) (A) (A) (A) (A) (A) (A)
                 (A) (A) (A) (A) (A) (A) (A) (A) (A) (A) (A) (A)
                 (A) (A) (A) (A) (A) (A) (A) (A) (A) (A) (A) (A)
                 (A) (A) (A) (A) (A) (A) (A) (A) (A) (A) (A) (A)
                 (A) (A) (A) (A) (A) (A) (A) (A) (A) (A) (A) (A)
                 (A) (A) (A) (A) (A) (A) (A) (A) (A) (A) (A) (A)
                 (A) (A) (A) (A) (A) (A) (A) (A) (A) (A) (A) (A)
                 (A) (A) (A) (A) (A) (A) (A) (A) (A) (A) (A) (A)
                 (A) (A) (A) (A) (A) (A) (A) (A) (A) (A) (A) (A)
                 (A) (A) (A) (A) (A) (A) (A) (A) (A) (A) (A) (A)
                 (A) (A) (A) (A) (A) (A) (A) (A) (A) (A) (A) (A)
                 (A) (A) (A) (A) (A) (A) (A) (A) (A) (A) (A) (A)
                 (A) (A) (A) (A) (A) (A) (A) (A) (A) (A) (A) (A)
                 (A) (A) (A) (A)
 The electronic state is 1-A.
 Alpha  occ. eigenvalues --  -19.27024 -19.26993 -19.23626 -19.23619 -14.49942
 Alpha  occ. eigenvalues --  -10.42943 -10.42817 -10.32861 -10.32806 -10.32762
 Alpha  occ. eigenvalues --   -1.20334  -1.18385  -1.09933  -1.09862  -1.08729
 Alpha  occ. eigenvalues --   -0.94679  -0.82422  -0.78749  -0.72136  -0.66523
 Alpha  occ. eigenvalues --   -0.61706  -0.61118  -0.60864  -0.60013  -0.57191
 Alpha  occ. eigenvalues --   -0.55295  -0.54538  -0.52903  -0.51557  -0.51021
 Alpha  occ. eigenvalues --   -0.49572  -0.46708  -0.46477  -0.40610  -0.40106
 Alpha  occ. eigenvalues --   -0.39368  -0.39194  -0.37620  -0.37018
 Alpha virt. eigenvalues --   -0.03869   0.04541   0.05964   0.06080   0.06928
 Alpha virt. eigenvalues --    0.07972   0.08497   0.09201   0.09680   0.10136
 Alpha virt. eigenvalues --    0.11533   0.11697   0.11791   0.11943   0.12398
 Alpha virt. eigenvalues --    0.12593   0.13182   0.15259   0.15748   0.15887
 Alpha virt. eigenvalues --    0.16991   0.17487   0.17701   0.18275   0.18689
 Alpha virt. eigenvalues --    0.18821   0.20222   0.20578   0.21287   0.21697
 Alpha virt. eigenvalues --    0.21913   0.22325   0.22463   0.23687   0.23916
 Alpha virt. eigenvalues --    0.24183   0.24685   0.25246   0.25542   0.26526
 Alpha virt. eigenvalues --    0.27325   0.27552   0.28123   0.29274   0.29457
 Alpha virt. eigenvalues --    0.30856   0.31437   0.31821   0.33806   0.34801
 Alpha virt. eigenvalues --    0.35570   0.36155   0.37606   0.38867   0.39187
 Alpha virt. eigenvalues --    0.40287   0.41037   0.41634   0.43029   0.44051
 Alpha virt. eigenvalues --    0.45720   0.45897   0.46430   0.47439   0.49019
 Alpha virt. eigenvalues --    0.49550   0.49807   0.50847   0.53773   0.54917
 Alpha virt. eigenvalues --    0.55162   0.55874   0.56551   0.57304   0.58731
 Alpha virt. eigenvalues --    0.61283   0.61749   0.62470   0.62649   0.63192
 Alpha virt. eigenvalues --    0.63923   0.65082   0.66964   0.67268   0.68494
 Alpha virt. eigenvalues --    0.69799   0.70011   0.70532   0.71004   0.72095
 Alpha virt. eigenvalues --    0.73247   0.75013   0.75316   0.76021   0.76589
 Alpha virt. eigenvalues --    0.79086   0.79342   0.79908   0.80343   0.81425
 Alpha virt. eigenvalues --    0.82986   0.86135   0.87617   0.87864   0.90109
 Alpha virt. eigenvalues --    0.92217   0.95778   0.97619   0.98760   1.00980
 Alpha virt. eigenvalues --    1.01335   1.02243   1.04524   1.09007   1.10572
 Alpha virt. eigenvalues --    1.12396   1.13576   1.14421   1.14596   1.16243
 Alpha virt. eigenvalues --    1.18324   1.19263   1.24528   1.24902   1.27081
 Alpha virt. eigenvalues --    1.27901   1.29349   1.29860   1.31358   1.34810
 Alpha virt. eigenvalues --    1.36570   1.39259   1.41923   1.43241   1.43975
 Alpha virt. eigenvalues --    1.45757   1.47547   1.48187   1.52646   1.54221
 Alpha virt. eigenvalues --    1.57349   1.57886   1.59981   1.61727   1.63136
 Alpha virt. eigenvalues --    1.63959   1.64458   1.66467   1.67527   1.68001
 Alpha virt. eigenvalues --    1.74234   1.74934   1.75461   1.76798   1.78841
 Alpha virt. eigenvalues --    1.81763   1.82169   1.83786   1.84143   1.86241
 Alpha virt. eigenvalues --    1.87381   1.89978   1.91147   1.91698   1.97185
 Alpha virt. eigenvalues --    1.98493   2.01199   2.02143   2.04093   2.04395
 Alpha virt. eigenvalues --    2.06820   2.12019   2.12458   2.16515   2.17781
 Alpha virt. eigenvalues --    2.18929   2.19511   2.20768   2.23327   2.25880
 Alpha virt. eigenvalues --    2.26245   2.28669   2.30463   2.33000   2.35788
 Alpha virt. eigenvalues --    2.36267   2.37248   2.40037   2.41152   2.42553
 Alpha virt. eigenvalues --    2.46300   2.47872   2.48753   2.51158   2.53540
 Alpha virt. eigenvalues --    2.55458   2.56336   2.57184   2.57392   2.58219
 Alpha virt. eigenvalues --    2.59715   2.60916   2.63425   2.63482   2.67644
 Alpha virt. eigenvalues --    2.67943   2.71540   2.71724   2.74093   2.74149
 Alpha virt. eigenvalues --    2.76239   2.77741   2.79307   2.81226   2.81813
 Alpha virt. eigenvalues --    2.82910   2.86157   2.86891   2.90578   2.90991
 Alpha virt. eigenvalues --    2.92193   2.94019   2.96458   3.00166   3.00438
 Alpha virt. eigenvalues --    3.02332   3.04826   3.07216   3.09136   3.10263
 Alpha virt. eigenvalues --    3.13080   3.13268   3.14516   3.16205   3.16384
 Alpha virt. eigenvalues --    3.17329   3.18872   3.21053   3.23350   3.24230
 Alpha virt. eigenvalues --    3.25585   3.27340   3.30992   3.33923   3.38365
 Alpha virt. eigenvalues --    3.39337   3.40767   3.40979   3.43998   3.45208
 Alpha virt. eigenvalues --    3.45554   3.47074   3.50160   3.54491   3.56998
 Alpha virt. eigenvalues --    3.58862   3.59149   3.61776   3.66438   3.66839
 Alpha virt. eigenvalues --    3.68596   3.70475   3.75800   3.79791   3.83887
 Alpha virt. eigenvalues --    3.84145   3.84528   3.84809   3.96692   3.96986
 Alpha virt. eigenvalues --    4.01161   4.07061   4.07432   4.11096   4.12276
 Alpha virt. eigenvalues --    4.16280   4.16617   4.21984   4.25926   4.29814
 Alpha virt. eigenvalues --    4.33578   4.38221   4.43665   4.45651   4.47184
 Alpha virt. eigenvalues --    4.55722   4.57073   4.63783   4.74087   4.82456
 Alpha virt. eigenvalues --    4.82931   4.85597   4.87039   4.96821   5.03612
 Alpha virt. eigenvalues --    5.08182   5.15496   5.18714   5.18881   5.20089
 Alpha virt. eigenvalues --    5.20186   5.23520   5.25466   5.29549   5.30044
 Alpha virt. eigenvalues --    5.30704   5.31198   5.35406   5.41650   5.47906
 Alpha virt. eigenvalues --    5.49078   5.50794   5.52684   5.52826   5.59644
 Alpha virt. eigenvalues --    5.60355   5.65575   5.70677   5.72933   5.78318
 Alpha virt. eigenvalues --    5.82209   5.85280   5.98712   6.10730   6.14977
 Alpha virt. eigenvalues --    6.17056   6.24043   6.25166   6.34885   6.35197
 Alpha virt. eigenvalues --    6.41275   6.41387   6.43366   6.43515   6.45329
 Alpha virt. eigenvalues --    6.49944   6.50800   6.53723   6.54092   6.58311
 Alpha virt. eigenvalues --    6.70663   6.72860   6.85603   6.88487   6.92193
 Alpha virt. eigenvalues --    7.00549   7.07111   7.07865   7.14892   7.15768
 Alpha virt. eigenvalues --    7.20881   7.24505   7.25581   7.27981  22.41259
 Alpha virt. eigenvalues --   22.62759  22.93052  23.31557  23.71607  33.00371
 Alpha virt. eigenvalues --   43.69345  43.70161  44.15348  44.28866
          Condensed to atoms (all electrons):
               1          2          3          4          5          6
     1  C    5.223974   0.238605  -0.232193  -0.221680  -0.057583   0.003967
     2  C    0.238605   5.603025   0.350949  -0.245340   0.429640  -0.017845
     3  C   -0.232193   0.350949   5.614709   0.258530  -0.015910   0.434355
     4  C   -0.221680  -0.245340   0.258530   5.155245   0.004180  -0.059374
     5  H   -0.057583   0.429640  -0.015910   0.004180   0.421288  -0.003328
     6  H    0.003967  -0.017845   0.434355  -0.059374  -0.003328   0.422299
     7  C   -0.055066   0.006394  -0.007966  -0.049294  -0.000709  -0.001472
     8  H   -0.000900  -0.001957   0.007426   0.006249   0.000000   0.000030
     9  H   -0.000928   0.003151   0.000756  -0.010254  -0.000006   0.000008
    10  H    0.001184   0.004924   0.001133  -0.012865   0.000003   0.000013
    11  N    0.352979  -0.100903  -0.140523   0.392099   0.007162   0.007318
    12  O    0.039862   0.031594  -0.181810   0.373511   0.000876  -0.011097
    13  O    0.377273  -0.166679   0.036811   0.037066  -0.009051   0.001026
    14  O    0.000654  -0.003712  -0.008961   0.034358   0.000257  -0.025020
    15  H   -0.000126  -0.000329  -0.000469  -0.000266  -0.000001   0.000331
    16  H   -0.001289  -0.020508  -0.025251   0.033289  -0.000030   0.000025
    17  O    0.026019  -0.005070  -0.001036   0.001540  -0.025306   0.000266
    18  H    0.035932  -0.027964  -0.020960  -0.001728   0.000104  -0.000031
    19  H    0.000631  -0.000867  -0.000514  -0.000197   0.000342  -0.000002
               7          8          9         10         11         12
     1  C   -0.055066  -0.000900  -0.000928   0.001184   0.352979   0.039862
     2  C    0.006394  -0.001957   0.003151   0.004924  -0.100903   0.031594
     3  C   -0.007966   0.007426   0.000756   0.001133  -0.140523  -0.181810
     4  C   -0.049294   0.006249  -0.010254  -0.012865   0.392099   0.373511
     5  H   -0.000709   0.000000  -0.000006   0.000003   0.007162   0.000876
     6  H   -0.001472   0.000030   0.000008   0.000013   0.007318  -0.011097
     7  C    4.988211   0.411122   0.417850   0.417294   0.241551  -0.000657
     8  H    0.411122   0.475708  -0.015293  -0.015723  -0.057068   0.005899
     9  H    0.417850  -0.015293   0.501628  -0.031387  -0.032719  -0.000819
    10  H    0.417294  -0.015723  -0.031387   0.503940  -0.035189  -0.000928
    11  N    0.241551  -0.057068  -0.032719  -0.035189   6.629724  -0.106554
    12  O   -0.000657   0.005899  -0.000819  -0.000928  -0.106554   8.355203
    13  O   -0.001754   0.002961  -0.002687  -0.001646  -0.110750  -0.007998
    14  O   -0.000072  -0.000002  -0.000002  -0.000009  -0.006453  -0.023795
    15  H    0.000163   0.000000   0.000000   0.000000   0.000575   0.000301
    16  H   -0.000756   0.000056   0.000004   0.000004   0.004628   0.020212
    17  O   -0.000345   0.000002  -0.000015  -0.000014  -0.004157  -0.000053
    18  H   -0.000239   0.000004  -0.000010  -0.000011   0.004195   0.000036
    19  H    0.000204   0.000000   0.000001   0.000000   0.000302   0.000005
              13         14         15         16         17         18
     1  C    0.377273   0.000654  -0.000126  -0.001289   0.026019   0.035932
     2  C   -0.166679  -0.003712  -0.000329  -0.020508  -0.005070  -0.027964
     3  C    0.036811  -0.008961  -0.000469  -0.025251  -0.001036  -0.020960
     4  C    0.037066   0.034358  -0.000266   0.033289   0.001540  -0.001728
     5  H   -0.009051   0.000257  -0.000001  -0.000030  -0.025306   0.000104
     6  H    0.001026  -0.025020   0.000331   0.000025   0.000266  -0.000031
     7  C   -0.001754  -0.000072   0.000163  -0.000756  -0.000345  -0.000239
     8  H    0.002961  -0.000002   0.000000   0.000056   0.000002   0.000004
     9  H   -0.002687  -0.000002   0.000000   0.000004  -0.000015  -0.000010
    10  H   -0.001646  -0.000009   0.000000   0.000004  -0.000014  -0.000011
    11  N   -0.110750  -0.006453   0.000575   0.004628  -0.004157   0.004195
    12  O   -0.007998  -0.023795   0.000301   0.020212  -0.000053   0.000036
    13  O    8.328993  -0.000130   0.000006   0.000082  -0.025957   0.024596
    14  O   -0.000130   8.147860   0.299325   0.295006  -0.000008   0.000000
    15  H    0.000006   0.299325   0.368355  -0.012084   0.000000   0.000000
    16  H    0.000082   0.295006  -0.012084   0.370373   0.000000   0.000000
    17  O   -0.025957  -0.000008   0.000000   0.000000   8.151626   0.292008
    18  H    0.024596   0.000000   0.000000   0.000000   0.292008   0.371276
    19  H    0.000084   0.000000   0.000000   0.000000   0.298923  -0.011428
              19
     1  C    0.000631
     2  C   -0.000867
     3  C   -0.000514
     4  C   -0.000197
     5  H    0.000342
     6  H   -0.000002
     7  C    0.000204
     8  H    0.000000
     9  H    0.000001
    10  H    0.000000
    11  N    0.000302
    12  O    0.000005
    13  O    0.000084
    14  O    0.000000
    15  H    0.000000
    16  H    0.000000
    17  O    0.298923
    18  H   -0.011428
    19  H    0.368289
 Mulliken charges:
               1
     1  C    0.268686
     2  C   -0.077109
     3  C   -0.069076
     4  C    0.304931
     5  H    0.248071
     6  H    0.248532
     7  C   -0.364461
     8  H    0.181487
     9  H    0.170723
    10  H    0.169277
    11  N   -0.046216
    12  O   -0.493788
    13  O   -0.482245
    14  O   -0.709295
    15  H    0.344218
    16  H    0.336240
    17  O   -0.708421
    18  H    0.334220
    19  H    0.344228
 Sum of Mulliken charges =   0.00000
 Mulliken charges with hydrogens summed into heavy atoms:
               1
     1  C    0.268686
     2  C    0.170962
     3  C    0.179455
     4  C    0.304931
     7  C    0.157025
    11  N   -0.046216
    12  O   -0.493788
    13  O   -0.482245
    14  O   -0.028837
    17  O   -0.029973
 Electronic spatial extent (au):  <R**2>=           2215.6704
 Charge=              0.0000 electrons
 Dipole moment (field-independent basis, Debye):
    X=              0.0051    Y=              2.3721    Z=             -0.0052  Tot=              2.3721
 Quadrupole moment (field-independent basis, Debye-Ang):
   XX=            -64.8643   YY=            -58.6269   ZZ=            -59.0795
   XY=              0.1786   XZ=            -11.1215   YZ=             -0.0719
 Traceless Quadrupole moment (field-independent basis, Debye-Ang):
   XX=             -4.0074   YY=              2.2300   ZZ=              1.7774
   XY=              0.1786   XZ=            -11.1215   YZ=             -0.0719
 Octapole moment (field-independent basis, Debye-Ang**2):
  XXX=             -0.5694  YYY=             25.2670  ZZZ=             -0.0611  XYY=              0.2237
  XXY=              4.3122  XXZ=             -0.6724  XZZ=             -0.4104  YZZ=              3.1420
  YYZ=              0.0794  XYZ=             18.7767
 Hexadecapole moment (field-independent basis, Debye-Ang**3):
 XXXX=          -1400.7836 YYYY=           -709.4034 ZZZZ=            -65.9064 XXXY=              6.9628
 XXXZ=           -268.4350 YYYX=              1.2427 YYYZ=             -0.3690 ZZZX=             -8.8293
 ZZZY=              0.1906 XXYY=           -502.2284 XXZZ=           -320.2238 YYZZ=           -134.7887
 XXYZ=              0.1086 YYXZ=            -31.1208 ZZXY=             -2.8092
 N-N= 5.261648865340D+02 E-N=-2.345819650134D+03  KE= 5.493125615199D+02
 1\1\GINC-D12S4B4\FOpt\RwB97XD\Gen\C5H9N1O4\PMMASS\21-Feb-2022\0\\#n wB
 97XD/Gen scrf(smd,solvent=toluene) opt int=(grid=ultrafine)\\dieneophi
 le diels-alder toluene 2 h2o - opt\\0,1\C,-1.1305313246,0.3134389031,0
 .0251832449\C,-0.6589359327,-1.1063285016,0.0219051662\C,0.6651967861,
 -1.101890664,-0.003741109\C,1.1302893538,0.3204042253,-0.0192950975\H,
 -1.3481337052,-1.9373178614,0.0383812176\H,1.3600460855,-1.9282828054,
 -0.0139485917\C,-0.0209496666,2.554416991,-0.0092414333\H,1.0091642046
 ,2.902719047,-0.0294113599\H,-0.5455462021,2.9219350755,-0.8908333796\
 H,-0.5138773059,2.9336415824,0.8854728786\N,-0.0036269071,1.1100087201
 ,-0.0001039813\O,2.265601683,0.7309043309,-0.0440579479\O,-2.265963633
 3,0.7250327075,0.0452852449\O,3.9616301163,-1.5909665779,0.0839463141\
 H,4.7345342199,-1.5634184591,-0.4820129354\H,3.5606112053,-0.712084270
 3,0.0234186083\O,-3.9467910128,-1.6063789987,-0.099868411\H,-3.5527740
 998,-0.7246132733,-0.0339916246\H,-4.7289838644,-1.5834501711,0.453383
 1965\\Version=ES64L-G09RevD.01\State=1-A\HF=-551.6843163\RMSD=8.585e-0
 9\RMSF=4.542e-06\Dipole=0.001959,0.9332379,-0.0028514\Quadrupole=-2.99
 87834,1.6578499,1.3409335,0.1254237,-8.2636049,-0.0544315\PG=C01 [X(C5
 H9N1O4)]\\@


 THESE ARE THE TIMES THAT TRY MENS SOULS.
 THE SUMMER SOLDIER AND THE SUNSHINE PATRIOT WILL IN THIS CRISIS,
 SHRINK FROM THE SERVICE OF HIS COUNTRY.  BUT HE THAT STANDS NOW,
 DESERVES THE LOVE AND THANKS OF MAN AND WOMAN.
 TYRANNY, LIKE HELL, IS NOT EASILY CONQUERED,
 YET WE HAVE THIS CONSOLATION WITH US,
 THAT THE HARDER THE CONFLICT, THE MORE GLORIOUS THE TRIUMPH.
 WHAT WE OBTAIN TOO CHEAP, WE ESTEEM TOO LIGHTLY, 
 'TIS DEARNESS ONLY THAT GIVES EVERYTHING ITS VALUE.

                                              -- TOM PAINE
 Job cpu time:       0 days  5 hours 57 minutes 34.3 seconds.
 File lengths (MBytes):  RWF=    198 Int=      0 D2E=      0 Chk=     13 Scr=      1
 Normal termination of Gaussian 09 at Mon Feb 21 16:21:04 2022.
