 Entering Gaussian System, Link 0=g09
 Input=ts_diels_ma_water_freq.com
 Output=ts_diels_ma_water_freq.log
 Initial command:
 /apps/applications/gaussian/G09.D01/2/default/g09/l1.exe "/nobackup/pmmass/Temp/Gau-264357.inp" -scrdir="/nobackup/pmmass/Temp/"
 Entering Link 1 = /apps/applications/gaussian/G09.D01/2/default/g09/l1.exe PID=    264358.
  
 Copyright (c) 1988,1990,1992,1993,1995,1998,2003,2009,2013,
            Gaussian, Inc.  All Rights Reserved.
  
 This is part of the Gaussian(R) 09 program.  It is based on
 the Gaussian(R) 03 system (copyright 2003, Gaussian, Inc.),
 the Gaussian(R) 98 system (copyright 1998, Gaussian, Inc.),
 the Gaussian(R) 94 system (copyright 1995, Gaussian, Inc.),
 the Gaussian 92(TM) system (copyright 1992, Gaussian, Inc.),
 the Gaussian 90(TM) system (copyright 1990, Gaussian, Inc.),
 the Gaussian 88(TM) system (copyright 1988, Gaussian, Inc.),
 the Gaussian 86(TM) system (copyright 1986, Carnegie Mellon
 University), and the Gaussian 82(TM) system (copyright 1983,
 Carnegie Mellon University). Gaussian is a federally registered
 trademark of Gaussian, Inc.
  
 This software contains proprietary and confidential information,
 including trade secrets, belonging to Gaussian, Inc.
  
 This software is provided under written license and may be
 used, copied, transmitted, or stored only in accord with that
 written license.
  
 The following legend is applicable only to US Government
 contracts under FAR:
  
                    RESTRICTED RIGHTS LEGEND
  
 Use, reproduction and disclosure by the US Government is
 subject to restrictions as set forth in subparagraphs (a)
 and (c) of the Commercial Computer Software - Restricted
 Rights clause in FAR 52.227-19.
  
 Gaussian, Inc.
 340 Quinnipiac St., Bldg. 40, Wallingford CT 06492
  
  
 ---------------------------------------------------------------
 Warning -- This program may not be used in any manner that
 competes with the business of Gaussian, Inc. or will provide
 assistance to any competitor of Gaussian, Inc.  The licensee
 of this program is prohibited from giving any competitor of
 Gaussian, Inc. access to this program.  By using this program,
 the user acknowledges that Gaussian, Inc. is engaged in the
 business of creating and licensing software in the field of
 computational chemistry and represents and warrants to the
 licensee that it is not a competitor of Gaussian, Inc. and that
 it will not use this program in any manner prohibited above.
 ---------------------------------------------------------------
  

 Cite this work as:
 Gaussian 09, Revision D.01,
 M. J. Frisch, G. W. Trucks, H. B. Schlegel, G. E. Scuseria, 
 M. A. Robb, J. R. Cheeseman, G. Scalmani, V. Barone, B. Mennucci, 
 G. A. Petersson, H. Nakatsuji, M. Caricato, X. Li, H. P. Hratchian, 
 A. F. Izmaylov, J. Bloino, G. Zheng, J. L. Sonnenberg, M. Hada, 
 M. Ehara, K. Toyota, R. Fukuda, J. Hasegawa, M. Ishida, T. Nakajima, 
 Y. Honda, O. Kitao, H. Nakai, T. Vreven, J. A. Montgomery, Jr., 
 J. E. Peralta, F. Ogliaro, M. Bearpark, J. J. Heyd, E. Brothers, 
 K. N. Kudin, V. N. Staroverov, T. Keith, R. Kobayashi, J. Normand, 
 K. Raghavachari, A. Rendell, J. C. Burant, S. S. Iyengar, J. Tomasi, 
 M. Cossi, N. Rega, J. M. Millam, M. Klene, J. E. Knox, J. B. Cross, 
 V. Bakken, C. Adamo, J. Jaramillo, R. Gomperts, R. E. Stratmann, 
 O. Yazyev, A. J. Austin, R. Cammi, C. Pomelli, J. W. Ochterski, 
 R. L. Martin, K. Morokuma, V. G. Zakrzewski, G. A. Voth, 
 P. Salvador, J. J. Dannenberg, S. Dapprich, A. D. Daniels, 
 O. Farkas, J. B. Foresman, J. V. Ortiz, J. Cioslowski, 
 and D. J. Fox, Gaussian, Inc., Wallingford CT, 2013.
 
 ******************************************
 Gaussian 09:  ES64L-G09RevD.01 24-Apr-2013
                14-Feb-2022 
 ******************************************
 %nprocshared=8
 Will use up to    8 processors via shared memory.
 %mem=4GB
 %NoSave
 %chk="ts_diels_ma_water_freq.chk"
 --------------------------------------------
 #n wB97XD/Gen scrf(smd,solvent=toluene) freq
 --------------------------------------------
 1/10=4,30=1,38=1/1,3;
 2/12=2,17=6,18=5,40=1/2;
 3/5=7,11=2,16=1,25=1,30=1,70=32201,71=2,72=13,74=-58,140=1/1,2,3;
 4//1;
 5/5=2,38=5,53=13,98=1/2;
 8/6=4,10=90,11=11/1;
 11/6=1,8=1,9=11,15=111,16=1/1,2,10;
 10/6=1/2;
 6/7=2,8=2,9=2,10=2,18=1,28=1/1;
 7/8=1,10=1,25=1/1,2,3,16;
 1/10=4,30=1/3;
 99//99;
 -----------------------------
 ts diels water toluene - freq
 -----------------------------
 Symbolic Z-matrix:
 Charge =  0 Multiplicity = 1
 C                    -2.76591   0.54942  -0.72557 
 C                    -1.90427  -0.63986  -0.57093 
 C                    -0.58799  -0.20441  -0.56379 
 C                    -0.6155    1.26787  -0.72222 
 H                    -2.25356  -1.60767  -0.89061 
 H                     0.26236  -0.78322  -0.89446 
 C                    -2.37949   3.03387  -0.78085 
 H                    -2.1762    3.42922  -1.77725 
 H                    -3.45128   3.06217  -0.59825 
 H                    -1.86959   3.65041  -0.04133 
 N                    -1.93719   1.66452  -0.66766 
 O                     0.31794   2.03074  -0.87727 
 O                    -3.96607   0.61018  -0.89319 
 C                    -1.46619  -1.90716   1.90243 
 H                    -1.6238   -2.97595   2.00415 
 C                    -0.153    -1.44297   1.88655 
 H                     0.64418  -2.174     1.95752 
 C                    -2.55195  -1.12102   1.58398 
 H                    -2.47774  -0.05021   1.74121 
 C                    -3.94084  -1.66331   1.52654 
 H                    -4.56123  -1.09944   0.8308 
 H                    -3.95453  -2.71412   1.23736 
 H                    -4.40909  -1.57207   2.51186 
 C                     0.17058  -0.14917   1.53954 
 H                    -0.53363   0.64647   1.75617 
 C                     1.58502   0.32951   1.45618 
 H                     1.97783   0.52021   2.45971 
 H                     1.63318   1.25549   0.8856 
 C                     3.54623  -0.43206   0.27447 
 C                     4.15807   0.92118   0.44486 
 H                     4.08592   1.27183   1.47429 
 H                     5.19834   0.88522   0.13207 
 H                     3.62607   1.63549  -0.18814 
 O                     2.36922  -0.68891   0.82805 
 O                     4.06304  -1.3285   -0.36098 
 H                    -4.73801  -1.0034   -1.54214 
 H                     1.27957   4.82002   0.72471 
 H                     2.49241  -2.32725  -1.12349 
 H                     5.74519  -1.0114   -1.18045 
 O                     1.67513  -2.5874   -1.571 
 H                     1.93075  -2.76433  -2.47804 
 O                     6.59263  -0.70731  -1.5391 
 H                     7.20263  -1.43392  -1.40364 
 O                     0.91762   3.99564   1.0537 
 H                     0.70696   3.47078   0.26787 
 O                    -5.01339  -1.86753  -1.88439 
 H                    -5.39388  -1.68859  -2.74563 
 

 GradGradGradGradGradGradGradGradGradGradGradGradGradGradGradGradGradGrad
 Berny optimization.
 Initialization pass.
 Trust Radius=3.00D-01 FncErr=1.00D-07 GrdErr=1.00D-07
 Number of steps in this run=      2 maximum allowed number of steps=      2.
 GradGradGradGradGradGradGradGradGradGradGradGradGradGradGradGradGradGrad

                          Input orientation:                          
 ---------------------------------------------------------------------
 Center     Atomic      Atomic             Coordinates (Angstroms)
 Number     Number       Type             X           Y           Z
 ---------------------------------------------------------------------
      1          6           0       -2.765910    0.549420   -0.725570
      2          6           0       -1.904270   -0.639860   -0.570930
      3          6           0       -0.587990   -0.204410   -0.563790
      4          6           0       -0.615500    1.267870   -0.722220
      5          1           0       -2.253560   -1.607670   -0.890610
      6          1           0        0.262360   -0.783220   -0.894460
      7          6           0       -2.379490    3.033870   -0.780850
      8          1           0       -2.176200    3.429220   -1.777250
      9          1           0       -3.451280    3.062170   -0.598250
     10          1           0       -1.869590    3.650410   -0.041330
     11          7           0       -1.937190    1.664520   -0.667660
     12          8           0        0.317940    2.030740   -0.877270
     13          8           0       -3.966070    0.610180   -0.893190
     14          6           0       -1.466190   -1.907160    1.902430
     15          1           0       -1.623800   -2.975950    2.004150
     16          6           0       -0.153000   -1.442970    1.886550
     17          1           0        0.644180   -2.174000    1.957520
     18          6           0       -2.551950   -1.121020    1.583980
     19          1           0       -2.477740   -0.050210    1.741210
     20          6           0       -3.940840   -1.663310    1.526540
     21          1           0       -4.561230   -1.099440    0.830800
     22          1           0       -3.954530   -2.714120    1.237360
     23          1           0       -4.409090   -1.572070    2.511860
     24          6           0        0.170580   -0.149170    1.539540
     25          1           0       -0.533630    0.646470    1.756170
     26          6           0        1.585020    0.329510    1.456180
     27          1           0        1.977830    0.520210    2.459710
     28          1           0        1.633180    1.255490    0.885600
     29          6           0        3.546230   -0.432060    0.274470
     30          6           0        4.158070    0.921180    0.444860
     31          1           0        4.085920    1.271830    1.474290
     32          1           0        5.198340    0.885220    0.132070
     33          1           0        3.626070    1.635490   -0.188140
     34          8           0        2.369220   -0.688910    0.828050
     35          8           0        4.063040   -1.328500   -0.360980
     36          1           0       -4.738010   -1.003400   -1.542140
     37          1           0        1.279570    4.820020    0.724710
     38          1           0        2.492410   -2.327250   -1.123490
     39          1           0        5.745190   -1.011400   -1.180450
     40          8           0        1.675130   -2.587400   -1.571000
     41          1           0        1.930750   -2.764330   -2.478040
     42          8           0        6.592630   -0.707310   -1.539100
     43          1           0        7.202630   -1.433920   -1.403640
     44          8           0        0.917620    3.995640    1.053700
     45          1           0        0.706960    3.470780    0.267870
     46          8           0       -5.013390   -1.867530   -1.884390
     47          1           0       -5.393880   -1.688590   -2.745630
 ---------------------------------------------------------------------
                    Distance matrix (angstroms):
                    1          2          3          4          5
     1  C    0.000000
     2  C    1.476727   0.000000
     3  C    2.310361   1.386456   0.000000
     4  C    2.267255   2.307217   1.481035   0.000000
     5  H    2.223236   1.077430   2.202288   3.313658   0.000000
     6  H    3.312834   2.195338   1.080490   2.237694   2.647562
     7  C    2.514929   3.710282   3.707161   2.496769   4.644545
     8  H    3.122024   4.252830   4.147067   2.867108   5.114917
     9  H    2.607653   4.012357   4.343980   3.358054   4.829846
    10  H    3.299653   4.322973   4.095742   2.777202   5.340048
    11  N    1.390532   2.306644   2.307386   1.381004   3.295000
    12  O    3.424537   3.487716   2.432051   1.215451   4.455426
    13  O    1.213331   2.432585   3.490485   3.418787   2.802063
    14  C    3.824976   2.813445   3.122953   4.206338   2.917314
    15  H    4.602610   3.488125   3.917736   5.143906   3.263192
    16  C    4.197629   3.122682   2.779823   3.790546   3.485986
    17  H    5.122958   3.904003   3.428488   4.540294   4.102374
    18  C    2.858351   2.301009   3.051267   3.843851   2.539579
    19  H    2.554917   2.454088   2.984620   3.357642   3.066336
    20  C    3.368773   3.097491   4.211825   4.970576   2.948326
    21  H    2.892093   3.038996   4.304950   4.856420   2.923507
    22  H    3.989562   3.431623   4.569067   5.553856   2.940372
    23  H    4.204963   4.080041   5.092241   5.737234   4.027950
    24  C    3.773821   2.999977   2.236622   2.782352   3.729518
    25  H    3.339390   2.991437   2.471673   2.556415   3.878756
    26  C    4.872267   4.150180   3.014519   3.235465   4.898447
    27  H    5.714012   5.059767   4.031136   4.172414   5.801481
    28  H    4.737763   4.269354   3.027480   2.764381   5.143866
    29  C    6.465794   5.519586   4.224486   4.604688   6.031338
    30  C    7.032042   6.341975   4.980905   4.926382   7.020510
    31  H    7.232485   6.612099   5.308341   5.189222   7.353454
    32  H    8.017330   7.298435   5.929007   5.888715   7.924089
    33  H    6.505827   5.992362   4.613529   4.290839   6.751415
    34  O    5.506065   4.496918   3.304096   3.891128   5.016773
    35  O    7.091831   6.010582   4.789237   5.362869   6.344910
    36  H    2.639548   3.017531   4.337997   4.777659   2.638584
    37  H    6.058650   6.451807   5.512976   4.278162   7.510490
    38  H    6.006954   4.741667   3.782668   4.769173   4.805857
    39  H    8.664981   7.682695   6.414099   6.772254   8.026179
    40  O    5.502475   4.195850   3.437270   4.564046   4.105777
    41  H    6.009218   4.780985   4.069594   5.081823   4.622364
    42  O    9.477525   8.552147   7.263982   7.518362   8.915507
    43  H   10.186521   9.179301   7.931633   8.299829   9.471690
    44  O    5.348890   5.664834   4.745899   3.597927   6.725608
    45  H    4.645653   4.941606   3.984417   2.753542   5.991445
    46  O    3.497953   3.591515   4.908576   5.524745   2.944790
    47  H    3.999445   4.243410   5.482681   5.972249   3.648185
                    6          7          8          9         10
     6  H    0.000000
     7  C    4.643539   0.000000
     8  H    4.946771   1.091074   0.000000
     9  H    5.354053   1.087602   1.774992   0.000000
    10  H    4.993007   1.089500   1.776613   1.777056   0.000000
    11  N    3.298619   1.443454   2.098209   2.061725   2.083415
    12  O    2.814561   2.879530   2.997740   3.917744   2.847352
    13  O    4.452099   2.898988   3.454299   2.522747   3.789973
    14  C    3.474726   5.696305   6.520821   5.906625   5.901484
    15  H    4.094827   6.666725   7.458575   6.824299   6.939240
    16  C    2.888219   5.666955   6.423006   6.111397   5.710160
    17  H    3.195911   6.615373   7.300625   7.121954   6.651180
    18  C    3.765251   4.783856   5.669545   4.803124   5.086629
    19  H    3.871977   3.985221   4.957511   4.013448   4.152335
    20  C    4.929776   5.461260   6.321617   5.204283   5.914720
    21  H    5.132596   4.943850   5.744480   4.537970   5.528708
    22  H    5.104429   6.292322   7.070428   6.081797   6.818304
    23  H    5.835045   6.014640   6.956663   5.662717   6.343669
    24  C    2.516903   4.692421   5.414180   5.291571   4.593283
    25  H    3.115037   3.942505   4.788193   4.459998   3.746926
    26  C    2.917723   5.294828   5.848936   6.087071   5.020482
    27  H    3.986505   5.983808   6.608338   6.729630   5.554817
    28  H    3.033826   4.694807   5.131008   5.596216   4.343298
    29  C    3.503357   6.945540   7.201753   7.869970   6.789506
    30  C    4.458174   6.978934   7.165962   7.973338   6.634588
    31  H    4.945080   7.070500   7.378414   8.019359   6.589601
    32  H    5.310495   7.929289   8.031269   8.949213   7.591573
    33  H    4.202808   6.194637   6.277665   7.231355   5.855231
    34  O    2.723012   6.244830   6.663890   7.069876   6.128053
    35  O    3.876480   7.791839   7.973069   8.706278   7.751633
    36  H    5.046946   4.737270   5.125063   4.367546   5.669057
    37  H    5.920534   4.341171   4.487368   5.217394   3.445579
    38  H    2.722059   7.252201   7.440448   8.040471   7.478672
    39  H    5.495023   9.084840   9.100752  10.075117   9.000830
    40  O    2.389287   6.975884   7.146677   7.690511   7.335885
    41  H    3.035794   7.421438   7.464463   8.151562   7.844044
    42  O    6.363461   9.750400   9.698452  10.769137   9.635466
    43  H    6.989279  10.590847  10.571290  11.591776  10.488636
    44  O    5.202134   3.893778   4.231646   4.763149   3.014434
    45  H    4.432290   3.288902   3.535089   4.267093   2.601246
    46  O    5.476242   5.672649   6.009716   5.328817   6.612716
    47  H    6.019932   5.937048   6.122353   5.563691   6.945414
                   11         12         13         14         15
    11  N    0.000000
    12  O    2.294268   0.000000
    13  O    2.297575   4.513423   0.000000
    14  C    4.425393   5.139738   4.516845   0.000000
    15  H    5.363837   6.094250   5.171183   1.085127   0.000000
    16  C    4.400434   4.463983   5.146055   1.392908   2.127701
    17  H    5.318766   5.081565   6.093653   2.127886   2.406041
    18  C    3.634150   4.922155   3.336639   1.377789   2.116311
    19  H    3.005852   4.359199   3.096983   2.120728   3.059135
    20  C    4.461343   6.128745   3.320314   2.514885   2.705515
    21  H    4.095173   6.043329   2.499831   3.373437   3.677844
    22  H    5.183749   6.726021   3.948461   2.699137   2.467554
    23  H    5.166735   6.841875   4.068519   3.023963   3.160141
    24  C    3.550197   3.258020   4.858669   2.429246   3.380288
    25  H    2.980161   3.094573   4.336135   2.722515   3.791028
    26  C    4.324224   3.153516   6.034311   3.809424   4.639274
    27  H    5.139773   4.021489   6.824953   4.250172   5.040080
    28  H    3.915031   2.332076   5.910340   4.543390   5.455654
    29  C    5.945683   4.220633   7.673614   5.472708   6.016010
    30  C    6.240389   4.210196   8.239463   6.461913   7.144860
    31  H    6.404687   4.505935   8.418865   6.412114   7.136196
    32  H    7.222373   5.113637   9.225682   7.439591   8.059461
    33  H    5.583963   3.402183   7.693435   6.546141   7.323432
    34  O    5.130395   3.809509   6.692249   4.165189   4.749523
    35  O    6.712301   5.057353   8.276976   6.002521   6.375585
    36  H    3.965741   5.933859   1.902805   4.835975   5.115216
    37  H    4.716293   3.357254   6.917882   7.360786   8.416868
    38  H    5.980248   4.876579   7.098838   5.000318   5.210195
    39  H    8.151225   6.229091   9.849904   7.893702   8.264572
    40  O    5.651876   4.863172   6.519746   4.732371   4.880124
    41  H    6.152491   5.306253   6.976500   5.609141   5.724477
    42  O    8.896225   6.877985  10.660165   8.844679   9.230984
    43  H    9.678755   7.725276  11.365684   9.289914   9.586280
    44  O    4.067818   2.819414   6.253171   6.422300   7.480992
    45  H    3.336064   1.880531   5.600741   6.026326   7.071594
    46  O    4.839299   6.680859   2.866776   5.188854   5.276235
    47  H    5.244999   7.067466   3.279408   6.089251   6.199291
                   16         17         18         19         20
    16  C    0.000000
    17  H    1.083945   0.000000
    18  C    2.439295   3.385786   0.000000
    19  H    2.713912   3.782018   1.084833   0.000000
    20  C    3.811284   4.633461   1.492110   2.188341   0.000000
    21  H    4.545890   5.433274   2.145915   2.504129   1.089444
    22  H    4.060653   4.685989   2.150661   3.087263   1.089961
    23  H    4.303717   5.119097   2.124471   2.576834   1.094732
    24  C    1.378056   2.121071   2.891131   2.657830   4.381388
    25  H    2.127825   3.063140   2.688361   2.065224   4.122729
    26  C    2.519448   2.721045   4.385760   4.090409   5.874641
    27  H    2.953477   3.047882   4.896881   4.549036   6.377242
    28  H    3.387333   3.726733   4.863214   4.397338   6.324547
    29  C    4.159933   3.780067   6.275132   6.211711   7.690245
    30  C    5.123768   4.920945   7.105811   6.830673   8.569829
    31  H    5.050598   4.894163   7.056846   6.700796   8.546733
    32  H    6.093891   5.781995   8.136340   7.898517   9.589795
    33  H    5.297417   5.292234   6.993332   6.619703   8.430915
    34  O    2.837362   2.541054   4.997606   4.973411   6.422943
    35  O    4.779068   4.216505   6.898116   6.988207   8.230245
    36  H    5.742077   6.525787   3.816454   4.098509   3.238481
    37  H    6.528949   7.130207   7.121436   6.234564   8.362367
    38  H    4.103716   3.596118   5.850722   6.172018   6.989290
    39  H    6.661936   6.100721   8.746235   8.779326  10.078291
    40  O    4.075099   3.699218   5.474703   5.886799   6.479801
    41  H    5.013746   4.655958   6.268578   6.678570   7.191973
    42  O    7.601302   7.054189   9.672028   9.667669  11.012088
    43  H    8.057960   7.406644  10.206645  10.272015  11.524561
    44  O    5.605207   6.241484   6.204782   5.326354   7.473415
    45  H    5.244482   5.892572   5.782497   4.970957   7.038833
    46  O    6.166330   6.845604   4.318050   4.783006   3.581412
    47  H    6.998874   7.668990   5.210012   5.596418   4.512583
                   21         22         23         24         25
    21  H    0.000000
    22  H    1.772165   0.000000
    23  H    1.752852   1.770665   0.000000
    24  C    4.878048   4.866910   4.893202   0.000000
    25  H    4.486209   4.823410   4.529037   1.084382   0.000000
    26  C    6.341087   6.324411   6.376505   1.495568   2.163131
    27  H    6.930795   6.866435   6.721094   2.135635   2.611195
    28  H    6.627172   6.863238   6.866502   2.130706   2.413268
    29  C    8.153883   7.899136   8.342221   3.615998   4.472574
    30  C    8.958686   8.925119   9.158876   4.271305   4.879247
    31  H    8.989450   8.977348   9.018288   4.165740   4.670201
    32  H    9.983802   9.897067  10.198254   5.322528   5.962397
    33  H    8.691948   8.855318   9.063235   4.255620   4.696978
    34  O    6.942599   6.652731   7.039934   2.373090   3.327339
    35  O    8.709239   8.291928   8.949275   4.489325   5.432514
    36  H    2.381453   3.356490   4.106883   5.858389   5.592650
    37  H    8.316622   9.188138   8.741486   5.156225   4.665847
    38  H    7.421631   6.876505   7.836885   4.150501   5.127609
    39  H   10.501199  10.140494  10.819284   6.262433   7.127121
    40  O    6.846521   6.292536   7.397187   4.228959   5.138735
    41  H    7.474362   6.960118   8.155621   5.106683   5.969528
    42  O   11.409592  11.089572  11.755676   7.143687   7.967127
    43  H   11.978856  11.536725  12.254887   7.730629   8.611744
    44  O    7.485140   8.294122   7.842159   4.239523   3.717059
    45  H    6.996973   7.805279   7.525941   3.874130   3.425030
    46  O    2.857738   3.403413   4.447414   6.445898   6.296199
    47  H    3.719040   4.357482   5.350195   7.189973   7.024296
                   26         27         28         29         30
    26  C    0.000000
    27  H    1.094412   0.000000
    28  H    1.088724   1.771226   0.000000
    29  C    2.413042   2.853414   2.623178   0.000000
    30  C    2.827265   2.995637   2.584779   1.494871   0.000000
    31  H    2.672601   2.445410   2.522450   2.152690   1.089902
    32  H    3.888208   3.990341   3.662687   2.117775   1.086873
    33  H    2.928354   3.312349   2.295415   2.120176   1.092681
    34  O    1.430628   2.068205   2.079846   1.325811   2.437049
    35  O    3.491654   3.965113   3.759679   1.214287   2.391541
    36  H    7.123713   7.964841   7.182518   8.500302   9.316245
    37  H    4.559937   4.688940   3.585638   5.738014   4.854383
    38  H    3.812667   4.605664   4.196516   2.580034   3.973216
    39  H    5.104593   5.457985   5.129910   2.699602   2.982524
    40  O    4.204795   5.098577   4.561189   3.398862   4.747506
    41  H    5.016918   5.930581   5.249912   3.952919   5.204544
    42  O    5.926454   6.228456   5.859001   3.556030   3.537677
    43  H    6.545670   6.785472   6.594871   4.145966   4.269988
    44  O    3.748056   3.896091   2.837024   5.207813   4.508160
    45  H    3.471404   3.889105   2.479311   4.826350   4.294409
    46  O    7.715271   8.570278   7.848757   8.943620   9.864988
    47  H    8.392436   9.290666   8.439965   9.519739  10.403359
                   31         32         33         34         35
    31  H    0.000000
    32  H    1.785637   0.000000
    33  H    1.762777   1.771291   0.000000
    34  O    2.684993   3.311524   2.831104   0.000000
    35  O    3.182838   2.536249   3.001009   2.166078   0.000000
    36  H    9.598816  10.251874   8.874395   7.498628   8.885905
    37  H    4.585534   5.584857   4.059629   5.616612   6.835988
    38  H    4.716048   4.383885   4.226508   2.551047   2.011418
    39  H    3.874785   2.370426   3.532899   3.941478   1.897818
    40  O    5.475341   5.231878   4.852965   3.137111   2.958224
    41  H    6.046177   5.550589   5.241771   3.928085   3.330197
    42  O    4.391026   2.696851   4.014260   4.841583   2.858788
    43  H    5.031644   3.428410   4.867289   5.375624   3.309876
    44  O    4.199305   5.371097   3.801076   4.909488   6.343615
    45  H    4.208111   5.184212   3.478137   4.514414   5.889976
    46  O   10.194791  10.766762   9.475689   7.952950   9.219160
    47  H   10.790664  11.273898   9.947349   8.604433   9.759588
                   36         37         38         39         40
    36  H    0.000000
    37  H    8.675373   0.000000
    38  H    7.362528   7.481330   0.000000
    39  H   10.489441   7.587941   3.509314   0.000000
    40  O    6.605926   7.765090   0.967414   4.381974   0.000000
    41  H    6.960542   8.258572   1.530133   4.393911   0.958836
    42  O   11.334508   7.994049   4.428176   0.969152   5.264747
    43  H   11.949201   8.872670   4.802363   1.533776   5.649051
    44  O    7.982164   0.958564   6.870157   7.305293   7.127362
    45  H    7.276134   1.535263   6.224216   6.897197   6.404712
    46  O    0.969376   9.546312   7.558263  10.815523   6.734443
    47  H    1.532331   9.946869   8.076682  11.268862   7.222085
                   41         42         43         44         45
    41  H    0.000000
    42  O    5.181319   0.000000
    43  H    5.542296   0.958338   0.000000
    44  O    7.693947   7.813200   8.661408   0.000000
    45  H    6.922014   7.440611   8.309257   0.968186   0.000000
    46  O    7.026930  11.668977  12.233163   8.842286   8.114936
    47  H    7.408038  12.086978  12.670354   9.304860   8.539352
                   46         47
    46  O    0.000000
    47  H    0.958398   0.000000
 Stoichiometry    C13H25NO8
 Framework group  C1[X(C13H25NO8)]
 Deg. of freedom   135
 Full point group                 C1      NOp   1
 Largest Abelian subgroup         C1      NOp   1
 Largest concise Abelian subgroup C1      NOp   1
                         Standard orientation:                         
 ---------------------------------------------------------------------
 Center     Atomic      Atomic             Coordinates (Angstroms)
 Number     Number       Type             X           Y           Z
 ---------------------------------------------------------------------
      1          6           0       -2.765910    0.549419   -0.725570
      2          6           0       -1.904270   -0.639860   -0.570930
      3          6           0       -0.587990   -0.204410   -0.563790
      4          6           0       -0.615500    1.267870   -0.722220
      5          1           0       -2.253560   -1.607670   -0.890610
      6          1           0        0.262360   -0.783220   -0.894460
      7          6           0       -2.379491    3.033870   -0.780850
      8          1           0       -2.176201    3.429220   -1.777250
      9          1           0       -3.451281    3.062169   -0.598250
     10          1           0       -1.869591    3.650410   -0.041330
     11          7           0       -1.937191    1.664520   -0.667660
     12          8           0        0.317939    2.030740   -0.877270
     13          8           0       -3.966070    0.610179   -0.893190
     14          6           0       -1.466190   -1.907160    1.902430
     15          1           0       -1.623800   -2.975950    2.004150
     16          6           0       -0.153000   -1.442970    1.886550
     17          1           0        0.644180   -2.174000    1.957520
     18          6           0       -2.551950   -1.121020    1.583980
     19          1           0       -2.477740   -0.050210    1.741210
     20          6           0       -3.940840   -1.663311    1.526540
     21          1           0       -4.561230   -1.099441    0.830800
     22          1           0       -3.954530   -2.714121    1.237360
     23          1           0       -4.409090   -1.572071    2.511860
     24          6           0        0.170580   -0.149170    1.539540
     25          1           0       -0.533630    0.646470    1.756170
     26          6           0        1.585020    0.329510    1.456180
     27          1           0        1.977830    0.520210    2.459710
     28          1           0        1.633180    1.255490    0.885600
     29          6           0        3.546230   -0.432059    0.274470
     30          6           0        4.158070    0.921181    0.444860
     31          1           0        4.085920    1.271831    1.474290
     32          1           0        5.198340    0.885221    0.132070
     33          1           0        3.626069    1.635491   -0.188140
     34          8           0        2.369220   -0.688910    0.828050
     35          8           0        4.063040   -1.328499   -0.360980
     36          1           0       -4.738010   -1.003401   -1.542140
     37          1           0        1.279569    4.820020    0.724710
     38          1           0        2.492410   -2.327250   -1.123490
     39          1           0        5.745190   -1.011399   -1.180450
     40          8           0        1.675130   -2.587400   -1.571000
     41          1           0        1.930750   -2.764330   -2.478040
     42          8           0        6.592630   -0.707309   -1.539100
     43          1           0        7.202630   -1.433919   -1.403640
     44          8           0        0.917619    3.995640    1.053700
     45          1           0        0.706959    3.470780    0.267870
     46          8           0       -5.013390   -1.867531   -1.884390
     47          1           0       -5.393880   -1.688591   -2.745630
 ---------------------------------------------------------------------
 Rotational constants (GHZ):      0.3481078      0.1445873      0.1269822
 General basis read from cards:  (5D, 7F)
 There are  1030 symmetry adapted cartesian basis functions of A   symmetry.
 There are   920 symmetry adapted basis functions of A   symmetry.
   920 basis functions,  1410 primitive gaussians,  1030 cartesian basis functions
    87 alpha electrons       87 beta electrons
       nuclear repulsion energy      2005.1562661206 Hartrees.
 NAtoms=   47 NActive=   47 NUniq=   47 SFac= 1.00D+00 NAtFMM=   60 NAOKFM=F Big=F
 Integral buffers will be    131072 words long.
 Raffenetti 2 integral format.
 Two-electron integral symmetry is turned on.
 Nuclear repulsion after empirical dispersion term =     2005.1177728932 Hartrees.
 Force inversion solution in PCM.
 ------------------------------------------------------------------------------
 Polarizable Continuum Model (PCM)
 =================================
 Model                : PCM (using non-symmetric T matrix).
 Atomic radii         : SMD-Coulomb.
 Polarization charges : Total charges.
 Charge compensation  : None.
 Solution method      : Matrix inversion.
 Cavity type          : VdW (van der Waals Surface) (Alpha=1.000).
 Cavity algorithm     : GePol (No added spheres)
                        Default sphere list used, NSphG=   47.
                        Lebedev-Laikov grids with approx.  5.0 points / Ang**2.
                        Smoothing algorithm: Karplus/York (Gamma=1.0000).
                        Polarization charges: spherical gaussians, with
                                              point-specific exponents (IZeta= 3).
                        Self-potential: point-specific (ISelfS= 7).
                        Self-field    : sphere-specific E.n sum rule (ISelfD= 2).
 1st derivatives      : Analytical E(r).r(x)/FMM algorithm (CHGder, D1EAlg=3).
                        Cavity 1st derivative terms included.
 2nd derivatives      : Analytical E(r).r(xy)/FMM algorithm (CHGder, D2EAlg=3).
                        Cavity 2nd derivative terms included.
 Solvent              : Toluene, Eps=   2.374100 Eps(inf)=   2.238315
 ------------------------------------------------------------------------------
 ------------------------------------------------------------------------------
 Atomic radii for non-electrostatic terms: SMD-CDS.
 ------------------------------------------------------------------------------
 Nuclear repulsion after PCM non-electrostatic terms =     2005.1060736530 Hartrees.
 One-electron integrals computed using PRISM.
 NBasis=   920 RedAO= T EigKep=  1.68D-06  NBF=   920
 NBsUse=   916 1.00D-06 EigRej=  9.74D-07 NBFU=   916
 ExpMin= 3.17D-02 ExpMax= 2.70D+04 ExpMxC= 9.22D+02 IAcc=3 IRadAn=         5 AccDes= 0.00D+00
 Harris functional with IExCor= 4639 and IRadAn=       5 diagonalized for initial guess.
 HarFok:  IExCor= 4639 AccDes= 0.00D+00 IRadAn=         5 IDoV= 1 UseB2=F ITyADJ=14
 ICtDFT=  3500011 ScaDFX=  1.000000  1.000000  1.000000  1.000000
 FoFCou: FMM=F IPFlag=           0 FMFlag=      100000 FMFlg1=           0
         NFxFlg=           0 DoJE=T BraDBF=F KetDBF=T FulRan=T
         wScrn=  0.000000 ICntrl=     500 IOpCl=  0 I1Cent=   200000004 NGrid=           0
         NMat0=    1 NMatS0=      1 NMatT0=    0 NMatD0=    1 NMtDS0=    0 NMtDT0=    0
 Petite list used in FoFCou.
 Requested convergence on RMS density matrix=1.00D-08 within 128 cycles.
 Requested convergence on MAX density matrix=1.00D-06.
 Requested convergence on             energy=1.00D-06.
 No special actions if energy rises.
 Inv3:  Mode=1 IEnd=    38578188.
 Iteration    1 A*A^-1 deviation from unit magnitude is 7.11D-15 for    429.
 Iteration    1 A*A^-1 deviation from orthogonality  is 2.51D-15 for   2426   1794.
 Iteration    1 A^-1*A deviation from unit magnitude is 8.55D-15 for    442.
 Iteration    1 A^-1*A deviation from orthogonality  is 5.03D-15 for   2469   2426.
 Error on total polarization charges =  0.01541
 SCF Done:  E(RwB97XD) =  -1167.10292224     A.U. after   16 cycles
            NFock= 16  Conv=0.41D-08     -V/T= 2.0045
 SMD-CDS (non-electrostatic) energy       (kcal/mol) =      -7.34
 (included in total energy above)
 DoSCS=F DFT=T ScalE2(SS,OS)=  1.000000  1.000000
 Range of M.O.s used for correlation:     1   916
 NBasis=   920 NAE=    87 NBE=    87 NFC=     0 NFV=     0
 NROrb=    916 NOA=    87 NOB=    87 NVA=   829 NVB=   829

 **** Warning!!: The largest alpha MO coefficient is  0.10880159D+03

 PrsmSu:  requested number of processors reduced to:   6 ShMem   1 Linda.
 Symmetrizing basis deriv contribution to polar:
 IMax=3 JMax=2 DiffMx= 0.00D+00
 G2DrvN: will do    24 centers at a time, making    2 passes.
 Calling FoFCou, ICntrl=  3107 FMM=F I1Cent=   0 AccDes= 0.00D+00.
 Calling FoFCou, ICntrl=  3107 FMM=F I1Cent=   0 AccDes= 0.00D+00.
 NEqPCM:  Using equilibrium solvation (IEInf=0, Eps=   2.3741, EpsInf=   2.2383)
 G2PCM: DoFxE=T DoFxN=T DoGrad=T DoDP/DQ/DG/TGxP=FFFF NFrqRd=   0 IEInf=0 SqF1=F DoCFld=F IF1Alg=4.
 End of G2Drv F.D. properties file   721 does not exist.
 End of G2Drv F.D. properties file   722 does not exist.
 End of G2Drv F.D. properties file   788 does not exist.
          IDoAtm=11111111111111111111111111111111111111111111111
 NEqPCM:  Using equilibrium solvation (IEInf=0, Eps=   2.3741, EpsInf=   2.2383)
          Differentiating once with respect to electric field.
                with respect to dipole field.
          Differentiating once with respect to nuclear coordinates.
          There are   144 degrees of freedom in the 1st order CPHF.  IDoFFX=6 NUNeed=     3.
    144 vectors produced by pass  0 Test12= 7.21D-14 1.00D-09 XBig12= 1.21D+02 4.33D+00.
 AX will form    72 AO Fock derivatives at one time.
    144 vectors produced by pass  1 Test12= 7.21D-14 1.00D-09 XBig12= 1.83D+01 6.92D-01.
    141 vectors produced by pass  2 Test12= 7.21D-14 1.00D-09 XBig12= 5.91D-01 1.57D-01.
    141 vectors produced by pass  3 Test12= 7.21D-14 1.00D-09 XBig12= 8.59D-03 1.56D-02.
    141 vectors produced by pass  4 Test12= 7.21D-14 1.00D-09 XBig12= 8.22D-05 7.67D-04.
    141 vectors produced by pass  5 Test12= 7.21D-14 1.00D-09 XBig12= 6.26D-07 5.41D-05.
    140 vectors produced by pass  6 Test12= 7.21D-14 1.00D-09 XBig12= 4.17D-09 4.38D-06.
    100 vectors produced by pass  7 Test12= 7.21D-14 1.00D-09 XBig12= 2.91D-11 3.15D-07.
     12 vectors produced by pass  8 Test12= 7.21D-14 1.00D-09 XBig12= 1.20D-12 5.73D-08.
     12 vectors produced by pass  9 Test12= 7.21D-14 1.00D-09 XBig12= 7.58D-14 1.64D-08.
     12 vectors produced by pass 10 Test12= 7.21D-14 1.00D-09 XBig12= 1.43D-13 2.04D-08.
     12 vectors produced by pass 11 Test12= 7.21D-14 1.00D-09 XBig12= 3.05D-13 3.13D-08.
     11 vectors produced by pass 12 Test12= 7.21D-14 1.00D-09 XBig12= 9.71D-14 1.53D-08.
     10 vectors produced by pass 13 Test12= 7.21D-14 1.00D-09 XBig12= 8.78D-14 1.52D-08.
     10 vectors produced by pass 14 Test12= 7.21D-14 1.00D-09 XBig12= 8.43D-14 2.00D-08.
      7 vectors produced by pass 15 Test12= 7.21D-14 1.00D-09 XBig12= 8.68D-14 1.64D-08.
      6 vectors produced by pass 16 Test12= 7.21D-14 1.00D-09 XBig12= 3.68D-14 1.03D-08.
      6 vectors produced by pass 17 Test12= 7.21D-14 1.00D-09 XBig12= 4.32D-14 9.22D-09.
      6 vectors produced by pass 18 Test12= 7.21D-14 1.00D-09 XBig12= 5.65D-14 1.23D-08.
      6 vectors produced by pass 19 Test12= 7.21D-14 1.00D-09 XBig12= 3.63D-14 9.00D-09.
      6 vectors produced by pass 20 Test12= 7.21D-14 1.00D-09 XBig12= 5.93D-14 1.49D-08.
      6 vectors produced by pass 21 Test12= 7.21D-14 1.00D-09 XBig12= 5.96D-14 1.32D-08.
      6 vectors produced by pass 22 Test12= 7.21D-14 1.00D-09 XBig12= 5.82D-14 1.45D-08.
      6 vectors produced by pass 23 Test12= 7.21D-14 1.00D-09 XBig12= 7.77D-14 1.30D-08.
      6 vectors produced by pass 24 Test12= 7.21D-14 1.00D-09 XBig12= 5.71D-14 1.21D-08.
      6 vectors produced by pass 25 Test12= 7.21D-14 1.00D-09 XBig12= 7.76D-14 1.28D-08.
      6 vectors produced by pass 26 Test12= 7.21D-14 1.00D-09 XBig12= 9.03D-14 1.46D-08.
      4 vectors produced by pass 27 Test12= 7.21D-14 1.00D-09 XBig12= 2.24D-14 8.01D-09.
      4 vectors produced by pass 28 Test12= 7.21D-14 1.00D-09 XBig12= 3.63D-14 8.87D-09.
      4 vectors produced by pass 29 Test12= 7.21D-14 1.00D-09 XBig12= 4.19D-14 9.83D-09.
      4 vectors produced by pass 30 Test12= 7.21D-14 1.00D-09 XBig12= 6.00D-14 1.35D-08.
      4 vectors produced by pass 31 Test12= 7.21D-14 1.00D-09 XBig12= 2.83D-14 7.58D-09.
      4 vectors produced by pass 32 Test12= 7.21D-14 1.00D-09 XBig12= 4.23D-14 1.18D-08.
      4 vectors produced by pass 33 Test12= 7.21D-14 1.00D-09 XBig12= 4.54D-14 9.53D-09.
      4 vectors produced by pass 34 Test12= 7.21D-14 1.00D-09 XBig12= 6.42D-14 1.23D-08.
      4 vectors produced by pass 35 Test12= 7.21D-14 1.00D-09 XBig12= 3.57D-14 9.74D-09.
      4 vectors produced by pass 36 Test12= 7.21D-14 1.00D-09 XBig12= 5.49D-14 1.21D-08.
      4 vectors produced by pass 37 Test12= 7.21D-14 1.00D-09 XBig12= 1.72D-14 6.47D-09.
      4 vectors produced by pass 38 Test12= 7.21D-14 1.00D-09 XBig12= 3.40D-14 8.00D-09.
      4 vectors produced by pass 39 Test12= 7.21D-14 1.00D-09 XBig12= 3.49D-14 9.54D-09.
      4 vectors produced by pass 40 Test12= 7.21D-14 1.00D-09 XBig12= 4.05D-14 9.21D-09.
      4 vectors produced by pass 41 Test12= 7.21D-14 1.00D-09 XBig12= 3.45D-14 9.54D-09.
      4 vectors produced by pass 42 Test12= 7.21D-14 1.00D-09 XBig12= 4.49D-14 1.01D-08.
      4 vectors produced by pass 43 Test12= 7.21D-14 1.00D-09 XBig12= 4.74D-14 1.22D-08.
      4 vectors produced by pass 44 Test12= 7.21D-14 1.00D-09 XBig12= 2.96D-14 1.00D-08.
      4 vectors produced by pass 45 Test12= 7.21D-14 1.00D-09 XBig12= 1.85D-14 6.48D-09.
      4 vectors produced by pass 46 Test12= 7.21D-14 1.00D-09 XBig12= 1.62D-14 5.80D-09.
      4 vectors produced by pass 47 Test12= 7.21D-14 1.00D-09 XBig12= 2.14D-14 6.62D-09.
      4 vectors produced by pass 48 Test12= 7.21D-14 1.00D-09 XBig12= 4.03D-14 9.20D-09.
      4 vectors produced by pass 49 Test12= 7.21D-14 1.00D-09 XBig12= 2.47D-14 7.88D-09.
      4 vectors produced by pass 50 Test12= 7.21D-14 1.00D-09 XBig12= 1.86D-14 6.85D-09.
      4 vectors produced by pass 51 Test12= 7.21D-14 1.00D-09 XBig12= 3.05D-14 1.02D-08.
      4 vectors produced by pass 52 Test12= 7.21D-14 1.00D-09 XBig12= 2.25D-14 7.60D-09.
      4 vectors produced by pass 53 Test12= 7.21D-14 1.00D-09 XBig12= 3.56D-14 8.62D-09.
      4 vectors produced by pass 54 Test12= 7.21D-14 1.00D-09 XBig12= 3.60D-14 9.26D-09.
      4 vectors produced by pass 55 Test12= 7.21D-14 1.00D-09 XBig12= 3.00D-14 7.32D-09.
      4 vectors produced by pass 56 Test12= 7.21D-14 1.00D-09 XBig12= 3.06D-14 7.77D-09.
      4 vectors produced by pass 57 Test12= 7.21D-14 1.00D-09 XBig12= 3.16D-14 7.57D-09.
      4 vectors produced by pass 58 Test12= 7.21D-14 1.00D-09 XBig12= 2.70D-14 7.70D-09.
      4 vectors produced by pass 59 Test12= 7.21D-14 1.00D-09 XBig12= 3.21D-14 9.77D-09.
      4 vectors produced by pass 60 Test12= 7.21D-14 1.00D-09 XBig12= 1.19D-14 5.96D-09.
      4 vectors produced by pass 61 Test12= 7.21D-14 1.00D-09 XBig12= 2.87D-14 9.24D-09.
      4 vectors produced by pass 62 Test12= 7.21D-14 1.00D-09 XBig12= 1.90D-14 6.79D-09.
      4 vectors produced by pass 63 Test12= 7.21D-14 1.00D-09 XBig12= 2.85D-14 9.23D-09.
      4 vectors produced by pass 64 Test12= 7.21D-14 1.00D-09 XBig12= 1.29D-14 5.07D-09.
      4 vectors produced by pass 65 Test12= 7.21D-14 1.00D-09 XBig12= 2.25D-14 7.12D-09.
      4 vectors produced by pass 66 Test12= 7.21D-14 1.00D-09 XBig12= 2.87D-14 6.98D-09.
      4 vectors produced by pass 67 Test12= 7.21D-14 1.00D-09 XBig12= 2.52D-14 7.31D-09.
      4 vectors produced by pass 68 Test12= 7.21D-14 1.00D-09 XBig12= 2.81D-14 7.91D-09.
      4 vectors produced by pass 69 Test12= 7.21D-14 1.00D-09 XBig12= 1.34D-14 5.42D-09.
      4 vectors produced by pass 70 Test12= 7.21D-14 1.00D-09 XBig12= 3.07D-14 7.30D-09.
      4 vectors produced by pass 71 Test12= 7.21D-14 1.00D-09 XBig12= 1.11D-14 3.97D-09.
      4 vectors produced by pass 72 Test12= 7.21D-14 1.00D-09 XBig12= 8.30D-15 3.68D-09.
      4 vectors produced by pass 73 Test12= 7.21D-14 1.00D-09 XBig12= 2.57D-14 6.35D-09.
      4 vectors produced by pass 74 Test12= 7.21D-14 1.00D-09 XBig12= 2.63D-14 6.51D-09.
      4 vectors produced by pass 75 Test12= 7.21D-14 1.00D-09 XBig12= 2.42D-14 7.09D-09.
      4 vectors produced by pass 76 Test12= 7.21D-14 1.00D-09 XBig12= 1.99D-14 5.61D-09.
      4 vectors produced by pass 77 Test12= 7.21D-14 1.00D-09 XBig12= 2.16D-14 7.01D-09.
      4 vectors produced by pass 78 Test12= 7.21D-14 1.00D-09 XBig12= 1.63D-14 5.52D-09.
      4 vectors produced by pass 79 Test12= 7.21D-14 1.00D-09 XBig12= 1.51D-14 5.77D-09.
      4 vectors produced by pass 80 Test12= 7.21D-14 1.00D-09 XBig12= 1.84D-14 5.61D-09.
      4 vectors produced by pass 81 Test12= 7.21D-14 1.00D-09 XBig12= 2.24D-14 7.02D-09.
      4 vectors produced by pass 82 Test12= 7.21D-14 1.00D-09 XBig12= 2.35D-14 8.57D-09.
      4 vectors produced by pass 83 Test12= 7.21D-14 1.00D-09 XBig12= 3.30D-14 7.48D-09.
      4 vectors produced by pass 84 Test12= 7.21D-14 1.00D-09 XBig12= 2.26D-14 7.11D-09.
      4 vectors produced by pass 85 Test12= 7.21D-14 1.00D-09 XBig12= 2.28D-14 6.57D-09.
      4 vectors produced by pass 86 Test12= 7.21D-14 1.00D-09 XBig12= 2.88D-14 7.13D-09.
      4 vectors produced by pass 87 Test12= 7.21D-14 1.00D-09 XBig12= 2.01D-14 6.26D-09.
      4 vectors produced by pass 88 Test12= 7.21D-14 1.00D-09 XBig12= 3.08D-14 8.59D-09.
      4 vectors produced by pass 89 Test12= 7.21D-14 1.00D-09 XBig12= 3.42D-14 7.90D-09.
      4 vectors produced by pass 90 Test12= 7.21D-14 1.00D-09 XBig12= 1.30D-14 4.67D-09.
      4 vectors produced by pass 91 Test12= 7.21D-14 1.00D-09 XBig12= 1.35D-14 4.63D-09.
      4 vectors produced by pass 92 Test12= 7.21D-14 1.00D-09 XBig12= 1.47D-14 6.27D-09.
      4 vectors produced by pass 93 Test12= 7.21D-14 1.00D-09 XBig12= 2.03D-14 5.76D-09.
      4 vectors produced by pass 94 Test12= 7.21D-14 1.00D-09 XBig12= 2.19D-14 6.23D-09.
      4 vectors produced by pass 95 Test12= 7.21D-14 1.00D-09 XBig12= 2.40D-14 6.21D-09.
      4 vectors produced by pass 96 Test12= 7.21D-14 1.00D-09 XBig12= 2.17D-14 5.95D-09.
      4 vectors produced by pass 97 Test12= 7.21D-14 1.00D-09 XBig12= 8.51D-15 3.90D-09.
      4 vectors produced by pass 98 Test12= 7.21D-14 1.00D-09 XBig12= 1.69D-14 5.16D-09.
      4 vectors produced by pass 99 Test12= 7.21D-14 1.00D-09 XBig12= 1.62D-14 5.34D-09.
      4 vectors produced by pass100 Test12= 7.21D-14 1.00D-09 XBig12= 2.26D-14 7.46D-09.
      4 vectors produced by pass101 Test12= 7.21D-14 1.00D-09 XBig12= 1.27D-14 5.15D-09.
      4 vectors produced by pass102 Test12= 7.21D-14 1.00D-09 XBig12= 2.03D-14 7.05D-09.
      4 vectors produced by pass103 Test12= 7.21D-14 1.00D-09 XBig12= 1.75D-14 5.50D-09.
      4 vectors produced by pass104 Test12= 7.21D-14 1.00D-09 XBig12= 1.23D-14 4.34D-09.
      4 vectors produced by pass105 Test12= 7.21D-14 1.00D-09 XBig12= 2.22D-14 5.98D-09.
      4 vectors produced by pass106 Test12= 7.21D-14 1.00D-09 XBig12= 2.49D-14 7.33D-09.
      4 vectors produced by pass107 Test12= 7.21D-14 1.00D-09 XBig12= 2.63D-14 6.88D-09.
      4 vectors produced by pass108 Test12= 7.21D-14 1.00D-09 XBig12= 9.46D-15 4.00D-09.
      4 vectors produced by pass109 Test12= 7.21D-14 1.00D-09 XBig12= 2.38D-14 5.48D-09.
      4 vectors produced by pass110 Test12= 7.21D-14 1.00D-09 XBig12= 1.68D-14 4.78D-09.
      4 vectors produced by pass111 Test12= 7.21D-14 1.00D-09 XBig12= 1.25D-14 4.37D-09.
      4 vectors produced by pass112 Test12= 7.21D-14 1.00D-09 XBig12= 1.29D-14 4.15D-09.
      4 vectors produced by pass113 Test12= 7.21D-14 1.00D-09 XBig12= 2.26D-14 5.95D-09.
      4 vectors produced by pass114 Test12= 7.21D-14 1.00D-09 XBig12= 1.81D-14 5.54D-09.
      4 vectors produced by pass115 Test12= 7.21D-14 1.00D-09 XBig12= 2.01D-14 5.51D-09.
      4 vectors produced by pass116 Test12= 7.21D-14 1.00D-09 XBig12= 1.56D-14 4.30D-09.
      4 vectors produced by pass117 Test12= 7.21D-14 1.00D-09 XBig12= 2.69D-14 7.49D-09.
      4 vectors produced by pass118 Test12= 7.21D-14 1.00D-09 XBig12= 2.66D-14 6.63D-09.
      3 vectors produced by pass119 Test12= 7.21D-14 1.00D-09 XBig12= 9.72D-15 3.95D-09.
      2 vectors produced by pass120 Test12= 7.21D-14 1.00D-09 XBig12= 3.64D-15 2.67D-09.
 InvSVY:  IOpt=1 It=  1 EMax= 7.11D-15
 Solved reduced A of dimension  1617 with   144 vectors.
 Isotropic polarizability for W=    0.000000      253.14 Bohr**3.
 End of Minotr F.D. properties file   721 does not exist.
 End of Minotr F.D. properties file   722 does not exist.
 End of Minotr F.D. properties file   788 does not exist.

 **********************************************************************

            Population analysis using the SCF density.

 **********************************************************************

 Orbital symmetries:
       Occupied  (A) (A) (A) (A) (A) (A) (A) (A) (A) (A) (A) (A)
                 (A) (A) (A) (A) (A) (A) (A) (A) (A) (A) (A) (A)
                 (A) (A) (A) (A) (A) (A) (A) (A) (A) (A) (A) (A)
                 (A) (A) (A) (A) (A) (A) (A) (A) (A) (A) (A) (A)
                 (A) (A) (A) (A) (A) (A) (A) (A) (A) (A) (A) (A)
                 (A) (A) (A) (A) (A) (A) (A) (A) (A) (A) (A) (A)
                 (A) (A) (A) (A) (A) (A) (A) (A) (A) (A) (A) (A)
                 (A) (A) (A)
       Virtual   (A) (A) (A) (A) (A) (A) (A) (A) (A) (A) (A) (A)
                 (A) (A) (A) (A) (A) (A) (A) (A) (A) (A) (A) (A)
                 (A) (A) (A) (A) (A) (A) (A) (A) (A) (A) (A) (A)
                 (A) (A) (A) (A) (A) (A) (A) (A) (A) (A) (A) (A)
                 (A) (A) (A) (A) (A) (A) (A) (A) (A) (A) (A) (A)
                 (A) (A) (A) (A) (A) (A) (A) (A) (A) (A) (A) (A)
                 (A) (A) (A) (A) (A) (A) (A) (A) (A) (A) (A) (A)
                 (A) (A) (A) (A) (A) (A) (A) (A) (A) (A) (A) (A)
                 (A) (A) (A) (A) (A) (A) (A) (A) (A) (A) (A) (A)
                 (A) (A) (A) (A) (A) (A) (A) (A) (A) (A) (A) (A)
                 (A) (A) (A) (A) (A) (A) (A) (A) (A) (A) (A) (A)
                 (A) (A) (A) (A) (A) (A) (A) (A) (A) (A) (A) (A)
                 (A) (A) (A) (A) (A) (A) (A) (A) (A) (A) (A) (A)
                 (A) (A) (A) (A) (A) (A) (A) (A) (A) (A) (A) (A)
                 (A) (A) (A) (A) (A) (A) (A) (A) (A) (A) (A) (A)
                 (A) (A) (A) (A) (A) (A) (A) (A) (A) (A) (A) (A)
                 (A) (A) (A) (A) (A) (A) (A) (A) (A) (A) (A) (A)
                 (A) (A) (A) (A) (A) (A) (A) (A) (A) (A) (A) (A)
                 (A) (A) (A) (A) (A) (A) (A) (A) (A) (A) (A) (A)
                 (A) (A) (A) (A) (A) (A) (A) (A) (A) (A) (A) (A)
                 (A) (A) (A) (A) (A) (A) (A) (A) (A) (A) (A) (A)
                 (A) (A) (A) (A) (A) (A) (A) (A) (A) (A) (A) (A)
                 (A) (A) (A) (A) (A) (A) (A) (A) (A) (A) (A) (A)
                 (A) (A) (A) (A) (A) (A) (A) (A) (A) (A) (A) (A)
                 (A) (A) (A) (A) (A) (A) (A) (A) (A) (A) (A) (A)
                 (A) (A) (A) (A) (A) (A) (A) (A) (A) (A) (A) (A)
                 (A) (A) (A) (A) (A) (A) (A) (A) (A) (A) (A) (A)
                 (A) (A) (A) (A) (A) (A) (A) (A) (A) (A) (A) (A)
                 (A) (A) (A) (A) (A) (A) (A) (A) (A) (A) (A) (A)
                 (A) (A) (A) (A) (A) (A) (A) (A) (A) (A) (A) (A)
                 (A) (A) (A) (A) (A) (A) (A) (A) (A) (A) (A) (A)
                 (A) (A) (A) (A) (A) (A) (A) (A) (A) (A) (A) (A)
                 (A) (A) (A) (A) (A) (A) (A) (A) (A) (A) (A) (A)
                 (A) (A) (A) (A) (A) (A) (A) (A) (A) (A) (A) (A)
                 (A) (A) (A) (A) (A) (A) (A) (A) (A) (A) (A) (A)
                 (A) (A) (A) (A) (A) (A) (A) (A) (A) (A) (A) (A)
                 (A) (A) (A) (A) (A) (A) (A) (A) (A) (A) (A) (A)
                 (A) (A) (A) (A) (A) (A) (A) (A) (A) (A) (A) (A)
                 (A) (A) (A) (A) (A) (A) (A) (A) (A) (A) (A) (A)
                 (A) (A) (A) (A) (A) (A) (A) (A) (A) (A) (A) (A)
                 (A) (A) (A) (A) (A) (A) (A) (A) (A) (A) (A) (A)
                 (A) (A) (A) (A) (A) (A) (A) (A) (A) (A) (A) (A)
                 (A) (A) (A) (A) (A) (A) (A) (A) (A) (A) (A) (A)
                 (A) (A) (A) (A) (A) (A) (A) (A) (A) (A) (A) (A)
                 (A) (A) (A) (A) (A) (A) (A) (A) (A) (A) (A) (A)
                 (A) (A) (A) (A) (A) (A) (A) (A) (A) (A) (A) (A)
                 (A) (A) (A) (A) (A) (A) (A) (A) (A) (A) (A) (A)
                 (A) (A) (A) (A) (A) (A) (A) (A) (A) (A) (A) (A)
                 (A) (A) (A) (A) (A) (A) (A) (A) (A) (A) (A) (A)
                 (A) (A) (A) (A) (A) (A) (A) (A) (A) (A) (A) (A)
                 (A) (A) (A) (A) (A) (A) (A) (A) (A) (A) (A) (A)
                 (A) (A) (A) (A) (A) (A) (A) (A) (A) (A) (A) (A)
                 (A) (A) (A) (A) (A) (A) (A) (A) (A) (A) (A) (A)
                 (A) (A) (A) (A) (A) (A) (A) (A) (A) (A) (A) (A)
                 (A) (A) (A) (A) (A) (A) (A) (A) (A) (A) (A) (A)
                 (A) (A) (A) (A) (A) (A) (A) (A) (A) (A) (A) (A)
                 (A) (A) (A) (A) (A) (A) (A) (A) (A) (A) (A) (A)
                 (A) (A) (A) (A) (A) (A) (A) (A) (A) (A) (A) (A)
                 (A) (A) (A) (A) (A) (A) (A) (A) (A) (A) (A) (A)
                 (A) (A) (A) (A) (A) (A) (A) (A) (A) (A) (A) (A)
                 (A) (A) (A) (A) (A) (A) (A) (A) (A) (A) (A) (A)
                 (A) (A) (A) (A) (A) (A) (A) (A) (A) (A) (A) (A)
                 (A) (A) (A) (A) (A) (A) (A) (A) (A) (A) (A) (A)
                 (A) (A) (A) (A) (A) (A) (A) (A) (A) (A) (A) (A)
                 (A) (A) (A) (A) (A) (A) (A) (A) (A) (A) (A) (A)
                 (A) (A) (A) (A) (A) (A) (A) (A) (A) (A) (A) (A)
                 (A) (A) (A) (A) (A) (A) (A) (A) (A) (A) (A) (A)
                 (A) (A) (A) (A) (A) (A) (A) (A) (A) (A) (A) (A)
                 (A) (A) (A) (A) (A) (A) (A) (A) (A) (A) (A) (A)
                 (A)
 The electronic state is 1-A.
 Alpha  occ. eigenvalues --  -19.31460 -19.25568 -19.25488 -19.25368 -19.24053
 Alpha  occ. eigenvalues --  -19.23582 -19.22966 -19.22906 -14.48994 -10.43983
 Alpha  occ. eigenvalues --  -10.41654 -10.41521 -10.35869 -10.32250 -10.32181
 Alpha  occ. eigenvalues --  -10.31966 -10.31196 -10.30877 -10.29934 -10.29725
 Alpha  occ. eigenvalues --  -10.29253 -10.27698  -1.23466  -1.18940  -1.16858
 Alpha  occ. eigenvalues --   -1.14461  -1.10275  -1.09766  -1.09188  -1.09151
 Alpha  occ. eigenvalues --   -1.07362  -0.95219  -0.92129  -0.89808  -0.86206
 Alpha  occ. eigenvalues --   -0.83975  -0.81076  -0.78280  -0.76412  -0.72039
 Alpha  occ. eigenvalues --   -0.70906  -0.68264  -0.65106  -0.63069  -0.62623
 Alpha  occ. eigenvalues --   -0.61810  -0.61168  -0.60957  -0.60665  -0.59974
 Alpha  occ. eigenvalues --   -0.59300  -0.59061  -0.58614  -0.56614  -0.56015
 Alpha  occ. eigenvalues --   -0.54887  -0.53858  -0.53553  -0.52328  -0.52061
 Alpha  occ. eigenvalues --   -0.51701  -0.50539  -0.50096  -0.49506  -0.49016
 Alpha  occ. eigenvalues --   -0.48627  -0.48346  -0.47854  -0.46927  -0.46659
 Alpha  occ. eigenvalues --   -0.46141  -0.45837  -0.45283  -0.44697  -0.44025
 Alpha  occ. eigenvalues --   -0.43748  -0.40491  -0.39704  -0.39228  -0.39187
 Alpha  occ. eigenvalues --   -0.38814  -0.38526  -0.38423  -0.37007  -0.36590
 Alpha  occ. eigenvalues --   -0.32741  -0.31344
 Alpha virt. eigenvalues --   -0.01662   0.01668   0.04251   0.05034   0.05077
 Alpha virt. eigenvalues --    0.05788   0.05856   0.06712   0.06879   0.07151
 Alpha virt. eigenvalues --    0.07474   0.08048   0.08616   0.09103   0.09281
 Alpha virt. eigenvalues --    0.09494   0.09743   0.10149   0.10476   0.10937
 Alpha virt. eigenvalues --    0.11252   0.11602   0.11761   0.12037   0.12372
 Alpha virt. eigenvalues --    0.12672   0.13087   0.13448   0.13696   0.14042
 Alpha virt. eigenvalues --    0.14505   0.14631   0.15135   0.15337   0.15401
 Alpha virt. eigenvalues --    0.15722   0.16050   0.16125   0.16522   0.16840
 Alpha virt. eigenvalues --    0.17094   0.17405   0.17614   0.18108   0.18442
 Alpha virt. eigenvalues --    0.18465   0.18680   0.18933   0.19302   0.19516
 Alpha virt. eigenvalues --    0.19636   0.19967   0.20313   0.20494   0.20963
 Alpha virt. eigenvalues --    0.21145   0.21522   0.21887   0.22067   0.22542
 Alpha virt. eigenvalues --    0.22667   0.22756   0.23065   0.23249   0.23500
 Alpha virt. eigenvalues --    0.23632   0.23789   0.24162   0.24244   0.24634
 Alpha virt. eigenvalues --    0.24894   0.25230   0.25424   0.25562   0.25640
 Alpha virt. eigenvalues --    0.25944   0.26214   0.26467   0.26834   0.26950
 Alpha virt. eigenvalues --    0.27225   0.27677   0.28065   0.28274   0.28587
 Alpha virt. eigenvalues --    0.28834   0.29466   0.29567   0.29790   0.30356
 Alpha virt. eigenvalues --    0.30668   0.30907   0.31115   0.31671   0.31726
 Alpha virt. eigenvalues --    0.32319   0.32622   0.32765   0.32982   0.33365
 Alpha virt. eigenvalues --    0.33838   0.34125   0.34305   0.34610   0.34669
 Alpha virt. eigenvalues --    0.35058   0.35671   0.36025   0.36450   0.36695
 Alpha virt. eigenvalues --    0.37022   0.37275   0.37404   0.38028   0.38569
 Alpha virt. eigenvalues --    0.38939   0.39275   0.39555   0.39796   0.40537
 Alpha virt. eigenvalues --    0.40816   0.41201   0.41646   0.41940   0.42438
 Alpha virt. eigenvalues --    0.43060   0.43186   0.43838   0.44458   0.45071
 Alpha virt. eigenvalues --    0.45269   0.45483   0.45869   0.46363   0.47024
 Alpha virt. eigenvalues --    0.47537   0.47799   0.48195   0.48822   0.49734
 Alpha virt. eigenvalues --    0.49896   0.50282   0.50863   0.51674   0.51948
 Alpha virt. eigenvalues --    0.52206   0.52796   0.53288   0.53647   0.54529
 Alpha virt. eigenvalues --    0.54888   0.55286   0.55840   0.56145   0.56337
 Alpha virt. eigenvalues --    0.57146   0.57309   0.57866   0.58011   0.58543
 Alpha virt. eigenvalues --    0.58846   0.58978   0.59457   0.59876   0.60106
 Alpha virt. eigenvalues --    0.60705   0.60854   0.61159   0.61869   0.62008
 Alpha virt. eigenvalues --    0.62434   0.62621   0.63260   0.63585   0.63821
 Alpha virt. eigenvalues --    0.64681   0.64814   0.64980   0.65460   0.65749
 Alpha virt. eigenvalues --    0.66334   0.66635   0.66860   0.67028   0.67571
 Alpha virt. eigenvalues --    0.67899   0.68517   0.68901   0.69430   0.69642
 Alpha virt. eigenvalues --    0.70511   0.70949   0.71500   0.71667   0.71842
 Alpha virt. eigenvalues --    0.72569   0.72769   0.72883   0.73374   0.74208
 Alpha virt. eigenvalues --    0.74433   0.74646   0.75072   0.75656   0.75968
 Alpha virt. eigenvalues --    0.76130   0.77049   0.78200   0.78603   0.79081
 Alpha virt. eigenvalues --    0.79243   0.80035   0.80492   0.80705   0.81168
 Alpha virt. eigenvalues --    0.82105   0.82167   0.82465   0.82697   0.83687
 Alpha virt. eigenvalues --    0.84301   0.84733   0.85675   0.85928   0.86365
 Alpha virt. eigenvalues --    0.86947   0.87102   0.88184   0.89013   0.89853
 Alpha virt. eigenvalues --    0.90682   0.91036   0.92293   0.92396   0.93241
 Alpha virt. eigenvalues --    0.95034   0.95251   0.96072   0.97167   0.97972
 Alpha virt. eigenvalues --    0.98180   0.99402   1.00170   1.00287   1.00578
 Alpha virt. eigenvalues --    1.01206   1.01462   1.02881   1.03860   1.04451
 Alpha virt. eigenvalues --    1.05157   1.06523   1.07034   1.07418   1.08102
 Alpha virt. eigenvalues --    1.08900   1.10733   1.10901   1.11654   1.11829
 Alpha virt. eigenvalues --    1.12608   1.13082   1.13637   1.13919   1.14343
 Alpha virt. eigenvalues --    1.15610   1.16497   1.17378   1.18284   1.19091
 Alpha virt. eigenvalues --    1.19875   1.20366   1.20934   1.21832   1.22537
 Alpha virt. eigenvalues --    1.23242   1.23442   1.24894   1.25364   1.26717
 Alpha virt. eigenvalues --    1.27040   1.28064   1.28591   1.29483   1.29664
 Alpha virt. eigenvalues --    1.31270   1.31826   1.32277   1.32875   1.33914
 Alpha virt. eigenvalues --    1.34587   1.34910   1.36082   1.36483   1.36559
 Alpha virt. eigenvalues --    1.36980   1.38653   1.39728   1.39986   1.40309
 Alpha virt. eigenvalues --    1.41428   1.42171   1.42849   1.43020   1.43265
 Alpha virt. eigenvalues --    1.44095   1.44918   1.46362   1.46563   1.47241
 Alpha virt. eigenvalues --    1.47658   1.49615   1.50611   1.51653   1.52664
 Alpha virt. eigenvalues --    1.53682   1.54437   1.56287   1.57120   1.59332
 Alpha virt. eigenvalues --    1.59957   1.61418   1.61816   1.62528   1.62763
 Alpha virt. eigenvalues --    1.63358   1.64192   1.64362   1.65830   1.66342
 Alpha virt. eigenvalues --    1.67155   1.67607   1.68009   1.68376   1.69023
 Alpha virt. eigenvalues --    1.69435   1.70473   1.70958   1.71455   1.72108
 Alpha virt. eigenvalues --    1.72814   1.73571   1.74540   1.75072   1.75252
 Alpha virt. eigenvalues --    1.75864   1.76785   1.77486   1.78498   1.79525
 Alpha virt. eigenvalues --    1.79974   1.80361   1.80818   1.81389   1.82252
 Alpha virt. eigenvalues --    1.83429   1.83698   1.84158   1.84644   1.85444
 Alpha virt. eigenvalues --    1.86813   1.87742   1.88312   1.89279   1.90535
 Alpha virt. eigenvalues --    1.90850   1.91162   1.91572   1.92272   1.92737
 Alpha virt. eigenvalues --    1.93875   1.94317   1.95256   1.96711   1.96865
 Alpha virt. eigenvalues --    1.97560   1.98862   1.99583   1.99864   2.00477
 Alpha virt. eigenvalues --    2.00852   2.01924   2.03003   2.03273   2.04278
 Alpha virt. eigenvalues --    2.05916   2.06430   2.07946   2.08350   2.09823
 Alpha virt. eigenvalues --    2.10745   2.11257   2.12210   2.13174   2.13503
 Alpha virt. eigenvalues --    2.14329   2.15542   2.16031   2.17007   2.17904
 Alpha virt. eigenvalues --    2.19331   2.19488   2.20016   2.20324   2.20651
 Alpha virt. eigenvalues --    2.21368   2.21729   2.22527   2.22969   2.23475
 Alpha virt. eigenvalues --    2.25218   2.25580   2.26236   2.26511   2.27792
 Alpha virt. eigenvalues --    2.28465   2.29317   2.30083   2.31460   2.32350
 Alpha virt. eigenvalues --    2.33124   2.34666   2.35984   2.37173   2.37774
 Alpha virt. eigenvalues --    2.38238   2.39595   2.40065   2.40410   2.41968
 Alpha virt. eigenvalues --    2.42732   2.42865   2.43479   2.44389   2.44830
 Alpha virt. eigenvalues --    2.45414   2.45827   2.46213   2.46660   2.47529
 Alpha virt. eigenvalues --    2.49222   2.49586   2.50151   2.50775   2.52315
 Alpha virt. eigenvalues --    2.52435   2.53236   2.53606   2.54292   2.54750
 Alpha virt. eigenvalues --    2.55934   2.56080   2.57222   2.57811   2.58003
 Alpha virt. eigenvalues --    2.58443   2.59157   2.59251   2.60108   2.60314
 Alpha virt. eigenvalues --    2.61162   2.61631   2.62125   2.62973   2.63199
 Alpha virt. eigenvalues --    2.63835   2.64983   2.65938   2.66317   2.67021
 Alpha virt. eigenvalues --    2.67384   2.68198   2.68916   2.70351   2.70972
 Alpha virt. eigenvalues --    2.72774   2.73134   2.73875   2.74541   2.75747
 Alpha virt. eigenvalues --    2.76419   2.76622   2.77286   2.78037   2.78713
 Alpha virt. eigenvalues --    2.80033   2.80564   2.81224   2.81798   2.82033
 Alpha virt. eigenvalues --    2.82681   2.84327   2.84580   2.84901   2.85596
 Alpha virt. eigenvalues --    2.86084   2.86398   2.87566   2.87936   2.88767
 Alpha virt. eigenvalues --    2.88990   2.90229   2.90357   2.91011   2.91152
 Alpha virt. eigenvalues --    2.91681   2.93155   2.93886   2.94201   2.94728
 Alpha virt. eigenvalues --    2.95689   2.96250   2.97538   2.98028   2.98630
 Alpha virt. eigenvalues --    2.99734   3.01144   3.01443   3.02441   3.03695
 Alpha virt. eigenvalues --    3.03938   3.05021   3.05598   3.06486   3.07519
 Alpha virt. eigenvalues --    3.09227   3.09717   3.10598   3.11998   3.12581
 Alpha virt. eigenvalues --    3.13112   3.14732   3.15265   3.15307   3.15808
 Alpha virt. eigenvalues --    3.17213   3.18062   3.18165   3.18937   3.19391
 Alpha virt. eigenvalues --    3.20199   3.21091   3.21267   3.21374   3.22756
 Alpha virt. eigenvalues --    3.23549   3.23813   3.24378   3.24419   3.25909
 Alpha virt. eigenvalues --    3.26630   3.27240   3.27636   3.28544   3.28982
 Alpha virt. eigenvalues --    3.30105   3.30145   3.31219   3.31696   3.33107
 Alpha virt. eigenvalues --    3.33825   3.35136   3.35356   3.35656   3.36765
 Alpha virt. eigenvalues --    3.37943   3.38289   3.38587   3.40511   3.40905
 Alpha virt. eigenvalues --    3.41680   3.41938   3.43018   3.43233   3.45008
 Alpha virt. eigenvalues --    3.45730   3.46126   3.46703   3.47597   3.48028
 Alpha virt. eigenvalues --    3.49091   3.49544   3.51276   3.52184   3.52418
 Alpha virt. eigenvalues --    3.52712   3.53753   3.54376   3.54855   3.56271
 Alpha virt. eigenvalues --    3.57244   3.57493   3.58268   3.59724   3.61439
 Alpha virt. eigenvalues --    3.61620   3.63212   3.63312   3.63516   3.64326
 Alpha virt. eigenvalues --    3.66062   3.67318   3.68327   3.69914   3.70511
 Alpha virt. eigenvalues --    3.71892   3.72675   3.73532   3.74693   3.75582
 Alpha virt. eigenvalues --    3.76407   3.77889   3.78679   3.78917   3.80199
 Alpha virt. eigenvalues --    3.82285   3.82885   3.84427   3.85445   3.85965
 Alpha virt. eigenvalues --    3.86509   3.86907   3.88200   3.88790   3.89689
 Alpha virt. eigenvalues --    3.90697   3.91794   3.92659   3.95160   3.97824
 Alpha virt. eigenvalues --    3.99248   3.99529   4.00295   4.01316   4.02993
 Alpha virt. eigenvalues --    4.06556   4.08362   4.08685   4.08985   4.09599
 Alpha virt. eigenvalues --    4.09941   4.10102   4.12615   4.13546   4.13849
 Alpha virt. eigenvalues --    4.15061   4.16434   4.18616   4.21243   4.22528
 Alpha virt. eigenvalues --    4.25226   4.26823   4.27850   4.29008   4.29648
 Alpha virt. eigenvalues --    4.30922   4.33029   4.34299   4.35648   4.38405
 Alpha virt. eigenvalues --    4.38684   4.44088   4.44252   4.46097   4.47454
 Alpha virt. eigenvalues --    4.49021   4.50279   4.51948   4.53089   4.53601
 Alpha virt. eigenvalues --    4.55647   4.56822   4.57997   4.60984   4.63894
 Alpha virt. eigenvalues --    4.65417   4.66960   4.68101   4.69339   4.71062
 Alpha virt. eigenvalues --    4.73370   4.75083   4.75715   4.80345   4.84528
 Alpha virt. eigenvalues --    4.86006   4.88069   4.88752   4.90667   4.92538
 Alpha virt. eigenvalues --    4.97012   4.99163   5.00811   5.05469   5.07615
 Alpha virt. eigenvalues --    5.11014   5.12583   5.13111   5.19676   5.20139
 Alpha virt. eigenvalues --    5.20694   5.20906   5.21098   5.21734   5.22985
 Alpha virt. eigenvalues --    5.24756   5.25672   5.25987   5.27133   5.27591
 Alpha virt. eigenvalues --    5.30413   5.30913   5.31330   5.32056   5.32409
 Alpha virt. eigenvalues --    5.34946   5.35733   5.36927   5.37879   5.42301
 Alpha virt. eigenvalues --    5.45023   5.48487   5.49267   5.49520   5.50243
 Alpha virt. eigenvalues --    5.50809   5.52466   5.52588   5.53289   5.54000
 Alpha virt. eigenvalues --    5.56593   5.57485   5.58895   5.59382   5.59800
 Alpha virt. eigenvalues --    5.60097   5.67614   5.68855   5.72159   5.73267
 Alpha virt. eigenvalues --    5.78674   5.84292   5.88399   5.93839   5.98423
 Alpha virt. eigenvalues --    5.99539   6.02776   6.11597   6.12966   6.14882
 Alpha virt. eigenvalues --    6.15034   6.16946   6.17599   6.26545   6.26937
 Alpha virt. eigenvalues --    6.29423   6.33946   6.35467   6.35589   6.35780
 Alpha virt. eigenvalues --    6.36482   6.41534   6.42088   6.42904   6.43761
 Alpha virt. eigenvalues --    6.46297   6.49382   6.49640   6.50442   6.51363
 Alpha virt. eigenvalues --    6.52699   6.53558   6.54293   6.54473   6.54978
 Alpha virt. eigenvalues --    6.56795   6.57150   6.57951   6.59751   6.66836
 Alpha virt. eigenvalues --    6.70965   6.72567   6.75226   6.84889   6.92103
 Alpha virt. eigenvalues --    6.92843   6.94811   6.95836   6.98636   7.00029
 Alpha virt. eigenvalues --    7.01362   7.06598   7.07147   7.07812   7.09738
 Alpha virt. eigenvalues --    7.15840   7.16311   7.17840   7.19398   7.21003
 Alpha virt. eigenvalues --    7.23491   7.24203   7.25904   7.28696   7.31335
 Alpha virt. eigenvalues --    7.35892   7.54956  22.51318  22.53308  22.61744
 Alpha virt. eigenvalues --   22.65742  22.67372  22.72148  22.86143  22.90414
 Alpha virt. eigenvalues --   23.04993  23.11193  23.38255  23.53210  23.81214
 Alpha virt. eigenvalues --   33.04921  43.73899  43.74882  43.77647  43.78951
 Alpha virt. eigenvalues --   44.14096  44.25147  44.39618  44.45203
          Condensed to atoms (all electrons):
               1          2          3          4          5          6
     1  C   11.485181  -3.789227  -3.969850  -0.900171  -0.078886   0.061994
     2  C   -3.789227  11.411358   2.358419  -1.181718   0.474070  -0.246693
     3  C   -3.969850   2.358419  10.754575   0.010627  -0.017160   0.350596
     4  C   -0.900171  -1.181718   0.010627   7.785333  -0.009049   0.085245
     5  H   -0.078886   0.474070  -0.017160  -0.009049   0.408326  -0.009002
     6  H    0.061994  -0.246693   0.350596   0.085245  -0.009002   0.572099
     7  C   -0.108694  -0.249174  -0.108640  -0.249569  -0.001233  -0.001429
     8  H   -0.048042   0.001755  -0.000339  -0.039227   0.000034   0.000011
     9  H    0.032305   0.033720   0.002947   0.002903  -0.000023   0.000002
    10  H    0.021239  -0.015734  -0.006383   0.030252  -0.000006  -0.000034
    11  N    0.710495  -1.052784  -0.850902  -0.059125   0.003741   0.036245
    12  O    0.099738  -0.017036  -0.234712   0.536713   0.000177  -0.013191
    13  O    0.651379  -0.433169  -0.139382   0.051493  -0.008382   0.001295
    14  C    0.904142   0.239203  -1.170091  -0.900559   0.001329  -0.080100
    15  H   -0.006356  -0.004555   0.009994   0.005153   0.000647   0.000073
    16  C   -1.059685  -0.140354   1.125100   0.556080  -0.002356  -0.034787
    17  H    0.001843   0.014307   0.001751  -0.012146   0.000020   0.001008
    18  C    1.230115  -0.334945  -1.070842  -0.507735   0.004026   0.017092
    19  H    0.014369  -0.074416  -0.039197   0.027663   0.002596  -0.000309
    20  C   -0.129017  -0.005335   0.136621   0.112020  -0.016473   0.013071
    21  H   -0.018985   0.021122   0.015973   0.012040  -0.000282  -0.000008
    22  H   -0.003344  -0.021208   0.000065   0.002217   0.000250   0.000030
    23  H   -0.017774   0.030516   0.009015   0.002902  -0.000316   0.000007
    24  C   -0.143950  -0.667379   0.064333   0.710932   0.008398   0.057744
    25  H    0.049590  -0.043293  -0.084892   0.014661  -0.000230   0.005248
    26  C    0.562593  -0.190581  -0.908180  -0.091524   0.000210   0.054561
    27  H    0.002441   0.002459  -0.003540  -0.004968   0.000003   0.000168
    28  H   -0.003529   0.006362   0.026010  -0.031205   0.000040   0.000882
    29  C   -0.057518   0.002869  -0.006332   0.100307   0.000465  -0.032275
    30  C   -0.002696   0.051902   0.082527  -0.162544   0.000203  -0.001311
    31  H   -0.000437   0.000351   0.004749  -0.007585   0.000000   0.000052
    32  H    0.000069  -0.000439  -0.001508   0.001910   0.000000   0.000026
    33  H    0.000207   0.000418   0.001676  -0.000625   0.000000  -0.000104
    34  O    0.021707   0.025642  -0.028635  -0.059309  -0.000324  -0.007836
    35  O   -0.001390  -0.013794  -0.015002   0.022421  -0.000106   0.008538
    36  H    0.122015  -0.123202  -0.040632   0.003838  -0.001560   0.000018
    37  H   -0.001396  -0.000871  -0.001126  -0.000831   0.000000   0.000003
    38  H   -0.001333  -0.011709   0.008758   0.020453  -0.000092   0.007680
    39  H    0.000085   0.000267  -0.000400  -0.000080   0.000000   0.000025
    40  O    0.037528   0.181693  -0.191492  -0.145468   0.003573  -0.117965
    41  H   -0.004669  -0.011441   0.027308   0.004908  -0.000065   0.001341
    42  O   -0.000024  -0.000096  -0.000318   0.000539   0.000000  -0.000029
    43  H   -0.000001   0.000020   0.000047  -0.000073   0.000000  -0.000001
    44  O    0.008578   0.009590   0.016997  -0.061147   0.000016   0.000088
    45  H   -0.004197   0.018525   0.029598  -0.053583   0.000000  -0.000106
    46  O    0.069393  -0.015155  -0.050699  -0.003328  -0.005059   0.000116
    47  H    0.035636  -0.032933  -0.011970  -0.004002   0.000257  -0.000003
               7          8          9         10         11         12
     1  C   -0.108694  -0.048042   0.032305   0.021239   0.710495   0.099738
     2  C   -0.249174   0.001755   0.033720  -0.015734  -1.052784  -0.017036
     3  C   -0.108640  -0.000339   0.002947  -0.006383  -0.850902  -0.234712
     4  C   -0.249569  -0.039227   0.002903   0.030252  -0.059125   0.536713
     5  H   -0.001233   0.000034  -0.000023  -0.000006   0.003741   0.000177
     6  H   -0.001429   0.000011   0.000002  -0.000034   0.036245  -0.013191
     7  C    5.283434   0.453078   0.382747   0.397888   0.512759  -0.077648
     8  H    0.453078   0.496580  -0.013371  -0.026486   0.002241  -0.008779
     9  H    0.382747  -0.013371   0.473225  -0.017959  -0.076933   0.004188
    10  H    0.397888  -0.026486  -0.017959   0.500348  -0.065403   0.011602
    11  N    0.512759   0.002241  -0.076933  -0.065403   7.782082  -0.210044
    12  O   -0.077648  -0.008779   0.004188   0.011602  -0.210044   8.469635
    13  O    0.031950   0.000713  -0.001316  -0.000911  -0.083455  -0.019102
    14  C    0.077716   0.000705  -0.001718  -0.001016   0.120326  -0.024762
    15  H   -0.000237   0.000000   0.000000   0.000000  -0.000769   0.000078
    16  C   -0.004277  -0.001116  -0.002257   0.004129  -0.086242   0.015004
    17  H    0.000169   0.000000   0.000000  -0.000001   0.000645  -0.000227
    18  C    0.045475   0.002652  -0.001317  -0.002024   0.161298  -0.022682
    19  H    0.000032  -0.000029  -0.000013  -0.000103   0.001937   0.000112
    20  C   -0.029846  -0.000295  -0.000495   0.001360  -0.036415   0.006663
    21  H   -0.003770  -0.000002   0.000005   0.000009   0.004283   0.000259
    22  H    0.000704   0.000000  -0.000001   0.000000  -0.000551  -0.000038
    23  H   -0.000063   0.000000  -0.000001   0.000001  -0.001773   0.000005
    24  C    0.006521   0.002106  -0.001940  -0.001228   0.119379   0.025899
    25  H   -0.004896  -0.000030   0.000016   0.000109   0.000289   0.006751
    26  C    0.020306   0.001454   0.000419  -0.004325   0.128321  -0.039201
    27  H   -0.000055   0.000000   0.000000  -0.000011  -0.000153   0.002846
    28  H    0.001956   0.000061   0.000003  -0.000095   0.017260  -0.005336
    29  C   -0.008835  -0.000239   0.000057   0.000197  -0.046837  -0.011837
    30  C    0.006652   0.000208  -0.000056  -0.000769   0.020523   0.002867
    31  H    0.000063   0.000000   0.000000  -0.000001   0.000149   0.000941
    32  H    0.000023   0.000000   0.000000   0.000000   0.000061   0.000146
    33  H   -0.000113   0.000000   0.000000  -0.000003   0.000060  -0.000508
    34  O    0.001782  -0.000041  -0.000006   0.000095  -0.011482   0.015059
    35  O    0.000385  -0.000001   0.000000   0.000003   0.001561   0.001490
    36  H    0.002417  -0.000010   0.000051  -0.000002   0.001921  -0.000137
    37  H    0.000926  -0.000034  -0.000002  -0.000608  -0.000541  -0.002335
    38  H   -0.000172   0.000000   0.000000   0.000000  -0.000200  -0.000344
    39  H   -0.000001   0.000000   0.000000   0.000000   0.000001  -0.000094
    40  O    0.003422   0.000000  -0.000003   0.000008  -0.004506   0.005251
    41  H   -0.000172   0.000000   0.000000   0.000000  -0.000072   0.000148
    42  O    0.000008   0.000000   0.000000   0.000000   0.000007  -0.000003
    43  H    0.000000   0.000000   0.000000   0.000000   0.000000  -0.000001
    44  O    0.001486   0.000514   0.000175   0.003263   0.019482  -0.018959
    45  H    0.005212  -0.000921  -0.000005  -0.003229  -0.000582  -0.011638
    46  O    0.001432  -0.000009   0.000049   0.000015   0.002499  -0.000036
    47  H    0.000478   0.000001   0.000000   0.000000  -0.000274  -0.000011
              13         14         15         16         17         18
     1  C    0.651379   0.904142  -0.006356  -1.059685   0.001843   1.230115
     2  C   -0.433169   0.239203  -0.004555  -0.140354   0.014307  -0.334945
     3  C   -0.139382  -1.170091   0.009994   1.125100   0.001751  -1.070842
     4  C    0.051493  -0.900559   0.005153   0.556080  -0.012146  -0.507735
     5  H   -0.008382   0.001329   0.000647  -0.002356   0.000020   0.004026
     6  H    0.001295  -0.080100   0.000073  -0.034787   0.001008   0.017092
     7  C    0.031950   0.077716  -0.000237  -0.004277   0.000169   0.045475
     8  H    0.000713   0.000705   0.000000  -0.001116   0.000000   0.002652
     9  H   -0.001316  -0.001718   0.000000  -0.002257   0.000000  -0.001317
    10  H   -0.000911  -0.001016   0.000000   0.004129  -0.000001  -0.002024
    11  N   -0.083455   0.120326  -0.000769  -0.086242   0.000645   0.161298
    12  O   -0.019102  -0.024762   0.000078   0.015004  -0.000227  -0.022682
    13  O    8.413670   0.031797  -0.000025  -0.018015   0.000023   0.014712
    14  C    0.031797   7.095775   0.393855  -0.582904   0.001785   0.858537
    15  H   -0.000025   0.393855   0.476144  -0.007022  -0.003626  -0.048338
    16  C   -0.018015  -0.582904  -0.007022   6.622675   0.398305  -1.039641
    17  H    0.000023   0.001785  -0.003626   0.398305   0.454729   0.014012
    18  C    0.014712   0.858537  -0.048338  -1.039641   0.014012   6.664030
    19  H    0.005116  -0.035684   0.002588   0.029988  -0.000102   0.395031
    20  C   -0.001084  -0.242382   0.004080   0.109802   0.001972  -0.209633
    21  H   -0.003953  -0.010125   0.000000   0.011065   0.000002  -0.069297
    22  H    0.002288   0.041181   0.001752   0.022910  -0.000018  -0.109803
    23  H   -0.000004  -0.038582   0.000007   0.009093  -0.000004  -0.073585
    24  C   -0.011049  -1.016204   0.011621   0.740871  -0.060910  -0.087431
    25  H    0.000307   0.008911  -0.000026  -0.057231   0.001631   0.013228
    26  C    0.009099   0.272460  -0.002640  -0.491936   0.000668   0.250944
    27  H   -0.000012   0.005881   0.000002  -0.012287   0.000270  -0.000348
    28  H    0.000319   0.005573   0.000000  -0.006132  -0.000200   0.000608
    29  C   -0.001293  -0.035045   0.000515   0.060909  -0.004070  -0.044071
    30  C    0.001044   0.049377  -0.000046  -0.007689   0.001299   0.006143
    31  H    0.000000  -0.000066   0.000000  -0.002440   0.000039   0.000251
    32  H    0.000000  -0.000176   0.000000  -0.000518   0.000000  -0.000037
    33  H    0.000000   0.000290   0.000000   0.002022  -0.000005   0.000089
    34  O    0.000101   0.054438   0.000292   0.047386  -0.004898  -0.018514
    35  O    0.000008  -0.008050  -0.000004  -0.006308  -0.000771   0.000505
    36  H    0.047548   0.000322   0.000018  -0.004508   0.000000   0.009997
    37  H   -0.000010  -0.000014   0.000000   0.000753   0.000000  -0.000098
    38  H    0.000000  -0.013652   0.000013   0.000648   0.000115  -0.002552
    39  H    0.000000   0.000068   0.000000  -0.000103   0.000000   0.000020
    40  O    0.000046   0.110027  -0.000263  -0.009469   0.000464   0.020102
    41  H   -0.000005  -0.005205   0.000002   0.000989  -0.000010  -0.001100
    42  O    0.000000   0.000001   0.000000   0.000357  -0.000002  -0.000030
    43  H    0.000000  -0.000002   0.000000  -0.000008   0.000000  -0.000002
    44  O   -0.000405   0.000801   0.000000  -0.009746   0.000011   0.000410
    45  H   -0.000180   0.004257   0.000000   0.001805   0.000003   0.002128
    46  O   -0.029968   0.022792  -0.000130   0.002270   0.000008  -0.023723
    47  H    0.004938  -0.000614   0.000000  -0.001853   0.000000   0.007092
              19         20         21         22         23         24
     1  C    0.014369  -0.129017  -0.018985  -0.003344  -0.017774  -0.143950
     2  C   -0.074416  -0.005335   0.021122  -0.021208   0.030516  -0.667379
     3  C   -0.039197   0.136621   0.015973   0.000065   0.009015   0.064333
     4  C    0.027663   0.112020   0.012040   0.002217   0.002902   0.710932
     5  H    0.002596  -0.016473  -0.000282   0.000250  -0.000316   0.008398
     6  H   -0.000309   0.013071  -0.000008   0.000030   0.000007   0.057744
     7  C    0.000032  -0.029846  -0.003770   0.000704  -0.000063   0.006521
     8  H   -0.000029  -0.000295  -0.000002   0.000000   0.000000   0.002106
     9  H   -0.000013  -0.000495   0.000005  -0.000001  -0.000001  -0.001940
    10  H   -0.000103   0.001360   0.000009   0.000000   0.000001  -0.001228
    11  N    0.001937  -0.036415   0.004283  -0.000551  -0.001773   0.119379
    12  O    0.000112   0.006663   0.000259  -0.000038   0.000005   0.025899
    13  O    0.005116  -0.001084  -0.003953   0.002288  -0.000004  -0.011049
    14  C   -0.035684  -0.242382  -0.010125   0.041181  -0.038582  -1.016204
    15  H    0.002588   0.004080   0.000000   0.001752   0.000007   0.011621
    16  C    0.029988   0.109802   0.011065   0.022910   0.009093   0.740871
    17  H   -0.000102   0.001972   0.000002  -0.000018  -0.000004  -0.060910
    18  C    0.395031  -0.209633  -0.069297  -0.109803  -0.073585  -0.087431
    19  H    0.522074  -0.012231  -0.005783   0.004238  -0.002100  -0.010164
[...]
 00013976,-0.00010689,-0.00008391,0.00006283,-0.00009016,-0.00007489,0.
 00016332,0.00003136,0.00004507,-0.00002552,-0.00001479,-0.00001350,-0.
 00008842,0.00011366,0.00010152,0.00001420,-0.00001753,-0.00002286,0.10
 920502,0.00161061,0.00123155,0.00013599,0.00034947,0.00019961,-0.00028
 079,-0.00068389,-0.00076143,0.00079528,0.00832747,0.00401744,-0.001613
 03,-0.00007357,-0.00001718,0.00004988,-0.00007482,0.00007616,0.0000462
 5,0.00015054,-0.00078053,-0.00014653,-0.00007413,0.00006718,-0.0001428
 4,-0.00006950,0.00004266,-0.00005190,-0.00001723,-0.00043994,0.0002161
 6,-0.00317595,-0.00035802,0.00018527,-0.00793477,-0.01002934,-0.007611
 40,-0.00141658,-0.00019131,-0.00018740,-0.00066787,0.00007656,0.000136
 04,-0.00003361,-0.00005946,-0.00007966,0.00017770,0.00035530,-0.000089
 16,0.00002648,-0.00003171,-0.00004519,0.00040447,-0.00033147,0.0003385
 0,0.00003758,-0.00004338,-0.00010135,-0.00011410,0.00003796,0.00013609
 ,0.00001923,-0.00002385,-0.00004549,-0.00001203,-0.00002644,-0.0000110
 9,-0.00007578,-0.00005247,0.00001824,0.00017567,-0.00045854,0.00034339
 ,0.00007465,0.00009047,-0.00023169,-0.00041568,0.00122691,-0.00062806,
 -0.00002137,-0.00002086,0.00002392,-0.00022141,0.00005828,0.00030626,-
 0.00136961,0.00033003,0.00073717,0.00015518,0.00005688,-0.00008531,-0.
 00016375,0.00004510,-0.00008503,0.00004926,-0.00009006,-0.00000096,-0.
 00019229,0.00000250,0.00023685,0.00119070,-0.00080380,-0.00034621,0.00
 056011,-0.00051313,-0.00050055,0.00018455,0.00019829,0.00013075,-0.174
 66595,-0.39822382,0.17262238,0.00001129,0.00013238,0.00009268,-0.00021
 738,0.00001954,0.00010908,0.00002516,-0.00019261,-0.00013153,0.0000000
 6,0.00003504,0.00003229,0.00018659,-0.00000614,-0.00008187,-0.00003035
 ,0.00000163,0.00000541,0.24199145,0.56924967,0.00104383,0.00141564,-0.
 00003869,0.00048893,-0.00019696,-0.00007784,-0.00096550,-0.00084665,0.
 00045075,0.00635220,0.00249426,-0.00159366,-0.00004792,-0.00004430,0.0
 0003938,-0.00005983,0.00003403,0.00001254,-0.00011996,0.00000030,0.000
 16200,0.00010963,0.00009365,0.00012950,-0.00011004,-0.00011800,-0.0001
 0946,-0.00006590,0.00007438,-0.00068648,-0.00239530,-0.00084309,0.0000
 1869,-0.00674361,-0.00919785,-0.00275912,-0.00083921,-0.00032416,-0.00
 005719,-0.00048920,0.00004377,0.00011781,0.00000219,-0.00001728,-0.000
 06284,0.00026581,0.00032939,0.00012218,0.00000776,-0.00001872,-0.00006
 314,0.00029736,-0.00029726,0.00025056,-0.00001066,-0.00000647,-0.00011
 765,-0.00007994,0.00003489,0.00006186,0.00002625,-0.00001602,-0.000023
 99,0.00000250,-0.00000575,-0.00000407,-0.00003973,-0.00003132,0.000014
 41,-0.00007507,-0.00043775,0.00006403,-0.00009063,-0.00002487,-0.00014
 549,-0.00000755,-0.00026941,-0.00009490,0.00013071,-0.00017152,0.00010
 228,-0.00010570,0.00015063,-0.00040900,-0.00000108,0.00003331,-0.00006
 296,-0.00002601,0.00002674,-0.00010780,0.00003623,-0.00006477,0.000030
 95,0.00000691,-0.00000869,0.00002269,-0.00006494,0.00003434,-0.0000295
 1,0.00002130,0.00015110,0.00013376,0.00002815,0.00001974,0.00005287,0.
 00011495,0.00014519,0.00005842,0.05445080,0.12187500,-0.10284836,-0.00
 004391,0.00002426,-0.00004115,-0.00003900,0.00001083,-0.00002105,0.000
 06726,-0.00011125,0.00002270,-0.00001236,0.00004163,-0.00000206,0.0000
 5584,-0.00000596,0.00004044,-0.00001322,-0.00000682,-0.00001290,0.0138
 3695,0.05349647,0.45588366,-0.00110677,-0.00163075,0.00010155,-0.00050
 729,0.00029672,0.00003826,0.00065254,0.00076945,-0.00059134,-0.0046602
 3,-0.00474888,-0.00039292,0.00000294,0.00004926,-0.00001411,0.00010590
 ,0.00000930,-0.00000270,0.00012194,-0.00085207,-0.00087716,0.00000486,
 0.00008473,0.00004665,0.00019848,0.00027683,0.00030259,-0.00137533,0.0
 0059032,0.00042793,0.00099109,0.00067364,0.00066365,0.00013285,0.00421
 391,0.00238510,0.00076604,0.00045140,0.00004846,0.00036923,-0.00003773
 ,-0.00009356,-0.00001933,0.00001645,0.00003667,-0.00044814,-0.00023925
 ,-0.00008554,0.00001566,0.00006417,0.00002771,-0.00023036,0.00015271,-
 0.00021007,-0.00000169,0.00000268,0.00009712,0.00004789,-0.00000064,-0
 .00002302,-0.00003079,0.00000089,0.00000859,0.00000128,0.00001898,0.00
 000252,0.00001533,0.00000971,-0.00001092,0.00042808,0.00009628,0.00002
 941,-0.00009377,-0.00007438,0.00020811,0.00013708,0.00050385,-0.000581
 98,-0.00011788,-0.00000600,0.00003279,0.00017684,0.00096610,0.00012870
 ,0.00030621,0.00070555,0.00014134,-0.00001857,-0.00017792,-0.00010882,
 -0.00010013,0.00008549,-0.00008866,0.00001433,-0.00008946,0.00002322,-
 0.00015153,0.00015682,0.00024205,-0.00023728,-0.00051316,0.00007301,-0
 .00006339,-0.00041322,-0.00019133,-0.00011166,-0.00017118,-0.00009178,
 -0.00418254,-0.00988153,-0.01511742,0.00010727,0.00007864,0.00006893,-
 0.00005537,0.00005755,0.00004948,-0.00013682,-0.00000214,-0.00003005,0
 .00001846,0.00000588,0.00000762,0.00006833,-0.00006765,-0.00005787,-0.
 00000954,0.00000917,0.00001071,-0.03270446,-0.06385825,-0.06482479,0.0
 4161300,-0.00237361,-0.00241490,-0.00009279,-0.00076033,-0.00023276,0.
 00042680,0.00117828,0.00141894,-0.00108507,-0.01446108,-0.00846265,0.0
 0202846,0.00010416,0.00004856,-0.00009423,0.00015074,-0.00005625,-0.00
 006100,-0.00051210,0.00164006,0.00033397,0.00007343,-0.00019956,0.0001
 1807,0.00004258,-0.00017249,-0.00002898,0.00025348,-0.00000411,-0.0002
 2449,0.00588581,0.00097591,-0.00029321,0.00881866,0.00540742,0.0022071
 2,0.00212982,0.00042415,0.00025070,0.00109136,-0.00011532,-0.00022344,
 0.00002146,0.00005857,0.00012491,-0.00050471,-0.00064708,-0.00000271,-
 0.00001850,0.00006134,0.00008790,-0.00062753,0.00061556,-0.00065441,-0
 .00001764,0.00005761,0.00019782,0.00016335,-0.00006183,-0.00014895,-0.
 00003938,0.00003564,0.00005366,0.00000613,0.00002819,0.00000866,0.0000
 8847,0.00006673,-0.00002599,0.00002946,0.00071138,-0.00033092,-0.00009
 765,-0.00002375,0.00041436,0.00034762,-0.00093105,0.00017109,-0.000121
 20,0.00030315,-0.00019324,0.00107752,-0.00144121,0.00072523,0.00132288
 ,0.00007303,-0.00050114,-0.00015567,-0.00020515,0.00007521,0.00000444,
 0.00006846,-0.00000796,-0.00004526,0.00003756,-0.00002873,0.00012597,0
 .00013204,-0.00004266,-0.00114173,0.00030945,0.00023569,-0.00050106,0.
 00018545,0.00029738,-0.00024710,-0.00029530,-0.00017384,-0.00882014,-0
 .02223827,-0.03401594,0.00005859,-0.00007721,-0.00002813,0.00015657,0.
 00001287,-0.00005917,-0.00010392,0.00019118,0.00008959,0.00000804,-0.0
 0003503,-0.00002611,-0.00012517,-0.00002907,0.00002996,0.00002075,0.00
 000389,0.00000322,-0.06496052,-0.16396912,-0.16737187,0.07230896,0.188
 55830,-0.00133094,-0.00188930,0.00005252,-0.00068185,0.00022629,0.0001
 8696,0.00159628,0.00133797,-0.00067522,-0.01026304,-0.00380779,0.00208
 889,0.00009865,0.00006115,-0.00006310,0.00009263,-0.00004005,-0.000018
 33,-0.00004698,0.00076300,0.00023411,-0.00012635,-0.00016895,-0.000210
 94,0.00007866,0.00000997,-0.00003594,-0.00002202,-0.00012139,0.0002220
 3,0.00406361,0.00088061,-0.00008985,0.00738310,0.00462118,-0.00212901,
 0.00121526,0.00041016,0.00009902,0.00068656,-0.00007529,-0.00015086,-0
 .00001445,0.00000937,0.00007951,-0.00038755,-0.00050027,-0.00016728,-0
 .00000849,0.00000828,0.00007450,-0.00039815,0.00043920,-0.00043307,0.0
 0002657,0.00001762,0.00014643,0.00009969,-0.00004709,-0.00005971,-0.00
 003455,0.00002188,0.00002523,-0.00000729,0.00000499,0.00000236,0.00003
 688,0.00003481,-0.00001856,0.00012937,0.00060572,0.00004465,0.00018966
 ,0.00007642,0.00015244,0.00002974,0.00063226,-0.00058181,-0.00017750,0
 .00008173,-0.00004128,-0.00014986,0.00065405,0.00072599,-0.00010933,0.
 00019291,0.00023525,0.00003657,-0.00009713,0.00001553,-0.00008054,0.00
 008134,-0.00008569,0.00000320,-0.00002450,-0.00001615,0.00001869,0.000
 05623,0.00015592,0.00016748,-0.00051550,-0.00012677,0.00003370,-0.0002
 0524,-0.00018590,-0.00014161,-0.00018017,-0.00008109,0.00671374,0.0161
 4676,0.01142497,0.00007991,0.00001303,0.00007174,-0.00000116,0.0000091
 2,0.00003996,-0.00010621,0.00009789,-0.00003836,0.00001339,-0.00003719
 ,0.00000268,-0.00001045,-0.00001801,-0.00005033,0.00000560,0.00000785,
 0.00001054,-0.08692496,-0.21760085,-0.34838789,0.07813185,0.19771334,0
 .33750626,0.00491418,0.00068187,0.00067505,-0.00099091,0.00116420,-0.0
 0021428,0.00066368,-0.00041599,0.00009226,0.00094932,0.00030604,0.0000
 1379,0.00012299,-0.00044493,0.00024192,0.00005199,-0.00001101,-0.00005
 343,-0.00024952,0.00040610,-0.00002296,0.00001744,-0.00007350,0.000037
 38,0.00001563,0.00009522,0.00000984,-0.00003152,-0.00007405,0.00001079
 ,-0.00142900,-0.00094771,0.00016702,-0.00072009,-0.00062515,0.00003544
 ,-0.00302567,-0.00600600,-0.00351125,0.00042518,-0.00013587,-0.0000681
 6,-0.00000977,0.00002449,0.00008448,-0.00037485,-0.00033753,-0.0002156
 3,0.00000345,0.00000947,0.00007619,-0.00033767,0.00007153,0.00021228,-
 0.00000071,0.00000839,0.00005540,0.00030862,0.00010591,-0.00036520,-0.
 00042307,0.00012368,0.00006145,-0.00002841,-0.00013810,0.00006148,-0.0
 0005158,0.00001464,-0.00021980,0.00002629,0.00041716,-0.00035682,-0.00
 001161,-0.00001987,0.00011890,0.00013160,-0.00007799,-0.00007215,-0.00
 008092,0.00002233,-0.00000070,0.00000830,0.00003253,0.00004335,0.00037
 908,0.00003699,-0.00013480,-0.00002647,-0.00003896,0.00001763,0.000010
 76,0.00000446,0.00000144,-0.00000347,0.00000020,0.00000186,0.00001486,
 0.00000994,-0.00000766,-0.00033106,-0.00003479,0.00007765,-0.00019863,
 0.00004841,0.00005660,-0.04831125,-0.12481179,-0.05340473,0.00000885,0
 .00003090,0.00000873,0.00006897,-0.00000208,0.00004368,0.00008233,-0.0
 0000135,-0.00002213,-0.00018695,0.00007871,-0.00005129,0.00008089,-0.0
 0003753,0.00000436,-0.00008086,-0.00000158,0.00001100,0.00001877,0.000
 00076,0.00000050,-0.00005888,-0.00016304,-0.00010283,0.00008260,0.0002
 0768,0.00012094,0.13463910,0.01026905,-0.00236086,0.00062188,-0.001291
 48,0.00058081,-0.00041877,0.00043726,0.00045699,0.00034692,0.00243708,
 -0.00085050,0.00007143,-0.00008443,-0.00026536,-0.00008826,-0.00003475
 ,-0.00006210,-0.00011035,-0.00020483,0.00049842,-0.00007716,0.00003843
 ,-0.00007652,0.00004345,0.00003589,0.00018612,0.00004976,-0.00005789,-
 0.00007086,0.00001292,-0.00423806,-0.00087260,0.00021515,-0.00135563,-
 0.00047071,0.00004237,-0.01186031,-0.00633449,-0.00672676,0.00048136,-
 0.00014042,-0.00002166,-0.00001466,0.00006808,0.00000929,-0.00047258,-
 0.00042828,-0.00012922,-0.00001803,0.00000982,0.00006551,-0.00051640,0
 .00024481,-0.00003267,0.00004960,0.00004614,0.00014759,0.00021621,-0.0
 0020387,0.00001371,-0.00009532,-0.00018754,-0.00006670,-0.00000933,0.0
 0016684,0.00004237,0.00004494,0.00005996,-0.00000836,0.00001230,0.0004
 9968,-0.00049685,-0.00000694,-0.00000619,0.00017013,0.00011598,-0.0001
 3926,-0.00009285,-0.00006088,0.00002908,0.00000176,0.00002330,0.000041
 29,0.00003714,0.00036324,-0.00010232,-0.00020800,-0.00002739,-0.000002
 63,0.00001543,0.00001412,0.00000274,0.00000651,-0.00000488,-0.00000071
 ,0.00000060,0.00001898,0.00000544,-0.00001198,-0.00033724,0.00003414,0
 .00012610,-0.00014153,0.00016500,0.00014187,-0.10085674,-0.40132940,-0
 .10663404,0.00003141,0.00002190,0.00000558,-0.00000829,-0.00007007,-0.
 00004522,0.00005084,-0.00001439,-0.00002907,0.00002526,0.00018099,0.00
 009542,-0.00004639,-0.00005522,-0.00001862,-0.00004189,0.00002129,0.00
 002818,0.00000387,-0.00000740,-0.00000727,-0.00012550,-0.00013514,-0.0
 0010828,0.00012631,0.00020093,0.00012605,0.08559843,0.47038946,0.00517
 854,-0.00023369,0.00021838,-0.00069168,0.00063459,0.00002439,0.0000706
 6,-0.00026299,0.00018586,0.00113044,0.00008278,-0.00026839,0.00032678,
 -0.00006530,-0.00043428,-0.00003204,-0.00007966,-0.00008962,-0.0001386
 1,0.00036064,-0.00010165,-0.00002562,-0.00010226,0.00004280,0.00002137
 ,0.00011057,-0.00000880,-0.00001254,-0.00005796,0.00002380,-0.00215263
 ,-0.00079720,-0.00010212,-0.00085850,-0.00055525,0.00017102,-0.0058616
 4,-0.00578228,-0.00042125,-0.00029071,-0.00011953,0.00014192,0.0000447
 5,0.00000298,0.00000492,-0.00007519,-0.00007725,-0.00009781,-0.0000453
 3,0.00000358,0.00001381,0.00067091,0.00041612,-0.00028190,-0.00010291,
 -0.00006610,0.00009359,0.00025597,-0.00060168,0.00005746,-0.00051248,0
 .00076445,0.00012852,0.00004538,-0.00040520,0.00000034,-0.00029119,-0.
 00003793,-0.00042446,-0.00004055,0.00009899,-0.00006147,-0.00001475,0.
 00000583,0.00005778,0.00019106,-0.00011045,-0.00017194,-0.00008581,0.0
 0002160,0.00001196,-0.00000136,0.00002157,0.00003152,0.00041959,-0.000
 05792,-0.00025853,-0.00003524,-0.00001313,0.00001769,0.00001396,0.0000
 0458,0.00000861,-0.00000768,-0.00000005,-0.00000216,0.00001619,0.00000
 382,-0.00001726,-0.00038986,0.00000174,0.00018096,-0.00016009,0.000148
 96,0.00017583,-0.05945320,-0.15573834,-0.09094173,0.00001452,0.0000164
 6,-0.00000695,-0.00000962,-0.00005092,-0.00006435,0.00005136,-0.000006
 10,-0.00004368,0.00003770,0.00009529,0.00016271,-0.00007407,-0.0000069
 3,-0.00004688,-0.00003583,0.00001128,0.00004691,0.00000301,-0.00000518
 ,-0.00001270,-0.00007548,-0.00011892,-0.00004263,0.00007901,0.00015301
 ,0.00006288,0.25069126,0.05041224,0.52417375,-0.00051710,0.00005039,-0
 .00019574,-0.00000049,0.00005139,0.00009074,-0.00010478,-0.00007837,-0
 .00002105,-0.00017173,-0.00000997,-0.00007641,0.00015514,0.00000352,-0
 .00015105,-0.00002240,-0.00000398,-0.00001531,0.00004312,-0.00005817,-
 0.00001909,-0.00001121,-0.00000727,-0.00000480,0.00000039,-0.00000963,
 -0.00000464,0.00000623,0.00000895,0.00000653,0.00016614,0.00008628,0.0
 0002554,0.00007735,0.00005707,0.00003888,0.00039197,-0.00023222,0.0004
 7860,-0.00004272,0.00002338,0.00002923,0.00000320,-0.00000577,-0.00001
 625,0.00005977,0.00004284,0.00003804,-0.00000082,-0.00000174,-0.000015
 91,0.00008654,-0.00001264,0.00002842,-0.00000060,-0.00000168,-0.000003
 39,0.00007218,0.00006016,0.00010117,-0.00006119,-0.00008549,-0.0001437
 6,-0.00002671,-0.00001052,-0.00001341,-0.00000514,-0.00001424,0.000030
 60,-0.00001996,-0.00006857,0.00004310,0.00000199,0.00000398,-0.0000196
 9,-0.00001065,0.00000644,-0.00000156,0.00001263,-0.00000384,0.00000268
 ,-0.00000325,-0.00000616,-0.00000776,-0.00004935,-0.00002593,-0.000005
 74,0.00000215,0.00001176,-0.00000248,-0.00000127,-0.00000070,0.0000014
 7,-0.00000070,-0.00000023,-0.00000145,-0.00000221,-0.00000320,-0.00000
 108,0.00004057,0.00001177,0.00000570,0.00003981,0.00001274,0.00001665,
 -0.00528122,0.00577224,-0.01311467,-0.00000097,-0.00000865,-0.00000562
 ,-0.00002752,-0.00001021,-0.00002861,-0.00002078,-0.00000059,-0.000001
 77,0.00007408,-0.00000872,0.00006037,-0.00005038,0.00001502,-0.0000163
 9,0.00002453,0.00000304,0.00000682,-0.00000703,-0.00000154,-0.00000298
 ,0.00000904,0.00003473,0.00002834,-0.00001538,-0.00004187,-0.00002847,
 -0.08606200,0.02151753,-0.18778783,0.09125070,0.00004565,0.00005792,0.
 00007057,0.00014020,0.00001559,-0.00001647,-0.00003282,0.00000148,-0.0
 0001496,-0.00015132,0.00001798,-0.00004248,-0.00012989,-0.00005639,0.0
 0000309,-0.00000715,0.00000812,0.00001358,-0.00001289,0.00002722,-0.00
 000827,-0.00002238,-0.00001722,0.00000258,-0.00000091,0.00000266,-0.00
 002222,0.00000701,-0.00000470,0.00000961,0.00004839,-0.00002591,-0.000
 00203,0.00007004,0.00002901,0.00001165,-0.00027706,-0.00176156,0.00017
 142,-0.00000391,-0.00000942,-0.00000015,-0.00000693,-0.00000081,-0.000
 00535,0.00001962,0.00003661,0.00002038,0.00000481,-0.00000091,-0.00000
 513,-0.00000608,0.00000004,0.00003016,0.00001526,0.00000544,-0.0000068
 7,0.00005271,-0.00008699,0.00001891,-0.00002927,-0.00007488,0.00008287
 ,-0.00003383,0.00009576,-0.00006934,0.00000138,0.00005073,0.00002851,0
 .00000177,-0.00003327,0.00001944,0.00000262,0.00000004,-0.00001116,-0.
 00002715,0.00002178,0.00002015,0.00001064,-0.00000335,-0.00000144,-0.0
 0000193,-0.00000392,-0.00000484,-0.00006319,0.00002367,0.00004019,0.00
 000447,-0.00000148,-0.00000247,-0.00000269,-0.00000034,-0.00000126,0.0
 0000051,0.00000064,-0.00000041,-0.00000239,-0.00000039,0.00000177,0.00
 005932,-0.00000744,-0.00002527,0.00002483,-0.00003431,-0.00002791,-0.0
 1753924,0.00696385,-0.03924348,-0.00000897,-0.00000148,-0.00000339,0.0
 0000365,0.00001419,0.00000964,-0.00000926,0.00000393,0.00000596,-0.000
 00779,-0.00003914,-0.00002187,0.00001277,0.00001775,0.00000615,0.00000
 757,-0.00000634,-0.00000641,-0.00000039,0.00000220,0.00000216,0.000024
 35,0.00000857,0.00001549,-0.00001755,-0.00001428,-0.00001248,0.0448987
 6,-0.05972309,0.11198110,-0.02706133,0.05450246,-0.00108912,-0.0000855
 3,-0.00006229,0.00027225,-0.00002328,0.00007142,-0.00007230,0.00001839
 ,-0.00005735,-0.00029410,0.00000300,0.00001545,-0.00019212,-0.00003710
 ,-0.00005731,0.00000661,0.00001115,0.00002984,0.00001985,-0.00006140,0
 .00002398,0.00000105,0.00001906,-0.00000838,-0.00000604,-0.00001801,-0
 .00000081,0.00000392,0.00001208,-0.00000458,0.00044508,0.00016430,-0.0
 0004736,0.00018868,0.00011444,-0.00002826,0.00094063,0.00026848,0.0005
 7828,-0.00007862,0.00001045,-0.00000936,-0.00000070,-0.00000499,-0.000
 00643,0.00007227,0.00007538,0.00002725,0.00000117,-0.00000261,-0.00000
 966,0.00006621,-0.00003063,-0.00002952,-0.00000564,-0.00000254,-0.0000
 1699,0.00007194,-0.00010110,-0.00003519,-0.00010094,0.00014218,-0.0000
 5678,0.00002977,-0.00004498,0.00002823,-0.00005829,0.00000343,-0.00004
 613,0.00000442,-0.00007599,0.00008470,0.00000197,0.00000107,-0.0000226
 5,-0.00003170,0.00002453,0.00002560,0.00001254,-0.00000508,-0.00000171
 ,-0.00000071,-0.00000638,-0.00000581,-0.00008613,0.00001472,0.00005417
 ,0.00000690,0.00000202,-0.00000365,-0.00000282,-0.00000078,-0.00000191
 ,0.00000171,-0.00000003,0.00000087,-0.00000365,-0.00000044,0.00000406,
 0.00007862,-0.00000186,-0.00003580,0.00003287,-0.00003165,-0.00003765,
 -0.00670714,0.01019583,-0.01686899,-0.00000495,-0.00000278,0.00000234,
 0.00000296,0.00001007,0.00001258,-0.00001073,0.00000141,0.00001047,-0.
 00000375,-0.00001900,-0.00003451,0.00001470,0.00000152,0.00001342,0.00
 000650,-0.00000303,-0.00001231,-0.00000005,0.00000138,0.00000369,0.000
 02072,0.00002243,0.00000837,-0.00001898,-0.00003116,-0.00001325,-0.194
 20886,0.06248273,-0.43213686,0.20067404,-0.07300970,0.44865678\\-0.000
 01142,0.00000139,-0.00000058,-0.00000104,-0.00000352,0.00000178,-0.000
 00204,-0.00000047,0.00000294,0.00000495,-0.00000016,-0.00000028,-0.000
 00010,0.00000227,0.00000517,-0.00000084,-0.00000152,-0.00000060,-0.000
 00240,0.00000091,0.00000175,-0.00000074,-0.00000181,-0.00000261,0.0000
 0140,0.00000019,-0.00000139,0.00000037,0.00000156,-0.00000319,0.000000
 38,-0.00000475,-0.00000084,-0.00000119,0.00000089,-0.00000310,0.000006
 94,-0.00000048,0.00000370,0.00000790,0.00000007,0.00000370,-0.00000021
 ,0.00000230,0.00000550,0.00000274,0.00001206,0.00000026,0.00000180,0.0
 0000023,0.00000193,-0.00000504,0.00000791,0.00000475,0.00000146,0.0000
 0053,0.00000309,0.00000068,0.00000251,0.00000107,0.00000205,0.00000119
 ,0.00000679,-0.00000008,0.00000445,0.00000872,0.00000122,0.00000494,0.
 00000751,-0.00000346,-0.00000727,0.00000192,0.00000092,0.00000255,0.00
 000078,-0.00000154,-0.00000202,-0.00000081,0.00000362,0.00000359,-0.00
 000070,0.00000232,0.00000129,-0.00000506,0.00000267,0.00000662,0.00000
 408,0.00000154,-0.00000630,-0.00000768,0.00000111,0.00000125,-0.000004
 61,0.00000003,-0.00000205,-0.00000687,-0.00000153,0.00000059,-0.000005
 69,0.00000204,-0.00000151,-0.00000716,-0.00000099,-0.00000909,-0.00000
 505,-0.00000245,-0.00000460,0.00000493,0.00000477,0.00000689,-0.000010
 28,-0.00000066,-0.00000039,0.00000115,-0.00000292,-0.00000650,-0.00000
 144,-0.00000280,-0.00000100,0.00000788,-0.00000446,-0.00000596,-0.0000
 0483,0.00000048,0.00000228,-0.00001104,-0.00000219,-0.00000792,-0.0000
 0370,-0.00000004,-0.00000518,-0.00000276,0.00000252,0.00000133,-0.0000
 0526,0.00000080,0.00000363,0.00001483,-0.00000662,-0.00000092,0.000001
 32\\\@


 CHEMISTRY BEGAN BY SAYING IT WOULD CHANGE THE BASER
 METALS INTO GOLD.  BY NOT DOING THAT IT HAS DONE MUCH
 GREATER THINGS.  --  RALPH WALDO EMERSON
 Job cpu time:       5 days 19 hours  2 minutes 27.5 seconds.
 File lengths (MBytes):  RWF=   5074 Int=      0 D2E=      0 Chk=     59 Scr=      1
 Normal termination of Gaussian 09 at Tue Feb 15 05:41:25 2022.
