 Entering Gaussian System, Link 0=g09
 Input=ts_diels_water_ma2.com
 Output=ts_diels_water_ma2.log
 Initial command:
 /apps/applications/gaussian/G09.D01/2/default/g09/l1.exe "/nobackup/pmmass/Temp/Gau-191497.inp" -scrdir="/nobackup/pmmass/Temp/"
 Entering Link 1 = /apps/applications/gaussian/G09.D01/2/default/g09/l1.exe PID=    191498.
  
 Copyright (c) 1988,1990,1992,1993,1995,1998,2003,2009,2013,
            Gaussian, Inc.  All Rights Reserved.
  
 This is part of the Gaussian(R) 09 program.  It is based on
 the Gaussian(R) 03 system (copyright 2003, Gaussian, Inc.),
 the Gaussian(R) 98 system (copyright 1998, Gaussian, Inc.),
 the Gaussian(R) 94 system (copyright 1995, Gaussian, Inc.),
 the Gaussian 92(TM) system (copyright 1992, Gaussian, Inc.),
 the Gaussian 90(TM) system (copyright 1990, Gaussian, Inc.),
 the Gaussian 88(TM) system (copyright 1988, Gaussian, Inc.),
 the Gaussian 86(TM) system (copyright 1986, Carnegie Mellon
 University), and the Gaussian 82(TM) system (copyright 1983,
 Carnegie Mellon University). Gaussian is a federally registered
 trademark of Gaussian, Inc.
  
 This software contains proprietary and confidential information,
 including trade secrets, belonging to Gaussian, Inc.
  
 This software is provided under written license and may be
 used, copied, transmitted, or stored only in accord with that
 written license.
  
 The following legend is applicable only to US Government
 contracts under FAR:
  
                    RESTRICTED RIGHTS LEGEND
  
 Use, reproduction and disclosure by the US Government is
 subject to restrictions as set forth in subparagraphs (a)
 and (c) of the Commercial Computer Software - Restricted
 Rights clause in FAR 52.227-19.
  
 Gaussian, Inc.
 340 Quinnipiac St., Bldg. 40, Wallingford CT 06492
  
  
 ---------------------------------------------------------------
 Warning -- This program may not be used in any manner that
 competes with the business of Gaussian, Inc. or will provide
 assistance to any competitor of Gaussian, Inc.  The licensee
 of this program is prohibited from giving any competitor of
 Gaussian, Inc. access to this program.  By using this program,
 the user acknowledges that Gaussian, Inc. is engaged in the
 business of creating and licensing software in the field of
 computational chemistry and represents and warrants to the
 licensee that it is not a competitor of Gaussian, Inc. and that
 it will not use this program in any manner prohibited above.
 ---------------------------------------------------------------
  

 Cite this work as:
 Gaussian 09, Revision D.01,
 M. J. Frisch, G. W. Trucks, H. B. Schlegel, G. E. Scuseria, 
 M. A. Robb, J. R. Cheeseman, G. Scalmani, V. Barone, B. Mennucci, 
 G. A. Petersson, H. Nakatsuji, M. Caricato, X. Li, H. P. Hratchian, 
 A. F. Izmaylov, J. Bloino, G. Zheng, J. L. Sonnenberg, M. Hada, 
 M. Ehara, K. Toyota, R. Fukuda, J. Hasegawa, M. Ishida, T. Nakajima, 
 Y. Honda, O. Kitao, H. Nakai, T. Vreven, J. A. Montgomery, Jr., 
 J. E. Peralta, F. Ogliaro, M. Bearpark, J. J. Heyd, E. Brothers, 
 K. N. Kudin, V. N. Staroverov, T. Keith, R. Kobayashi, J. Normand, 
 K. Raghavachari, A. Rendell, J. C. Burant, S. S. Iyengar, J. Tomasi, 
 M. Cossi, N. Rega, J. M. Millam, M. Klene, J. E. Knox, J. B. Cross, 
 V. Bakken, C. Adamo, J. Jaramillo, R. Gomperts, R. E. Stratmann, 
 O. Yazyev, A. J. Austin, R. Cammi, C. Pomelli, J. W. Ochterski, 
 R. L. Martin, K. Morokuma, V. G. Zakrzewski, G. A. Voth, 
 P. Salvador, J. J. Dannenberg, S. Dapprich, A. D. Daniels, 
 O. Farkas, J. B. Foresman, J. V. Ortiz, J. Cioslowski, 
 and D. J. Fox, Gaussian, Inc., Wallingford CT, 2013.
 
 ******************************************
 Gaussian 09:  ES64L-G09RevD.01 24-Apr-2013
                11-Feb-2022 
 ******************************************
 %nprocshared=8
 Will use up to    8 processors via shared memory.
 %mem=4GB
 %NoSave
 %chk="ts_diels_water_ma2.chk"
 -------------------------------------------------------------------
 #n wB97XD/Gen scrf(smd,solvent=toluene) opt=(calcfc,ts,noeigentest)
 -------------------------------------------------------------------
 1/5=1,10=4,11=1,14=-1,18=20,26=3,38=1/1,3;
 2/9=110,12=2,17=6,18=5,40=1/2;
 3/5=7,11=2,16=1,25=1,30=1,70=32201,71=2,72=13,74=-58,140=1/1,2,3;
 4//1;
 5/5=2,38=5,53=13/2;
 8/6=4,10=90,11=11/1;
 11/6=1,8=1,9=11,15=111,16=1/1,2,10;
 10/6=1,13=1/2;
 6/7=2,8=2,9=2,10=2,28=1/1;
 7/10=1,18=20,25=1/1,2,3,16;
 1/5=1,10=4,11=1,14=-1,18=20,26=3/3(2);
 2/9=110/2;
 99//99;
 2/9=110/2;
 3/5=7,6=1,11=2,16=1,25=1,30=1,70=32205,71=1,72=13,74=-58,82=7/1,2,3;
 4/5=5,16=3,69=1/1;
 5/5=2,38=5,53=13/2;
 7//1,2,3,16;
 1/5=1,11=1,14=-1,18=20,26=3/3(-5);
 2/9=110/2;
 6/7=2,8=2,9=2,10=2,19=2,28=1/1;
 99/9=1/99;
 -----------------------------------
 ts diels alder toluene 4 h2o - opt2
 -----------------------------------
 Symbolic Z-matrix:
 Charge =  0 Multiplicity = 1
 C                     2.66301   0.77494   0.69146 
 C                     1.94847  -0.51602   0.59053 
 C                     0.59286  -0.2348    0.52145 
 C                     0.44406   1.23417   0.59869 
 H                     2.3902   -1.41166   0.99494 
 H                    -0.1986   -0.89031   0.85294 
 C                     1.98781   3.19564   0.59424 
 H                     1.67522   3.62542   1.54686 
 H                     3.05934   3.3367    0.47305 
 H                     1.46327   3.70293  -0.2149 
 N                     1.71198   1.77998   0.55169 
 O                    -0.57649   1.88661   0.69507 
 O                     3.84312   0.9848    0.8795 
 C                     1.7043   -2.00461  -1.78081 
 H                     1.94756  -3.06224  -1.78882 
 C                     0.36049  -1.64509  -1.85551 
 H                    -0.37849  -2.43718  -1.90664 
 C                     2.70822  -1.1084   -1.48518 
 H                     2.55604  -0.06361  -1.73351 
 C                     4.13333  -1.52518  -1.33458 
 H                     4.68142  -0.84718  -0.68216 
 H                     4.22183  -2.53708  -0.93932 
 H                     4.62734  -1.49402  -2.31085 
 C                    -0.072    -0.35789  -1.62343 
 H                     0.58875   0.46965  -1.85737 
 C                    -1.51914   0.02397  -1.64201 
 H                    -1.91758  -0.04525  -2.6588 
 H                    -1.64119   1.0475   -1.29685 
 C                    -3.39545  -0.55204  -0.23644 
 C                    -4.05192   0.73881  -0.60503 
 H                    -4.14722   0.83184  -1.68783 
 H                    -5.03258   0.78904  -0.14001 
 H                    -3.44664   1.57908  -0.25644 
 O                    -2.24146  -0.88107  -0.80155 
 O                    -3.85817  -1.34029   0.56324 
 H                     4.7847   -0.4829    1.64604 
 H                    -2.11442   4.46396  -0.80502 
 H                    -2.32846  -2.39663   1.24493 
 H                    -5.56269  -0.96735   1.32817 
 O                    -1.49891  -2.72531   1.6219 
 H                    -1.7103   -2.98841   2.51914 
 O                    -6.42489  -0.64133   1.62744 
 H                    -6.36036  -0.58906   2.5821 
 O                    -1.68416   3.67857  -1.14688 
 H                    -1.27517   3.24706  -0.3827 
 O                     5.14144  -1.27583   2.07436 
 H                     5.50632  -0.97045   2.90635 
 
 Add virtual bond connecting atoms H45        and O12        Dist= 3.54D+00.
 Add virtual bond connecting atoms H36        and O13        Dist= 3.60D+00.
 Add virtual bond connecting atoms H39        and O35        Dist= 3.60D+00.
 Add virtual bond connecting atoms H38        and O35        Dist= 3.74D+00.
 Add virtual bond connecting atoms C18        and C2         Dist= 4.32D+00.
 Add virtual bond connecting atoms H21        and H36        Dist= 4.46D+00.
 Add virtual bond connecting atoms C24        and C3         Dist= 4.25D+00.
 Add virtual bond connecting atoms O40        and H6         Dist= 4.49D+00.

 GradGradGradGradGradGradGradGradGradGradGradGradGradGradGradGradGradGrad
 Berny optimization.
 Initialization pass.
                           ----------------------------
                           !    Initial Parameters    !
                           ! (Angstroms and Degrees)  !
 --------------------------                            --------------------------
 ! Name  Definition              Value          Derivative Info.                !
 --------------------------------------------------------------------------------
 ! R1    R(1,2)                  1.479          calculate D2E/DX2 analytically  !
 ! R2    R(1,11)                 1.3907         calculate D2E/DX2 analytically  !
 ! R3    R(1,13)                 1.2133         calculate D2E/DX2 analytically  !
 ! R4    R(2,3)                  1.3862         calculate D2E/DX2 analytically  !
 ! R5    R(2,5)                  1.0774         calculate D2E/DX2 analytically  !
 ! R6    R(2,18)                 2.2884         calculate D2E/DX2 analytically  !
 ! R7    R(3,4)                  1.4785         calculate D2E/DX2 analytically  !
 ! R8    R(3,6)                  1.0798         calculate D2E/DX2 analytically  !
 ! R9    R(3,24)                 2.2489         calculate D2E/DX2 analytically  !
 ! R10   R(4,11)                 1.3812         calculate D2E/DX2 analytically  !
 ! R11   R(4,12)                 1.2151         calculate D2E/DX2 analytically  !
 ! R12   R(6,40)                 2.3768         calculate D2E/DX2 analytically  !
 ! R13   R(7,8)                  1.0908         calculate D2E/DX2 analytically  !
 ! R14   R(7,9)                  1.0875         calculate D2E/DX2 analytically  !
 ! R15   R(7,10)                 1.0896         calculate D2E/DX2 analytically  !
 ! R16   R(7,11)                 1.4429         calculate D2E/DX2 analytically  !
 ! R17   R(12,45)                1.871          calculate D2E/DX2 analytically  !
 ! R18   R(13,36)                1.9048         calculate D2E/DX2 analytically  !
 ! R19   R(14,15)                1.0853         calculate D2E/DX2 analytically  !
 ! R20   R(14,16)                1.3931         calculate D2E/DX2 analytically  !
 ! R21   R(14,18)                1.3778         calculate D2E/DX2 analytically  !
 ! R22   R(16,17)                1.0845         calculate D2E/DX2 analytically  !
 ! R23   R(16,24)                1.3776         calculate D2E/DX2 analytically  !
 ! R24   R(18,19)                1.0846         calculate D2E/DX2 analytically  !
 ! R25   R(18,20)                1.4924         calculate D2E/DX2 analytically  !
 ! R26   R(20,21)                1.0889         calculate D2E/DX2 analytically  !
 ! R27   R(20,22)                1.09           calculate D2E/DX2 analytically  !
 ! R28   R(20,23)                1.0946         calculate D2E/DX2 analytically  !
 ! R29   R(21,36)                2.3588         calculate D2E/DX2 analytically  !
 ! R30   R(24,25)                1.0845         calculate D2E/DX2 analytically  !
 ! R31   R(24,26)                1.4968         calculate D2E/DX2 analytically  !
 ! R32   R(26,27)                1.0943         calculate D2E/DX2 analytically  !
 ! R33   R(26,28)                1.087          calculate D2E/DX2 analytically  !
 ! R34   R(26,34)                1.4308         calculate D2E/DX2 analytically  !
 ! R35   R(29,30)                1.4944         calculate D2E/DX2 analytically  !
 ! R36   R(29,34)                1.3264         calculate D2E/DX2 analytically  !
 ! R37   R(29,35)                1.2145         calculate D2E/DX2 analytically  !
 ! R38   R(30,31)                1.091          calculate D2E/DX2 analytically  !
 ! R39   R(30,32)                1.0865         calculate D2E/DX2 analytically  !
 ! R40   R(30,33)                1.0927         calculate D2E/DX2 analytically  !
 ! R41   R(35,38)                1.98           calculate D2E/DX2 analytically  !
 ! R42   R(35,39)                1.9051         calculate D2E/DX2 analytically  !
 ! R43   R(36,46)                0.9693         calculate D2E/DX2 analytically  !
 ! R44   R(37,44)                0.9586         calculate D2E/DX2 analytically  !
 ! R45   R(38,40)                0.9687         calculate D2E/DX2 analytically  !
 ! R46   R(39,42)                0.9691         calculate D2E/DX2 analytically  !
 ! R47   R(40,41)                0.9586         calculate D2E/DX2 analytically  !
 ! R48   R(42,43)                0.9583         calculate D2E/DX2 analytically  !
 ! R49   R(44,45)                0.9682         calculate D2E/DX2 analytically  !
 ! R50   R(46,47)                0.9584         calculate D2E/DX2 analytically  !
 ! A1    A(2,1,11)             107.0715         calculate D2E/DX2 analytically  !
 ! A2    A(2,1,13)             129.1596         calculate D2E/DX2 analytically  !
 ! A3    A(11,1,13)            123.7602         calculate D2E/DX2 analytically  !
 ! A4    A(1,2,3)              107.3852         calculate D2E/DX2 analytically  !
 ! A5    A(1,2,5)              120.1267         calculate D2E/DX2 analytically  !
 ! A6    A(1,2,18)              97.3226         calculate D2E/DX2 analytically  !
 ! A7    A(3,2,5)              126.0357         calculate D2E/DX2 analytically  !
 ! A8    A(3,2,18)             109.3897         calculate D2E/DX2 analytically  !
 ! A9    A(5,2,18)              89.3789         calculate D2E/DX2 analytically  !
 ! A10   A(2,3,4)              107.3004         calculate D2E/DX2 analytically  !
 ! A11   A(2,3,6)              125.3336         calculate D2E/DX2 analytically  !
 ! A12   A(2,3,24)             108.998          calculate D2E/DX2 analytically  !
 ! A13   A(4,3,6)              120.8866         calculate D2E/DX2 analytically  !
 ! A14   A(4,3,24)              94.2697         calculate D2E/DX2 analytically  !
 ! A15   A(6,3,24)              92.4571         calculate D2E/DX2 analytically  !
 ! A16   A(3,4,11)             107.3648         calculate D2E/DX2 analytically  !
 ! A17   A(3,4,12)             128.4731         calculate D2E/DX2 analytically  !
 ! A18   A(11,4,12)            124.1605         calculate D2E/DX2 analytically  !
 ! A19   A(8,7,9)              109.181          calculate D2E/DX2 analytically  !
 ! A20   A(8,7,10)             109.0949         calculate D2E/DX2 analytically  !
 ! A21   A(8,7,11)             110.9484         calculate D2E/DX2 analytically  !
 ! A22   A(9,7,10)             109.3405         calculate D2E/DX2 analytically  !
 ! A23   A(9,7,11)             108.1989         calculate D2E/DX2 analytically  !
 ! A24   A(10,7,11)            110.0513         calculate D2E/DX2 analytically  !
 ! A25   A(1,11,4)             109.8009         calculate D2E/DX2 analytically  !
 ! A26   A(1,11,7)             125.1235         calculate D2E/DX2 analytically  !
 ! A27   A(4,11,7)             124.2071         calculate D2E/DX2 analytically  !
 ! A28   A(4,12,45)            131.1759         calculate D2E/DX2 analytically  !
 ! A29   A(1,13,36)            114.1982         calculate D2E/DX2 analytically  !
 ! A30   A(15,14,16)           117.8609         calculate D2E/DX2 analytically  !
 ! A31   A(15,14,18)           118.1735         calculate D2E/DX2 analytically  !
 ! A32   A(16,14,18)           123.1267         calculate D2E/DX2 analytically  !
 ! A33   A(14,16,17)           118.1217         calculate D2E/DX2 analytically  !
 ! A34   A(14,16,24)           122.3404         calculate D2E/DX2 analytically  !
 ! A35   A(17,16,24)           118.4551         calculate D2E/DX2 analytically  !
 ! A36   A(2,18,14)             96.9552         calculate D2E/DX2 analytically  !
 ! A37   A(2,18,19)             84.9364         calculate D2E/DX2 analytically  !
 ! A38   A(2,18,20)            107.3248         calculate D2E/DX2 analytically  !
 ! A39   A(14,18,19)           118.3725         calculate D2E/DX2 analytically  !
 ! A40   A(14,18,20)           122.3955         calculate D2E/DX2 analytically  !
 ! A41   A(19,18,20)           115.2196         calculate D2E/DX2 analytically  !
 ! A42   A(18,20,21)           111.5438         calculate D2E/DX2 analytically  !
 ! A43   A(18,20,22)           111.925          calculate D2E/DX2 analytically  !
 ! A44   A(18,20,23)           109.4518         calculate D2E/DX2 analytically  !
 ! A45   A(21,20,22)           108.6572         calculate D2E/DX2 analytically  !
 ! A46   A(21,20,23)           106.8276         calculate D2E/DX2 analytically  !
 ! A47   A(22,20,23)           108.2536         calculate D2E/DX2 analytically  !
 ! A48   A(20,21,36)           135.2001         calculate D2E/DX2 analytically  !
 ! A49   A(3,24,16)             96.8344         calculate D2E/DX2 analytically  !
 ! A50   A(3,24,25)             89.0745         calculate D2E/DX2 analytically  !
 ! A51   A(3,24,26)            106.4813         calculate D2E/DX2 analytically  !
 ! A52   A(16,24,25)           119.0367         calculate D2E/DX2 analytically  !
 ! A53   A(16,24,26)           122.6711         calculate D2E/DX2 analytically  !
 ! A54   A(25,24,26)           113.0608         calculate D2E/DX2 analytically  !
 ! A55   A(24,26,27)           110.3306         calculate D2E/DX2 analytically  !
 ! A56   A(24,26,28)           110.1713         calculate D2E/DX2 analytically  !
 ! A57   A(24,26,34)           108.6281         calculate D2E/DX2 analytically  !
 ! A58   A(27,26,28)           108.2838         calculate D2E/DX2 analytically  !
 ! A59   A(27,26,34)           108.7829         calculate D2E/DX2 analytically  !
 ! A60   A(28,26,34)           110.6334         calculate D2E/DX2 analytically  !
 ! A61   A(30,29,34)           119.4324         calculate D2E/DX2 analytically  !
 ! A62   A(30,29,35)           123.7586         calculate D2E/DX2 analytically  !
 ! A63   A(34,29,35)           116.8089         calculate D2E/DX2 analytically  !
 ! A64   A(29,30,31)           110.9066         calculate D2E/DX2 analytically  !
 ! A65   A(29,30,32)           109.3219         calculate D2E/DX2 analytically  !
 ! A66   A(29,30,33)           110.0135         calculate D2E/DX2 analytically  !
 ! A67   A(31,30,32)           109.9996         calculate D2E/DX2 analytically  !
 ! A68   A(31,30,33)           107.4247         calculate D2E/DX2 analytically  !
 ! A69   A(32,30,33)           109.1409         calculate D2E/DX2 analytically  !
 ! A70   A(26,34,29)           122.1793         calculate D2E/DX2 analytically  !
 ! A71   A(29,35,38)           106.1771         calculate D2E/DX2 analytically  !
 ! A72   A(29,35,39)           118.5682         calculate D2E/DX2 analytically  !
 ! A73   A(38,35,39)           131.1026         calculate D2E/DX2 analytically  !
 ! A74   A(13,36,21)            72.5512         calculate D2E/DX2 analytically  !
 ! A75   A(21,36,46)           109.0231         calculate D2E/DX2 analytically  !
 ! A76   A(6,40,38)             94.6256         calculate D2E/DX2 analytically  !
 ! A77   A(6,40,41)            129.4451         calculate D2E/DX2 analytically  !
 ! A78   A(38,40,41)           105.5769         calculate D2E/DX2 analytically  !
 ! A79   A(39,42,43)           105.4309         calculate D2E/DX2 analytically  !
 ! A80   A(37,44,45)           105.8598         calculate D2E/DX2 analytically  !
 ! A81   A(12,45,44)           159.4653         calculate D2E/DX2 analytically  !
 ! A82   A(36,46,47)           105.252          calculate D2E/DX2 analytically  !
 ! A83   L(3,6,40,15,-1)       169.699          calculate D2E/DX2 analytically  !
 ! A84   L(13,36,46,21,-1)     181.5744         calculate D2E/DX2 analytically  !
 ! A85   L(35,38,40,4,-1)      168.6489         calculate D2E/DX2 analytically  !
 ! A86   L(35,39,42,32,-1)     170.3333         calculate D2E/DX2 analytically  !
 ! A87   L(3,6,40,15,-2)       169.8955         calculate D2E/DX2 analytically  !
 ! A88   L(13,36,46,21,-2)     188.3252         calculate D2E/DX2 analytically  !
 ! A89   L(35,38,40,4,-2)      174.9471         calculate D2E/DX2 analytically  !
 ! A90   L(35,39,42,32,-2)     180.1167         calculate D2E/DX2 analytically  !
 ! D1    D(11,1,2,3)            -5.4887         calculate D2E/DX2 analytically  !
 ! D2    D(11,1,2,5)          -158.9224         calculate D2E/DX2 analytically  !
 ! D3    D(11,1,2,18)          107.5267         calculate D2E/DX2 analytically  !
 ! D4    D(13,1,2,3)           173.4558         calculate D2E/DX2 analytically  !
 ! D5    D(13,1,2,5)            20.0221         calculate D2E/DX2 analytically  !
 ! D6    D(13,1,2,18)          -73.5288         calculate D2E/DX2 analytically  !
 ! D7    D(2,1,11,4)            10.0691         calculate D2E/DX2 analytically  !
 ! D8    D(2,1,11,7)           179.7396         calculate D2E/DX2 analytically  !
 ! D9    D(13,1,11,4)         -168.9465         calculate D2E/DX2 analytically  !
 ! D10   D(13,1,11,7)            0.724          calculate D2E/DX2 analytically  !
 ! D11   D(2,1,13,36)          -19.875          calculate D2E/DX2 analytically  !
 ! D12   D(11,1,13,36)         158.9113         calculate D2E/DX2 analytically  !
 ! D13   D(1,2,3,4)             -0.8238         calculate D2E/DX2 analytically  !
 ! D14   D(1,2,3,6)           -152.4513         calculate D2E/DX2 analytically  !
 ! D15   D(1,2,3,24)           100.1119         calculate D2E/DX2 analytically  !
 ! D16   D(5,2,3,4)            150.5983         calculate D2E/DX2 analytically  !
 ! D17   D(5,2,3,6)             -1.0292         calculate D2E/DX2 analytically  !
 ! D18   D(5,2,3,24)          -108.4659         calculate D2E/DX2 analytically  !
 ! D19   D(18,2,3,4)          -105.4069         calculate D2E/DX2 analytically  !
 ! D20   D(18,2,3,6)           102.9656         calculate D2E/DX2 analytically  !
 ! D21   D(18,2,3,24)           -4.4712         calculate D2E/DX2 analytically  !
 ! D22   D(1,2,18,14)         -158.974          calculate D2E/DX2 analytically  !
 ! D23   D(1,2,18,19)          -40.9532         calculate D2E/DX2 analytically  !
 ! D24   D(1,2,18,20)           73.9096         calculate D2E/DX2 analytically  !
 ! D25   D(3,2,18,14)          -47.5915         calculate D2E/DX2 analytically  !
 ! D26   D(3,2,18,19)           70.4292         calculate D2E/DX2 analytically  !
 ! D27   D(3,2,18,20)         -174.708          calculate D2E/DX2 analytically  !
 ! D28   D(5,2,18,14)           80.7161         calculate D2E/DX2 analytically  !
 ! D29   D(5,2,18,19)         -161.2632         calculate D2E/DX2 analytically  !
 ! D30   D(5,2,18,20)          -46.4003         calculate D2E/DX2 analytically  !
 ! D31   D(2,3,4,11)             6.9156         calculate D2E/DX2 analytically  !
 ! D32   D(2,3,4,12)          -172.6357         calculate D2E/DX2 analytically  !
 ! D33   D(6,3,4,11)           160.0608         calculate D2E/DX2 analytically  !
 ! D34   D(6,3,4,12)           -19.4905         calculate D2E/DX2 analytically  !
 ! D35   D(24,3,4,11)         -104.5021         calculate D2E/DX2 analytically  !
 ! D36   D(24,3,4,12)           75.9466         calculate D2E/DX2 analytically  !
 ! D37   D(2,3,40,38)         -164.8963         calculate D2E/DX2 analytically  !
 ! D38   D(2,3,40,41)           76.6814         calculate D2E/DX2 analytically  !
 ! D39   D(4,3,40,38)           48.6954         calculate D2E/DX2 analytically  !
 ! D40   D(4,3,40,41)          -69.727          calculate D2E/DX2 analytically  !
 ! D41   D(24,3,40,38)         -51.0817         calculate D2E/DX2 analytically  !
 ! D42   D(24,3,40,41)        -169.5041         calculate D2E/DX2 analytically  !
 ! D43   D(2,3,24,16)           55.8569         calculate D2E/DX2 analytically  !
 ! D44   D(2,3,24,25)          -63.2848         calculate D2E/DX2 analytically  !
 ! D45   D(2,3,24,26)         -177.0987         calculate D2E/DX2 analytically  !
 ! D46   D(4,3,24,16)          165.8003         calculate D2E/DX2 analytically  !
 ! D47   D(4,3,24,25)           46.6586         calculate D2E/DX2 analytically  !
 ! D48   D(4,3,24,26)          -67.1552         calculate D2E/DX2 analytically  !
 ! D49   D(6,3,24,16)          -72.9715         calculate D2E/DX2 analytically  !
 ! D50   D(6,3,24,25)          167.8867         calculate D2E/DX2 analytically  !
 ! D51   D(6,3,24,26)           54.0729         calculate D2E/DX2 analytically  !
 ! D52   D(3,4,11,1)           -10.5931         calculate D2E/DX2 analytically  !
 ! D53   D(3,4,11,7)           179.6216         calculate D2E/DX2 analytically  !
 ! D54   D(12,4,11,1)          168.9824         calculate D2E/DX2 analytically  !
 ! D55   D(12,4,11,7)           -0.803          calculate D2E/DX2 analytically  !
 ! D56   D(3,4,12,45)         -122.9282         calculate D2E/DX2 analytically  !
 ! D57   D(11,4,12,45)          57.5894         calculate D2E/DX2 analytically  !
 ! D58   D(8,7,11,1)          -104.1881         calculate D2E/DX2 analytically  !
 ! D59   D(8,7,11,4)            64.0412         calculate D2E/DX2 analytically  !
 ! D60   D(9,7,11,1)            15.5602         calculate D2E/DX2 analytically  !
 ! D61   D(9,7,11,4)          -176.2105         calculate D2E/DX2 analytically  !
 ! D62   D(10,7,11,1)          134.9737         calculate D2E/DX2 analytically  !
 ! D63   D(10,7,11,4)          -56.797          calculate D2E/DX2 analytically  !
 ! D64   D(4,12,45,44)          71.2055         calculate D2E/DX2 analytically  !
 ! D65   D(1,13,36,21)          83.4429         calculate D2E/DX2 analytically  !
 ! D66   D(1,13,46,47)        -120.7348         calculate D2E/DX2 analytically  !
 ! D67   D(15,14,16,17)          0.6827         calculate D2E/DX2 analytically  !
 ! D68   D(15,14,16,24)        168.5918         calculate D2E/DX2 analytically  !
 ! D69   D(18,14,16,17)       -168.6242         calculate D2E/DX2 analytically  !
 ! D70   D(18,14,16,24)         -0.7151         calculate D2E/DX2 analytically  !
 ! D71   D(15,14,18,2)        -108.4003         calculate D2E/DX2 analytically  !
 ! D72   D(15,14,18,19)        163.6153         calculate D2E/DX2 analytically  !
 ! D73   D(15,14,18,20)          7.2384         calculate D2E/DX2 analytically  !
 ! D74   D(16,14,18,2)          60.8752         calculate D2E/DX2 analytically  !
 ! D75   D(16,14,18,19)        -27.1092         calculate D2E/DX2 analytically  !
 ! D76   D(16,14,18,20)        176.5139         calculate D2E/DX2 analytically  !
 ! D77   D(14,16,24,3)         -62.6153         calculate D2E/DX2 analytically  !
 ! D78   D(14,16,24,25)         30.1318         calculate D2E/DX2 analytically  !
 ! D79   D(14,16,24,26)       -177.2163         calculate D2E/DX2 analytically  !
 ! D80   D(17,16,24,3)         105.2552         calculate D2E/DX2 analytically  !
 ! D81   D(17,16,24,25)       -161.9976         calculate D2E/DX2 analytically  !
 ! D82   D(17,16,24,26)         -9.3458         calculate D2E/DX2 analytically  !
 ! D83   D(2,18,20,21)         -43.2372         calculate D2E/DX2 analytically  !
 ! D84   D(2,18,20,22)          78.745          calculate D2E/DX2 analytically  !
 ! D85   D(2,18,20,23)        -161.2394         calculate D2E/DX2 analytically  !
 ! D86   D(14,18,20,21)       -153.6118         calculate D2E/DX2 analytically  !
 ! D87   D(14,18,20,22)        -31.6297         calculate D2E/DX2 analytically  !
 ! D88   D(14,18,20,23)         88.3859         calculate D2E/DX2 analytically  !
 ! D89   D(19,18,20,21)         49.326          calculate D2E/DX2 analytically  !
 ! D90   D(19,18,20,22)        171.3082         calculate D2E/DX2 analytically  !
 ! D91   D(19,18,20,23)        -68.6763         calculate D2E/DX2 analytically  !
 ! D92   D(18,20,21,36)         75.6642         calculate D2E/DX2 analytically  !
 ! D93   D(22,20,21,36)        -48.1848         calculate D2E/DX2 analytically  !
 ! D94   D(23,20,21,36)       -164.7685         calculate D2E/DX2 analytically  !
 ! D95   D(20,21,36,13)       -107.5419         calculate D2E/DX2 analytically  !
 ! D96   D(20,21,36,46)         64.1329         calculate D2E/DX2 analytically  !
 ! D97   D(3,24,26,27)        -178.2355         calculate D2E/DX2 analytically  !
 ! D98   D(3,24,26,28)          62.2569         calculate D2E/DX2 analytically  !
 ! D99   D(3,24,26,34)         -59.0753         calculate D2E/DX2 analytically  !
 ! D100  D(16,24,26,27)        -68.532          calculate D2E/DX2 analytically  !
 ! D101  D(16,24,26,28)        171.9603         calculate D2E/DX2 analytically  !
 ! D102  D(16,24,26,34)         50.6282         calculate D2E/DX2 analytically  !
 ! D103  D(25,24,26,27)         85.5848         calculate D2E/DX2 analytically  !
 ! D104  D(25,24,26,28)        -33.9229         calculate D2E/DX2 analytically  !
 ! D105  D(25,24,26,34)       -155.255          calculate D2E/DX2 analytically  !
 ! D106  D(24,26,34,29)        155.3656         calculate D2E/DX2 analytically  !
 ! D107  D(27,26,34,29)        -84.508          calculate D2E/DX2 analytically  !
 ! D108  D(28,26,34,29)         34.3175         calculate D2E/DX2 analytically  !
 ! D109  D(34,29,30,31)         51.9854         calculate D2E/DX2 analytically  !
 ! D110  D(34,29,30,32)        173.4456         calculate D2E/DX2 analytically  !
 ! D111  D(34,29,30,33)        -66.7193         calculate D2E/DX2 analytically  !
 ! D112  D(35,29,30,31)       -127.9204         calculate D2E/DX2 analytically  !
 ! D113  D(35,29,30,32)         -6.4602         calculate D2E/DX2 analytically  !
 ! D114  D(35,29,30,33)        113.3749         calculate D2E/DX2 analytically  !
 ! D115  D(30,29,34,26)          7.2765         calculate D2E/DX2 analytically  !
 ! D116  D(35,29,34,26)       -172.8113         calculate D2E/DX2 analytically  !
 ! D117  D(30,29,35,38)       -156.1572         calculate D2E/DX2 analytically  !
 ! D118  D(30,29,35,39)          3.4559         calculate D2E/DX2 analytically  !
 ! D119  D(34,29,35,38)         23.9347         calculate D2E/DX2 analytically  !
 ! D120  D(34,29,35,39)       -176.4521         calculate D2E/DX2 analytically  !
 ! D121  D(29,35,40,6)          19.8696         calculate D2E/DX2 analytically  !
 ! D122  D(29,35,40,41)        150.556          calculate D2E/DX2 analytically  !
 ! D123  D(39,35,40,6)        -131.7629         calculate D2E/DX2 analytically  !
 ! D124  D(39,35,40,41)         -1.0765         calculate D2E/DX2 analytically  !
 ! D125  D(29,35,42,43)       -122.2733         calculate D2E/DX2 analytically  !
 ! D126  D(38,35,42,43)         29.9338         calculate D2E/DX2 analytically  !
 ! D127  D(21,36,46,47)        156.5792         calculate D2E/DX2 analytically  !
 ! D128  D(37,44,45,12)        153.523          calculate D2E/DX2 analytically  !
 --------------------------------------------------------------------------------
 Trust Radius=3.00D-01 FncErr=1.00D-07 GrdErr=1.00D-06
 Number of steps in this run=    278 maximum allowed number of steps=    282.
 Search for a saddle point of order  1.
 GradGradGradGradGradGradGradGradGradGradGradGradGradGradGradGradGradGrad

                          Input orientation:                          
 ---------------------------------------------------------------------
 Center     Atomic      Atomic             Coordinates (Angstroms)
 Number     Number       Type             X           Y           Z
 ---------------------------------------------------------------------
      1          6           0        2.663010    0.774940    0.691460
      2          6           0        1.948470   -0.516020    0.590530
      3          6           0        0.592860   -0.234800    0.521450
      4          6           0        0.444060    1.234170    0.598690
      5          1           0        2.390200   -1.411660    0.994940
      6          1           0       -0.198600   -0.890310    0.852940
      7          6           0        1.987810    3.195640    0.594240
      8          1           0        1.675220    3.625420    1.546860
      9          1           0        3.059340    3.336700    0.473050
     10          1           0        1.463270    3.702930   -0.214900
     11          7           0        1.711980    1.779980    0.551690
     12          8           0       -0.576490    1.886610    0.695070
     13          8           0        3.843120    0.984800    0.879500
     14          6           0        1.704300   -2.004610   -1.780810
     15          1           0        1.947560   -3.062240   -1.788820
     16          6           0        0.360490   -1.645090   -1.855510
     17          1           0       -0.378490   -2.437180   -1.906640
     18          6           0        2.708220   -1.108400   -1.485180
     19          1           0        2.556040   -0.063610   -1.733510
     20          6           0        4.133330   -1.525180   -1.334580
     21          1           0        4.681420   -0.847180   -0.682160
     22          1           0        4.221830   -2.537080   -0.939320
     23          1           0        4.627340   -1.494020   -2.310850
     24          6           0       -0.072000   -0.357890   -1.623430
     25          1           0        0.588750    0.469650   -1.857370
     26          6           0       -1.519140    0.023970   -1.642010
     27          1           0       -1.917580   -0.045250   -2.658800
     28          1           0       -1.641190    1.047500   -1.296850
     29          6           0       -3.395450   -0.552040   -0.236440
     30          6           0       -4.051920    0.738810   -0.605030
     31          1           0       -4.147220    0.831840   -1.687830
     32          1           0       -5.032580    0.789040   -0.140010
     33          1           0       -3.446640    1.579080   -0.256440
     34          8           0       -2.241460   -0.881070   -0.801550
     35          8           0       -3.858170   -1.340290    0.563240
     36          1           0        4.784700   -0.482900    1.646040
     37          1           0       -2.114420    4.463960   -0.805020
     38          1           0       -2.328460   -2.396630    1.244930
     39          1           0       -5.562690   -0.967350    1.328170
     40          8           0       -1.498910   -2.725310    1.621900
     41          1           0       -1.710300   -2.988410    2.519140
     42          8           0       -6.424890   -0.641330    1.627440
     43          1           0       -6.360360   -0.589060    2.582100
     44          8           0       -1.684160    3.678570   -1.146880
     45          1           0       -1.275170    3.247060   -0.382700
     46          8           0        5.141440   -1.275830    2.074360
     47          1           0        5.506320   -0.970450    2.906350
 ---------------------------------------------------------------------
                    Distance matrix (angstroms):
                    1          2          3          4          5
     1  C    0.000000
     2  C    1.478963   0.000000
     3  C    2.309545   1.386195   0.000000
     4  C    2.267871   2.307917   1.478506   0.000000
     5  H    2.224353   1.077425   2.199914   3.308306   0.000000
     6  H    3.314807   2.195191   1.079809   2.234070   2.644590
     7  C    2.514982   3.711870   3.703931   2.496107   4.642165
     8  H    3.135710   4.259197   4.138148   2.851817   5.117420
     9  H    2.601422   4.011394   4.340677   3.357992   4.823592
    10  H    3.291503   4.322462   4.099456   2.792041   5.336848
    11  N    1.390719   2.308474   2.304926   1.381209   3.292874
    12  O    3.424936   3.486973   2.428560   1.215109   4.446319
    13  O    1.213285   2.434268   3.489959   3.419744   2.804875
    14  C    3.841503   2.810476   3.109329   4.211879   2.920075
    15  H    4.624674   3.484902   3.894480   5.140025   3.266445
    16  C    4.200619   3.127234   2.773599   3.784207   3.507033
    17  H    5.130162   3.916817   3.419009   4.520186   4.139626
    18  C    2.878676   2.288385   3.043762   3.867372   2.518749
    19  H    2.568090   2.444377   2.994700   3.403505   3.047816
    20  C    3.399593   3.081893   4.200578   4.996224   2.911710
    21  H    2.931226   3.032890   4.305811   4.891607   2.894994
    22  H    4.007348   3.404892   4.539137   5.555119   2.891851
    23  H    4.245072   4.068272   5.087690   5.779989   3.992471
    24  C    3.757965   3.001487   2.248933   2.781868   3.745493
    25  H    3.300347   2.968602   2.480938   2.576365   3.862670
    26  C    4.847620   4.159344   3.034479   3.215505   4.929247
    27  H    5.734000   5.072092   4.056135   4.222026   5.811528
    28  H    4.749084   4.346545   3.153012   2.824214   5.248988
    29  C    6.271109   5.407648   4.072058   4.316228   5.977373
    30  C    6.839041   6.245690   4.877587   4.680615   6.977488
    31  H    7.214117   6.645682   5.337321   5.144890   7.414068
    32  H    7.740391   7.139463   5.755984   5.544132   7.824887
    33  H    6.234820   5.849275   4.495869   3.998469   6.676764
    34  O    5.387511   4.430199   3.193957   3.694175   4.996116
    35  O    6.856853   5.864916   4.586450   5.013809   6.263672
    36  H    2.644797   3.026450   4.347158   4.783976   2.649558
    37  H    6.218694   6.576841   5.582762   4.352903   7.619342
    38  H    5.939693   4.717739   3.705542   4.613806   4.826843
    39  H    8.432266   7.560776   6.251258   6.438934   7.972259
    40  O    5.517159   4.222454   3.433531   4.527645   4.152581
    41  H    6.052194   4.818594   4.108245   5.114643   4.650100
    42  O    9.245096   8.438249   7.115989   7.194324   8.871261
    43  H    9.319669   8.544492   7.260788   7.318348   8.931296
    44  O    5.541520   5.814566   4.825206   3.681226   6.862816
    45  H    4.772259   5.049733   4.053440   2.823226   6.085762
    46  O    3.501526   3.601961   4.917810   5.526579   2.958533
    47  H    4.004564   4.269406   5.510991   5.984323   3.682168
                    6          7          8          9         10
     6  H    0.000000
     7  C    4.641369   0.000000
     8  H    4.938071   1.090829   0.000000
     9  H    5.350337   1.087548   1.775448   0.000000
    10  H    4.999995   1.089584   1.776156   1.776187   0.000000
    11  N    3.297198   1.442909   2.096989   2.060325   2.085007
    12  O    2.806957   2.880861   2.969715   3.920627   2.878834
    13  O    4.455586   2.900235   3.481097   2.512160   3.774868
    14  C    3.435016   5.723971   6.539990   5.953622   5.923359
    15  H    4.037596   6.696391   7.478351   6.877394   6.962707
    16  C    2.866701   5.664107   6.409595   6.125701   5.701670
    17  H    3.168667   6.601700   7.273205   7.128765   6.629858
    18  C    3.736840   4.834019   5.715716   4.869996   5.129562
    19  H    3.867971   4.045246   5.014540   4.084645   4.205609
    20  C    4.894274   5.532607   6.393253   5.297061   5.976290
    21  H    5.115954   5.022860   5.831802   4.633628   5.592703
    22  H    5.046211   6.340878   7.116370   6.152029   6.860916
    23  H    5.802045   6.115519   7.057309   5.791768   6.435265
    24  C    2.536120   4.667810   5.382404   5.277359   4.564129
    25  H    3.132921   3.924128   4.767398   4.444620   3.730495
    26  C    2.967239   5.230583   5.774363   6.034081   4.946328
    27  H    4.000167   6.028077   6.638494   6.783495   5.608177
    28  H    3.233848   4.621728   5.072567   5.519779   4.226062
    29  C    3.394264   6.611703   6.807571   7.569015   6.458513
    30  C    4.430325   6.629676   6.764856   7.647307   6.273399
    31  H    5.001291   6.959453   7.222750   7.929580   6.472270
    32  H    5.212823   7.457662   7.475638   8.505621   7.119862
    33  H    4.228283   5.733251   5.802831   6.778581   5.349736
    34  O    2.628821   6.037758   6.415907   6.892943   5.923026
    35  O    3.698494   7.399399   7.499613   8.350707   7.372740
    36  H    5.062437   4.739255   5.153348   4.352254   5.658283
    37  H    5.923462   4.516066   4.538266   5.447198   3.705034
    38  H    2.637984   7.094157   7.237797   7.905394   7.328912
    39  H    5.385651   8.653276   8.574888   9.674476   8.576520
    40  O    2.376832   6.947730   7.100176   7.671080   7.312360
    41  H    3.076277   7.458132   7.493318   8.181868   7.894337
    42  O    6.279214   9.303943   9.155514  10.349297   9.191838
    43  H    6.406874   9.379098   9.132585  10.420673   9.351662
    44  O    5.203925   4.092442   4.306332   5.024126   3.282605
    45  H    4.450128   3.406478   3.545583   4.419086   2.781192
    46  O    5.491495   5.668349   6.026209   5.307991   6.599826
    47  H    6.063747   5.923012   6.135761   5.519076   6.923073
                   11         12         13         14         15
    11  N    0.000000
    12  O    2.295435   0.000000
    13  O    2.298158   4.514447   0.000000
    14  C    4.445642   5.145248   4.537441   0.000000
    15  H    5.383361   6.085364   5.204960   1.085275   0.000000
    16  C    4.399118   4.456040   5.150273   1.393076   2.128744
    17  H    5.310169   5.050075   6.106923   2.130954   2.411450
    18  C    3.672067   4.951050   3.355771   1.377841   2.118559
    19  H    3.055061   4.417477   3.095733   2.120184   3.060243
    20  C    4.510547   6.159724   3.359520   2.515782   2.710439
    21  H    4.152340   6.084077   2.549055   3.377857   3.688520
    22  H    5.211474   6.727863   3.981855   2.707321   2.483898
    23  H    5.235698   6.895220   4.115566   3.014267   3.148500
    24  C    3.533302   3.266150   4.836904   2.427282   3.379273
    25  H    2.963474   3.143328   4.283312   2.715194   3.784879
    26  C    4.282059   3.133681   6.002919   3.811164   4.643733
    27  H    5.178071   4.096224   6.838584   4.210460   4.979799
    28  H    3.898381   2.409447   5.900685   4.554327   5.478241
    29  C    5.669683   3.842039   7.483588   5.522906   6.103994
    30  C    5.970308   3.884111   8.037163   6.484048   7.200215
    31  H    6.343867   4.420505   8.394052   6.503413   7.233284
    32  H    6.851971   4.664628   8.936206   7.475444   8.140841
    33  H    5.225399   3.039360   7.401630   6.457455   7.279247
    34  O    4.954002   3.559782   6.582516   4.217857   4.824945
    35  O    6.384574   4.604312   8.050834   6.072641   6.496445
    36  H    3.969866   5.938121   1.904810   4.852604   5.147875
    37  H    4.866801   3.355329   7.101721   7.574773   8.608788
    38  H    5.852334   4.660246   7.046702   5.056870   5.284981
    39  H    7.814830   5.779974   9.616728   7.971876   8.396907
    40  O    5.634962   4.793712   6.546248   4.728467   4.860523
    41  H    6.190348   5.327155   7.022485   5.578255   5.651894
    42  O    8.557373   6.439222  10.422847   8.919553   9.361066
    43  H    8.654339   6.568331  10.463598   9.277796   9.707888
    44  O    4.245415   2.798363   6.474059   6.646959   7.683749
    45  H    3.456656   1.870980   5.736537   6.197741   7.222910
    46  O    4.839183   6.678188   2.867712   5.216070   5.321305
    47  H    5.244645   7.074824   3.270682   6.123260   6.251798
                   16         17         18         19         20
    16  C    0.000000
    17  H    1.084487   0.000000
    18  C    2.436599   3.386896   0.000000
    19  H    2.708579   3.778263   1.084626   0.000000
    20  C    3.810521   4.638482   1.492422   2.187047   0.000000
    21  H    4.547950   5.443357   2.146298   2.497310   1.088916
    22  H    4.067554   4.701982   2.151768   3.086041   1.089956
    23  H    4.293736   5.109919   2.124489   2.582572   1.094587
    24  C    1.377604   2.120752   2.883054   2.646755   4.373877
    25  H    2.127024   3.063926   2.668505   2.042042   4.100817
    26  C    2.522767   2.725504   4.379204   4.077148   5.868969
    27  H    2.897303   2.942086   4.889345   4.568345   6.368458
    28  H    3.401303   3.756228   4.858059   4.363711   6.321803
    29  C    4.233584   3.930060   6.254892   6.156299   7.670426
    30  C    5.168756   5.027444   7.063026   6.751480   8.523861
    31  H    5.146139   4.993766   7.127598   6.762959   8.616718
    32  H    6.160611   5.932119   8.082682   7.800859   9.528721
    33  H    5.238944   5.316676   6.827492   6.396275   8.261644
    34  O    2.909416   2.667088   5.001836   4.955078   6.429381
    35  O    4.872407   4.405865   6.882389   6.931599   8.215837
    36  H    5.760657   6.565004   3.808879   4.069900   3.224085
    37  H    6.674519   7.200886   7.400788   6.570706   8.670906
    38  H    4.172289   3.706268   5.872068   6.178384   7.011992
    39  H    6.758640   6.284928   8.737436   8.723784  10.070463
    40  O    4.088597   3.713348   5.474330   5.897969   6.473269
    41  H    5.022971   4.654578   6.252386   6.696353   7.151238
    42  O    7.692845   7.230059   9.660241   9.606604  11.001398
    43  H    8.122648   7.703707   9.952468   9.919817  11.239850
    44  O    5.746660   6.299556   6.505577   5.685714   7.807524
    45  H    5.364484   5.952900   6.004406   5.240553   7.275453
    46  O    6.199816   6.904109   4.314964   4.759584   3.563612
    47  H    7.043438   7.742555   5.209024   5.572684   4.492028
                   21         22         23         24         25
    21  H    0.000000
    22  H    1.770061   0.000000
    23  H    1.753271   1.770171   0.000000
    24  C    4.870359   4.863523   4.883353   0.000000
    25  H    4.457029   4.804426   4.513519   1.084500   0.000000
    26  C    6.334600   6.325463   6.366385   1.496789   2.165228
    27  H    6.935200   6.845304   6.712375   2.139135   2.681250
    28  H    6.628956   6.881282   6.839736   2.131697   2.370807
    29  C    8.094542   7.902998   8.340004   3.606488   4.420986
    30  C    8.876516   8.904951   9.122769   4.252017   4.814210
    31  H    9.042973   9.052673   9.098939   4.245824   4.752824
    32  H    9.865746   9.866411  10.160658   5.303144   5.886483
    33  H    8.493135   8.730093   8.879960   4.124162   4.480869
    34  O    6.923992   6.673490   7.059328   2.378184   3.308971
    35  O    8.644002   8.305203   8.960352   4.481263   5.376833
    36  H    2.358788   3.349711   4.087065   5.855988   5.548624
    37  H    8.625934   9.443551   9.122301   5.300143   4.936505
    38  H    7.433229   6.906300   7.863932   4.180378   5.133219
    39  H   10.440194  10.165746  10.833123   6.263470   7.074804
    40  O    6.858028   6.270737   7.383328   4.262970   5.164437
    41  H    7.462391   6.881483   8.107261   5.173446   6.033046
    42  O   11.345781  11.114620  11.763885   7.141968   7.910077
    43  H   11.517071  11.321569  12.061901   7.568579   8.313837
    44  O    7.824256   8.576602   8.242909   4.372547   3.996008
    45  H    7.234186   7.998944   7.812504   3.997836   3.655524
    46  O    2.827324   3.393921   4.420630   6.457261   6.263560
    47  H    3.684163   4.346656   5.316569   7.211920   6.996386
                   26         27         28         29         30
    26  C    0.000000
    27  H    1.094261   0.000000
    28  H    1.087035   1.767881   0.000000
    29  C    2.414116   2.882493   2.600082   0.000000
    30  C    2.828657   3.064005   2.526959   1.494358   0.000000
    31  H    2.749829   2.585220   2.545498   2.141685   1.090959
    32  H    3.896870   4.091891   3.592577   2.118487   1.086490
    33  H    2.837856   3.278385   2.150507   2.131829   1.092672
    34  O    1.430810   2.062249   2.079670   1.326387   2.437293
    35  O    3.492190   3.978010   3.751863   1.214469   2.392708
    36  H    7.127874   7.977703   7.231514   8.394246   9.200312
    37  H    4.557238   4.879367   3.483969   5.208126   4.203647
    38  H    3.853404   4.575688   4.335322   2.595272   4.027859
    39  H    5.114194   5.480240   5.131132   2.705072   2.988423
    40  O    4.267559   5.067780   4.772153   3.431238   4.845328
    41  H    5.140637   5.959549   5.554739   4.045844   5.397758
    42  O    5.932816   6.248440   5.855545   3.558023   3.538318
    43  H    6.454171   6.892101   6.324172   4.090994   4.153304
    44  O    3.691678   4.025819   2.635691   4.653544   3.813408
    45  H    3.468961   4.053718   2.409918   4.353176   3.748478
    46  O    7.737197   8.587601   7.922562   8.873678   9.785488
    47  H    8.428140   9.324225   8.533810   9.449535  10.325275
                   31         32         33         34         35
    31  H    0.000000
    32  H    1.783659   0.000000
    33  H    1.760130   1.775648   0.000000
    34  O    2.711360   3.319225   2.793196   0.000000
    35  O    3.141499   2.531372   3.060058   2.165014   0.000000
    36  H    9.624055  10.059165   8.696330   7.450917   8.752530
    37  H    4.254871   4.739508   3.224637   5.346541   6.213060
    38  H    4.725673   4.402138   4.394395   2.548052   1.980042
    39  H    3.786409   2.349782   3.670553   3.946355   1.905148
    40  O    5.533640   5.286001   5.084249   3.134599   2.933453
    41  H    6.183161   5.690145   5.619670   3.968626   3.339939
    42  O    4.283576   2.666152   4.165237   4.843403   2.865156
    43  H    5.014903   3.327468   4.609545   5.338511   3.301681
    44  O    3.803047   4.535977   2.882200   4.606534   5.730601
    45  H    3.973075   4.496542   2.741055   4.260353   5.348876
    46  O   10.240876  10.614980   9.345494   7.933089   9.125822
    47  H   10.841844  11.110559   9.831523   8.589797   9.660260
                   36         37         38         39         40
    36  H    0.000000
    37  H    8.836118   0.000000
    38  H    7.377011   7.163505   0.000000
    39  H   10.363600   6.777920   3.536950   0.000000
    40  O    6.671787   7.612778   0.968654   4.437455   0.000000
    41  H    7.016047   8.170139   1.534906   4.510433   0.958617
    42  O   11.210725   7.110626   4.473045   0.969144   5.348671
    43  H   11.184804   7.418463   4.616443   1.533532   5.396225
    44  O    8.183177   0.958556   6.560787   6.538611   6.979265
    45  H    7.399352   1.537381   5.967398   6.250692   6.303783
    46  O    0.969257   9.689351   7.598918  10.734540   6.811752
    47  H    1.531934  10.068901   8.134991  11.180950   7.335025
                   41         42         43         44         45
    41  H    0.000000
    42  O    5.341467   0.000000
    43  H    5.232963   0.958265   0.000000
    44  O    7.608483   6.988055   7.347435   0.000000
    45  H    6.891379   6.758687   7.026024   0.968217   0.000000
    46  O    7.076518  11.592339  11.533467   9.028360   8.225969
    47  H    7.503446  12.004070  11.877234   9.473387   8.636773
                   46         47
    46  O    0.000000
    47  H    0.958437   0.000000
 Stoichiometry    C13H25NO8
 Framework group  C1[X(C13H25NO8)]
 Deg. of freedom   135
 Full point group                 C1      NOp   1
 Largest Abelian subgroup         C1      NOp   1
 Largest concise Abelian subgroup C1      NOp   1
                         Standard orientation:                         
 ---------------------------------------------------------------------
 Center     Atomic      Atomic             Coordinates (Angstroms)
 Number     Number       Type             X           Y           Z
 ---------------------------------------------------------------------
      1          6           0       -2.663009    0.774941   -0.691460
      2          6           0       -1.948469   -0.516019   -0.590530
      3          6           0       -0.592859   -0.234799   -0.521450
      4          6           0       -0.444059    1.234171   -0.598690
      5          1           0       -2.390199   -1.411659   -0.994940
      6          1           0        0.198601   -0.890309   -0.852940
      7          6           0       -1.987808    3.195641   -0.594240
      8          1           0       -1.675218    3.625421   -1.546860
      9          1           0       -3.059338    3.336701   -0.473050
     10          1           0       -1.463268    3.702931    0.214900
     11          7           0       -1.711979    1.779981   -0.551690
     12          8           0        0.576491    1.886610   -0.695070
     13          8           0       -3.843119    0.984801   -0.879500
     14          6           0       -1.704299   -2.004609    1.780810
     15          1           0       -1.947559   -3.062239    1.788820
     16          6           0       -0.360489   -1.645089    1.855510
     17          1           0        0.378491   -2.437180    1.906640
     18          6           0       -2.708219   -1.108399    1.485180
     19          1           0       -2.556039   -0.063609    1.733510
     20          6           0       -4.133329   -1.525179    1.334580
     21          1           0       -4.681419   -0.847179    0.682160
     22          1           0       -4.221829   -2.537079    0.939320
     23          1           0       -4.627339   -1.494019    2.310850
     24          6           0        0.072001   -0.357889    1.623430
     25          1           0       -0.588749    0.469651    1.857370
     26          6           0        1.519141    0.023970    1.642010
     27          1           0        1.917581   -0.045250    2.658800
     28          1           0        1.641191    1.047500    1.296850
     29          6           0        3.395451   -0.552040    0.236440
     30          6           0        4.051921    0.738810    0.605030
     31          1           0        4.147221    0.831840    1.687830
     32          1           0        5.032581    0.789040    0.140010
     33          1           0        3.446641    1.579080    0.256440
     34          8           0        2.241461   -0.881070    0.801550
     35          8           0        3.858171   -1.340290   -0.563240
     36          1           0       -4.784699   -0.482899   -1.646040
     37          1           0        2.114422    4.463960    0.805020
     38          1           0        2.328461   -2.396630   -1.244930
     39          1           0        5.562691   -0.967350   -1.328170
     40          8           0        1.498911   -2.725310   -1.621900
     41          1           0        1.710301   -2.988410   -2.519140
     42          8           0        6.424891   -0.641330   -1.627440
     43          1           0        6.360361   -0.589060   -2.582100
     44          8           0        1.684162    3.678570    1.146880
     45          1           0        1.275172    3.247060    0.382700
     46          8           0       -5.141439   -1.275829   -2.074360
     47          1           0       -5.506319   -0.970449   -2.906350
 ---------------------------------------------------------------------
 Rotational constants (GHZ):      0.3538035      0.1471773      0.1306292
 General basis read from cards:  (5D, 7F)
 There are  1030 symmetry adapted cartesian basis functions of A   symmetry.
 There are   920 symmetry adapted basis functions of A   symmetry.
   920 basis functions,  1410 primitive gaussians,  1030 cartesian basis functions
    87 alpha electrons       87 beta electrons
       nuclear repulsion energy      2015.0931684903 Hartrees.
 NAtoms=   47 NActive=   47 NUniq=   47 SFac= 1.00D+00 NAtFMM=   60 NAOKFM=F Big=F
 Integral buffers will be    131072 words long.
 Raffenetti 2 integral format.
 Two-electron integral symmetry is turned on.
 Nuclear repulsion after empirical dispersion term =     2015.0542150036 Hartrees.
 Force inversion solution in PCM.
 ------------------------------------------------------------------------------
 Polarizable Continuum Model (PCM)
 =================================
 Model                : PCM (using non-symmetric T matrix).
 Atomic radii         : SMD-Coulomb.
 Polarization charges : Total charges.
 Charge compensation  : None.
 Solution method      : Matrix inversion.
 Cavity type          : VdW (van der Waals Surface) (Alpha=1.000).
 Cavity algorithm     : GePol (No added spheres)
                        Default sphere list used, NSphG=   47.
                        Lebedev-Laikov grids with approx.  5.0 points / Ang**2.
                        Smoothing algorithm: Karplus/York (Gamma=1.0000).
                        Polarization charges: spherical gaussians, with
                                              point-specific exponents (IZeta= 3).
                        Self-potential: point-specific (ISelfS= 7).
                        Self-field    : sphere-specific E.n sum rule (ISelfD= 2).
 1st derivatives      : Analytical E(r).r(x)/FMM algorithm (CHGder, D1EAlg=3).
                        Cavity 1st derivative terms included.
 2nd derivatives      : Analytical E(r).r(xy)/FMM algorithm (CHGder, D2EAlg=3).
                        Cavity 2nd derivative terms included.
 Solvent              : Toluene, Eps=   2.374100 Eps(inf)=   2.238315
 ------------------------------------------------------------------------------
 ------------------------------------------------------------------------------
 Atomic radii for non-electrostatic terms: SMD-CDS.
 ------------------------------------------------------------------------------
 Nuclear repulsion after PCM non-electrostatic terms =     2015.0426937632 Hartrees.
 One-electron integrals computed using PRISM.
 NBasis=   920 RedAO= T EigKep=  1.01D-06  NBF=   920
 NBsUse=   917 1.00D-06 EigRej=  7.20D-07 NBFU=   917
 ExpMin= 3.17D-02 ExpMax= 2.70D+04 ExpMxC= 9.22D+02 IAcc=3 IRadAn=         5 AccDes= 0.00D+00
 Harris functional with IExCor= 4639 and IRadAn=       5 diagonalized for initial guess.
 HarFok:  IExCor= 4639 AccDes= 0.00D+00 IRadAn=         5 IDoV= 1 UseB2=F ITyADJ=14
 ICtDFT=  3500011 ScaDFX=  1.000000  1.000000  1.000000  1.000000
 FoFCou: FMM=F IPFlag=           0 FMFlag=      100000 FMFlg1=           0
         NFxFlg=           0 DoJE=T BraDBF=F KetDBF=T FulRan=T
         wScrn=  0.000000 ICntrl=     500 IOpCl=  0 I1Cent=   200000004 NGrid=           0
         NMat0=    1 NMatS0=      1 NMatT0=    0 NMatD0=    1 NMtDS0=    0 NMtDT0=    0
 Petite list used in FoFCou.
 Requested convergence on RMS density matrix=1.00D-08 within 128 cycles.
 Requested convergence on MAX density matrix=1.00D-06.
 Requested convergence on             energy=1.00D-06.
 No special actions if energy rises.
 Inv3:  Mode=1 IEnd=    37128972.
 Iteration    1 A*A^-1 deviation from unit magnitude is 4.66D-15 for   3491.
 Iteration    1 A*A^-1 deviation from orthogonality  is 3.30D-15 for   3504   3403.
 Iteration    1 A^-1*A deviation from unit magnitude is 4.88D-15 for   3491.
 Iteration    1 A^-1*A deviation from orthogonality  is 6.05D-15 for   1417   1404.
 Error on total polarization charges =  0.01553
 SCF Done:  E(RwB97XD) =  -1167.10266847     A.U. after   16 cycles
            NFock= 16  Conv=0.49D-08     -V/T= 2.0045
 SMD-CDS (non-electrostatic) energy       (kcal/mol) =      -7.23
 (included in total energy above)
 DoSCS=F DFT=T ScalE2(SS,OS)=  1.000000  1.000000
 Range of M.O.s used for correlation:     1   917
 NBasis=   920 NAE=    87 NBE=    87 NFC=     0 NFV=     0
 NROrb=    917 NOA=    87 NOB=    87 NVA=   830 NVB=   830

 **** Warning!!: The largest alpha MO coefficient is  0.17452715D+03

 PrsmSu:  requested number of processors reduced to:   6 ShMem   1 Linda.
 Symmetrizing basis deriv contribution to polar:
 IMax=3 JMax=2 DiffMx= 0.00D+00
 G2DrvN: will do    24 centers at a time, making    2 passes.
 Calling FoFCou, ICntrl=  3107 FMM=F I1Cent=   0 AccDes= 0.00D+00.
 Calling FoFCou, ICntrl=  3107 FMM=F I1Cent=   0 AccDes= 0.00D+00.
 NEqPCM:  Using equilibrium solvation (IEInf=0, Eps=   2.3741, EpsInf=   2.2383)
 G2PCM: DoFxE=T DoFxN=T DoGrad=T DoDP/DQ/DG/TGxP=FFFF NFrqRd=   0 IEInf=0 SqF1=F DoCFld=F IF1Alg=4.
 End of G2Drv F.D. properties file   721 does not exist.
 End of G2Drv F.D. properties file   722 does not exist.
 End of G2Drv F.D. properties file   788 does not exist.
          IDoAtm=11111111111111111111111111111111111111111111111
 NEqPCM:  Using equilibrium solvation (IEInf=0, Eps=   2.3741, EpsInf=   2.2383)
          Differentiating once with respect to nuclear coordinates.
          There are   144 degrees of freedom in the 1st order CPHF.  IDoFFX=6 NUNeed=     0.
    141 vectors produced by pass  0 Test12= 7.22D-14 1.00D-09 XBig12= 1.87D-01 1.16D-01.
 AX will form    72 AO Fock derivatives at one time.
    141 vectors produced by pass  1 Test12= 7.22D-14 1.00D-09 XBig12= 6.12D-02 5.89D-02.
    139 vectors produced by pass  2 Test12= 7.22D-14 1.00D-09 XBig12= 2.30D-03 5.70D-03.
    138 vectors produced by pass  3 Test12= 7.22D-14 1.00D-09 XBig12= 2.70D-05 4.67D-04.
    138 vectors produced by pass  4 Test12= 7.22D-14 1.00D-09 XBig12= 3.09D-07 4.57D-05.
    138 vectors produced by pass  5 Test12= 7.22D-14 1.00D-09 XBig12= 2.81D-09 3.50D-06.
    138 vectors produced by pass  6 Test12= 7.22D-14 1.00D-09 XBig12= 3.42D-11 3.83D-07.
    122 vectors produced by pass  7 Test12= 7.22D-14 1.00D-09 XBig12= 2.01D-12 8.07D-08.
     76 vectors produced by pass  8 Test12= 7.22D-14 1.00D-09 XBig12= 1.83D-13 2.66D-08.
     26 vectors produced by pass  9 Test12= 7.22D-14 1.00D-09 XBig12= 2.21D-14 1.24D-08.
     26 vectors produced by pass 10 Test12= 7.22D-14 1.00D-09 XBig12= 9.02D-14 1.88D-08.
     23 vectors produced by pass 11 Test12= 7.22D-14 1.00D-09 XBig12= 7.56D-14 1.18D-08.
     13 vectors produced by pass 12 Test12= 7.22D-14 1.00D-09 XBig12= 2.34D-14 7.81D-09.
     13 vectors produced by pass 13 Test12= 7.22D-14 1.00D-09 XBig12= 9.02D-14 1.39D-08.
     13 vectors produced by pass 14 Test12= 7.22D-14 1.00D-09 XBig12= 3.40D-14 7.93D-09.
     13 vectors produced by pass 15 Test12= 7.22D-14 1.00D-09 XBig12= 4.20D-14 9.10D-09.
     11 vectors produced by pass 16 Test12= 7.22D-14 1.00D-09 XBig12= 2.10D-14 6.23D-09.
     11 vectors produced by pass 17 Test12= 7.22D-14 1.00D-09 XBig12= 3.05D-14 9.84D-09.
     11 vectors produced by pass 18 Test12= 7.22D-14 1.00D-09 XBig12= 5.52D-14 1.19D-08.
     11 vectors produced by pass 19 Test12= 7.22D-14 1.00D-09 XBig12= 1.47D-14 6.02D-09.
     11 vectors produced by pass 20 Test12= 7.22D-14 1.00D-09 XBig12= 7.03D-14 1.19D-08.
     11 vectors produced by pass 21 Test12= 7.22D-14 1.00D-09 XBig12= 2.08D-14 8.02D-09.
     11 vectors produced by pass 22 Test12= 7.22D-14 1.00D-09 XBig12= 3.38D-14 8.40D-09.
     11 vectors produced by pass 23 Test12= 7.22D-14 1.00D-09 XBig12= 4.20D-14 8.77D-09.
     11 vectors produced by pass 24 Test12= 7.22D-14 1.00D-09 XBig12= 6.12D-14 1.20D-08.
     11 vectors produced by pass 25 Test12= 7.22D-14 1.00D-09 XBig12= 3.98D-14 8.45D-09.
     11 vectors produced by pass 26 Test12= 7.22D-14 1.00D-09 XBig12= 3.13D-14 6.87D-09.
     11 vectors produced by pass 27 Test12= 7.22D-14 1.00D-09 XBig12= 1.58D-14 6.17D-09.
     10 vectors produced by pass 28 Test12= 7.22D-14 1.00D-09 XBig12= 2.00D-14 6.20D-09.
     10 vectors produced by pass 29 Test12= 7.22D-14 1.00D-09 XBig12= 4.75D-14 9.66D-09.
     10 vectors produced by pass 30 Test12= 7.22D-14 1.00D-09 XBig12= 1.20D-14 5.34D-09.
     10 vectors produced by pass 31 Test12= 7.22D-14 1.00D-09 XBig12= 1.28D-14 4.70D-09.
     10 vectors produced by pass 32 Test12= 7.22D-14 1.00D-09 XBig12= 3.51D-14 7.70D-09.
      8 vectors produced by pass 33 Test12= 7.22D-14 1.00D-09 XBig12= 9.30D-15 3.77D-09.
      8 vectors produced by pass 34 Test12= 7.22D-14 1.00D-09 XBig12= 1.93D-14 5.96D-09.
      8 vectors produced by pass 35 Test12= 7.22D-14 1.00D-09 XBig12= 1.30D-14 4.32D-09.
      8 vectors produced by pass 36 Test12= 7.22D-14 1.00D-09 XBig12= 1.64D-14 5.47D-09.
      8 vectors produced by pass 37 Test12= 7.22D-14 1.00D-09 XBig12= 2.99D-14 8.36D-09.
      8 vectors produced by pass 38 Test12= 7.22D-14 1.00D-09 XBig12= 2.05D-14 6.61D-09.
      8 vectors produced by pass 39 Test12= 7.22D-14 1.00D-09 XBig12= 2.95D-14 8.23D-09.
      8 vectors produced by pass 40 Test12= 7.22D-14 1.00D-09 XBig12= 3.18D-14 6.80D-09.
      3 vectors produced by pass 41 Test12= 7.22D-14 1.00D-09 XBig12= 1.04D-14 4.07D-09.
      1 vectors produced by pass 42 Test12= 7.22D-14 1.00D-09 XBig12= 2.99D-15 2.21D-09.
 InvSVY:  IOpt=1 It=  1 EMax= 5.00D-16
 Solved reduced A of dimension  1548 with   144 vectors.
 End of Minotr F.D. properties file   721 does not exist.
 End of Minotr F.D. properties file   722 does not exist.
 End of Minotr F.D. properties file   788 does not exist.

 **********************************************************************

            Population analysis using the SCF density.

 **********************************************************************

 Orbital symmetries:
       Occupied  (A) (A) (A) (A) (A) (A) (A) (A) (A) (A) (A) (A)
                 (A) (A) (A) (A) (A) (A) (A) (A) (A) (A) (A) (A)
                 (A) (A) (A) (A) (A) (A) (A) (A) (A) (A) (A) (A)
                 (A) (A) (A) (A) (A) (A) (A) (A) (A) (A) (A) (A)
                 (A) (A) (A) (A) (A) (A) (A) (A) (A) (A) (A) (A)
                 (A) (A) (A) (A) (A) (A) (A) (A) (A) (A) (A) (A)
                 (A) (A) (A) (A) (A) (A) (A) (A) (A) (A) (A) (A)
                 (A) (A) (A)
       Virtual   (A) (A) (A) (A) (A) (A) (A) (A) (A) (A) (A) (A)
                 (A) (A) (A) (A) (A) (A) (A) (A) (A) (A) (A) (A)
                 (A) (A) (A) (A) (A) (A) (A) (A) (A) (A) (A) (A)
                 (A) (A) (A) (A) (A) (A) (A) (A) (A) (A) (A) (A)
                 (A) (A) (A) (A) (A) (A) (A) (A) (A) (A) (A) (A)
                 (A) (A) (A) (A) (A) (A) (A) (A) (A) (A) (A) (A)
                 (A) (A) (A) (A) (A) (A) (A) (A) (A) (A) (A) (A)
                 (A) (A) (A) (A) (A) (A) (A) (A) (A) (A) (A) (A)
                 (A) (A) (A) (A) (A) (A) (A) (A) (A) (A) (A) (A)
                 (A) (A) (A) (A) (A) (A) (A) (A) (A) (A) (A) (A)
                 (A) (A) (A) (A) (A) (A) (A) (A) (A) (A) (A) (A)
                 (A) (A) (A) (A) (A) (A) (A) (A) (A) (A) (A) (A)
                 (A) (A) (A) (A) (A) (A) (A) (A) (A) (A) (A) (A)
                 (A) (A) (A) (A) (A) (A) (A) (A) (A) (A) (A) (A)
                 (A) (A) (A) (A) (A) (A) (A) (A) (A) (A) (A) (A)
                 (A) (A) (A) (A) (A) (A) (A) (A) (A) (A) (A) (A)
                 (A) (A) (A) (A) (A) (A) (A) (A) (A) (A) (A) (A)
                 (A) (A) (A) (A) (A) (A) (A) (A) (A) (A) (A) (A)
                 (A) (A) (A) (A) (A) (A) (A) (A) (A) (A) (A) (A)
                 (A) (A) (A) (A) (A) (A) (A) (A) (A) (A) (A) (A)
                 (A) (A) (A) (A) (A) (A) (A) (A) (A) (A) (A) (A)
                 (A) (A) (A) (A) (A) (A) (A) (A) (A) (A) (A) (A)
                 (A) (A) (A) (A) (A) (A) (A) (A) (A) (A) (A) (A)
                 (A) (A) (A) (A) (A) (A) (A) (A) (A) (A) (A) (A)
                 (A) (A) (A) (A) (A) (A) (A) (A) (A) (A) (A) (A)
                 (A) (A) (A) (A) (A) (A) (A) (A) (A) (A) (A) (A)
                 (A) (A) (A) (A) (A) (A) (A) (A) (A) (A) (A) (A)
                 (A) (A) (A) (A) (A) (A) (A) (A) (A) (A) (A) (A)
                 (A) (A) (A) (A) (A) (A) (A) (A) (A) (A) (A) (A)
                 (A) (A) (A) (A) (A) (A) (A) (A) (A) (A) (A) (A)
                 (A) (A) (A) (A) (A) (A) (A) (A) (A) (A) (A) (A)
                 (A) (A) (A) (A) (A) (A) (A) (A) (A) (A) (A) (A)
                 (A) (A) (A) (A) (A) (A) (A) (A) (A) (A) (A) (A)
                 (A) (A) (A) (A) (A) (A) (A) (A) (A) (A) (A) (A)
                 (A) (A) (A) (A) (A) (A) (A) (A) (A) (A) (A) (A)
                 (A) (A) (A) (A) (A) (A) (A) (A) (A) (A) (A) (A)
                 (A) (A) (A) (A) (A) (A) (A) (A) (A) (A) (A) (A)
                 (A) (A) (A) (A) (A) (A) (A) (A) (A) (A) (A) (A)
                 (A) (A) (A) (A) (A) (A) (A) (A) (A) (A) (A) (A)
                 (A) (A) (A) (A) (A) (A) (A) (A) (A) (A) (A) (A)
                 (A) (A) (A) (A) (A) (A) (A) (A) (A) (A) (A) (A)
                 (A) (A) (A) (A) (A) (A) (A) (A) (A) (A) (A) (A)
                 (A) (A) (A) (A) (A) (A) (A) (A) (A) (A) (A) (A)
                 (A) (A) (A) (A) (A) (A) (A) (A) (A) (A) (A) (A)
                 (A) (A) (A) (A) (A) (A) (A) (A) (A) (A) (A) (A)
                 (A) (A) (A) (A) (A) (A) (A) (A) (A) (A) (A) (A)
                 (A) (A) (A) (A) (A) (A) (A) (A) (A) (A) (A) (A)
                 (A) (A) (A) (A) (A) (A) (A) (A) (A) (A) (A) (A)
                 (A) (A) (A) (A) (A) (A) (A) (A) (A) (A) (A) (A)
                 (A) (A) (A) (A) (A) (A) (A) (A) (A) (A) (A) (A)
                 (A) (A) (A) (A) (A) (A) (A) (A) (A) (A) (A) (A)
                 (A) (A) (A) (A) (A) (A) (A) (A) (A) (A) (A) (A)
                 (A) (A) (A) (A) (A) (A) (A) (A) (A) (A) (A) (A)
                 (A) (A) (A) (A) (A) (A) (A) (A) (A) (A) (A) (A)
                 (A) (A) (A) (A) (A) (A) (A) (A) (A) (A) (A) (A)
                 (A) (A) (A) (A) (A) (A) (A) (A) (A) (A) (A) (A)
                 (A) (A) (A) (A) (A) (A) (A) (A) (A) (A) (A) (A)
                 (A) (A) (A) (A) (A) (A) (A) (A) (A) (A) (A) (A)
                 (A) (A) (A) (A) (A) (A) (A) (A) (A) (A) (A) (A)
                 (A) (A) (A) (A) (A) (A) (A) (A) (A) (A) (A) (A)
                 (A) (A) (A) (A) (A) (A) (A) (A) (A) (A) (A) (A)
                 (A) (A) (A) (A) (A) (A) (A) (A) (A) (A) (A) (A)
                 (A) (A) (A) (A) (A) (A) (A) (A) (A) (A) (A) (A)
                 (A) (A) (A) (A) (A) (A) (A) (A) (A) (A) (A) (A)
                 (A) (A) (A) (A) (A) (A) (A) (A) (A) (A) (A) (A)
                 (A) (A) (A) (A) (A) (A) (A) (A) (A) (A) (A) (A)
                 (A) (A) (A) (A) (A) (A) (A) (A) (A) (A) (A) (A)
                 (A) (A) (A) (A) (A) (A) (A) (A) (A) (A) (A) (A)
                 (A) (A) (A) (A) (A) (A) (A) (A) (A) (A) (A) (A)
                 (A) (A)
 The electronic state is 1-A.
 Alpha  occ. eigenvalues --  -19.31284 -19.25575 -19.25492 -19.25429 -19.24198
 Alpha  occ. eigenvalues --  -19.23404 -19.22990 -19.22911 -14.49100 -10.43802
 Alpha  occ. eigenvalues --  -10.41731 -10.41651 -10.35773 -10.32398 -10.32142
 Alpha  occ. eigenvalues --  -10.32040 -10.31197 -10.30957 -10.29821 -10.29622
 Alpha  occ. eigenvalues --  -10.29289 -10.27778  -1.23282  -1.19028  -1.16950
 Alpha  occ. eigenvalues --   -1.14284  -1.10428  -1.09567  -1.09238  -1.09140
 Alpha  occ. eigenvalues --   -1.07470  -0.95270  -0.92209  -0.89762  -0.85982
 Alpha  occ. eigenvalues --   -0.83978  -0.81187  -0.78347  -0.76469  -0.71959
 Alpha  occ. eigenvalues --   -0.70996  -0.68173  -0.65211  -0.63156  -0.62870
 Alpha  occ. eigenvalues --   -0.61822  -0.61159  -0.60797  -0.60732  -0.59863
 Alpha  occ. eigenvalues --   -0.59290  -0.59047  -0.58592  -0.56685  -0.56081
 Alpha  occ. eigenvalues --   -0.54937  -0.53977  -0.53232  -0.52394  -0.52105
 Alpha  occ. eigenvalues --   -0.51772  -0.50341  -0.50134  -0.49574  -0.49010
 Alpha  occ. eigenvalues --   -0.48672  -0.48321  -0.47811  -0.47054  -0.46561
 Alpha  occ. eigenvalues --   -0.46070  -0.45888  -0.45360  -0.44596  -0.44034
 Alpha  occ. eigenvalues --   -0.43761  -0.40285  -0.39845  -0.39343  -0.39039
 Alpha  occ. eigenvalues --   -0.38704  -0.38608  -0.38271  -0.37132  -0.36682
 Alpha  occ. eigenvalues --   -0.32745  -0.31497
 Alpha virt. eigenvalues --   -0.01716   0.01425   0.04208   0.04916   0.05005
 Alpha virt. eigenvalues --    0.05672   0.06085   0.06521   0.06894   0.07061
 Alpha virt. eigenvalues --    0.07451   0.07980   0.08626   0.09089   0.09306
 Alpha virt. eigenvalues --    0.09494   0.09733   0.09913   0.10467   0.11001
 Alpha virt. eigenvalues --    0.11118   0.11564   0.11796   0.12002   0.12281
 Alpha virt. eigenvalues --    0.12871   0.12995   0.13215   0.13767   0.13973
 Alpha virt. eigenvalues --    0.14456   0.14599   0.15033   0.15179   0.15360
 Alpha virt. eigenvalues --    0.15459   0.15908   0.16126   0.16520   0.16793
 Alpha virt. eigenvalues --    0.16953   0.17445   0.17662   0.18039   0.18394
 Alpha virt. eigenvalues --    0.18520   0.18926   0.18952   0.19126   0.19371
 Alpha virt. eigenvalues --    0.19550   0.19691   0.20314   0.20719   0.20960
 Alpha virt. eigenvalues --    0.21055   0.21442   0.21659   0.22105   0.22285
 Alpha virt. eigenvalues --    0.22482   0.22820   0.22848   0.23012   0.23457
 Alpha virt. eigenvalues --    0.23557   0.23828   0.24127   0.24303   0.24616
 Alpha virt. eigenvalues --    0.24952   0.25058   0.25111   0.25526   0.25793
 Alpha virt. eigenvalues --    0.25988   0.26225   0.26426   0.26714   0.26782
 Alpha virt. eigenvalues --    0.27406   0.27670   0.27769   0.27936   0.28500
 Alpha virt. eigenvalues --    0.28688   0.29089   0.29299   0.29698   0.29941
 Alpha virt. eigenvalues --    0.30505   0.30628   0.30978   0.31212   0.31786
 Alpha virt. eigenvalues --    0.31958   0.32133   0.32637   0.32770   0.33321
 Alpha virt. eigenvalues --    0.33545   0.33808   0.34102   0.34140   0.34623
 Alpha virt. eigenvalues --    0.34909   0.35148   0.36005   0.36018   0.36426
 Alpha virt. eigenvalues --    0.36810   0.37162   0.37431   0.37768   0.37900
 Alpha virt. eigenvalues --    0.38503   0.38838   0.39611   0.39777   0.40134
 Alpha virt. eigenvalues --    0.40713   0.41460   0.41905   0.41990   0.42151
 Alpha virt. eigenvalues --    0.42847   0.43362   0.43711   0.44039   0.44453
 Alpha virt. eigenvalues --    0.44951   0.45449   0.46178   0.46278   0.46640
 Alpha virt. eigenvalues --    0.47051   0.47415   0.47775   0.48289   0.49160
 Alpha virt. eigenvalues --    0.49835   0.50225   0.50418   0.51200   0.51716
 Alpha virt. eigenvalues --    0.51967   0.52539   0.52716   0.53444   0.54288
 Alpha virt. eigenvalues --    0.54793   0.55208   0.55696   0.55860   0.56009
 Alpha virt. eigenvalues --    0.56734   0.57347   0.57753   0.58083   0.58544
 Alpha virt. eigenvalues --    0.58727   0.59008   0.59282   0.59548   0.60132
 Alpha virt. eigenvalues --    0.60281   0.60737   0.61259   0.61654   0.61913
 Alpha virt. eigenvalues --    0.62180   0.62364   0.62955   0.63081   0.63627
 Alpha virt. eigenvalues --    0.63816   0.64693   0.64868   0.65107   0.65471
 Alpha virt. eigenvalues --    0.65650   0.66079   0.66637   0.67098   0.67184
 Alpha virt. eigenvalues --    0.67490   0.67718   0.68588   0.69098   0.69423
 Alpha virt. eigenvalues --    0.69963   0.70557   0.70933   0.71056   0.71637
 Alpha virt. eigenvalues --    0.71890   0.72323   0.72586   0.72884   0.73351
 Alpha virt. eigenvalues --    0.73924   0.74773   0.75022   0.75292   0.75556
 Alpha virt. eigenvalues --    0.76067   0.76688   0.77758   0.78358   0.79178
 Alpha virt. eigenvalues --    0.79353   0.79505   0.80097   0.80282   0.80978
 Alpha virt. eigenvalues --    0.81718   0.81792   0.82749   0.83031   0.83259
 Alpha virt. eigenvalues --    0.84019   0.84355   0.84507   0.85768   0.86090
 Alpha virt. eigenvalues --    0.86369   0.87409   0.87550   0.87932   0.89408
 Alpha virt. eigenvalues --    0.90483   0.91106   0.91210   0.92436   0.93262
 Alpha virt. eigenvalues --    0.94587   0.95077   0.95635   0.96471   0.97407
 Alpha virt. eigenvalues --    0.98062   0.98482   0.99359   0.99706   1.00542
 Alpha virt. eigenvalues --    1.01190   1.01761   1.02158   1.03368   1.04168
 Alpha virt. eigenvalues --    1.04347   1.05741   1.06704   1.07312   1.07991
 Alpha virt. eigenvalues --    1.08393   1.09705   1.10976   1.11365   1.11732
 Alpha virt. eigenvalues --    1.12717   1.13107   1.13187   1.14141   1.14508
 Alpha virt. eigenvalues --    1.14948   1.15393   1.17197   1.17532   1.18166
 Alpha virt. eigenvalues --    1.19379   1.20000   1.20246   1.21031   1.21971
 Alpha virt. eigenvalues --    1.22871   1.23113   1.23803   1.25090   1.25416
 Alpha virt. eigenvalues --    1.26594   1.27023   1.28599   1.28979   1.29759
 Alpha virt. eigenvalues --    1.30082   1.30769   1.31628   1.32370   1.32828
 Alpha virt. eigenvalues --    1.34219   1.34822   1.35375   1.35616   1.36549
 Alpha virt. eigenvalues --    1.36838   1.38033   1.39033   1.39579   1.40499
 Alpha virt. eigenvalues --    1.41065   1.42074   1.42503   1.42846   1.43028
 Alpha virt. eigenvalues --    1.43830   1.44651   1.45760   1.46472   1.46813
 Alpha virt. eigenvalues --    1.47187   1.47674   1.49758   1.50327   1.51601
 Alpha virt. eigenvalues --    1.53042   1.54083   1.54820   1.56171   1.57340
 Alpha virt. eigenvalues --    1.59156   1.59825   1.61305   1.61766   1.62341
 Alpha virt. eigenvalues --    1.63207   1.63704   1.64041   1.65073   1.66051
 Alpha virt. eigenvalues --    1.66255   1.67024   1.67374   1.68026   1.68835
 Alpha virt. eigenvalues --    1.69727   1.69854   1.70013   1.70768   1.71179
 Alpha virt. eigenvalues --    1.72279   1.72811   1.73237   1.74652   1.75182
 Alpha virt. eigenvalues --    1.75474   1.75986   1.77092   1.77492   1.78069
 Alpha virt. eigenvalues --    1.79701   1.80026   1.80249   1.81368   1.82028
 Alpha virt. eigenvalues --    1.82325   1.83187   1.83819   1.84272   1.85019
 Alpha virt. eigenvalues --    1.85690   1.87016   1.87867   1.88210   1.89746
 Alpha virt. eigenvalues --    1.90394   1.90738   1.91197   1.91597   1.92539
 Alpha virt. eigenvalues --    1.92628   1.93932   1.94491   1.95602   1.96356
 Alpha virt. eigenvalues --    1.97254   1.98049   1.99085   1.99520   1.99737
 Alpha virt. eigenvalues --    2.00533   2.01673   2.02211   2.02864   2.03830
 Alpha virt. eigenvalues --    2.04729   2.05356   2.06034   2.07964   2.08841
 Alpha virt. eigenvalues --    2.09195   2.10392   2.11247   2.12090   2.12837
 Alpha virt. eigenvalues --    2.14369   2.14603   2.15840   2.17077   2.17324
 Alpha virt. eigenvalues --    2.18118   2.19581   2.19881   2.19901   2.20524
 Alpha virt. eigenvalues --    2.20828   2.21197   2.21886   2.22219   2.22933
 Alpha virt. eigenvalues --    2.23123   2.25452   2.26117   2.27224   2.27313
 Alpha virt. eigenvalues --    2.27996   2.28545   2.29073   2.29963   2.31828
 Alpha virt. eigenvalues --    2.32502   2.33477   2.35219   2.35611   2.37345
 Alpha virt. eigenvalues --    2.38296   2.38954   2.39557   2.40207   2.41370
 Alpha virt. eigenvalues --    2.42009   2.42720   2.42936   2.43413   2.43524
 Alpha virt. eigenvalues --    2.45122   2.45271   2.46160   2.46628   2.47242
 Alpha virt. eigenvalues --    2.48233   2.48977   2.49212   2.49963   2.51403
 Alpha virt. eigenvalues --    2.52294   2.52619   2.52841   2.53739   2.54238
 Alpha virt. eigenvalues --    2.55345   2.56092   2.56598   2.56755   2.57505
 Alpha virt. eigenvalues --    2.58528   2.58876   2.59018   2.59169   2.60358
 Alpha virt. eigenvalues --    2.60992   2.61121   2.61796   2.62599   2.63052
 Alpha virt. eigenvalues --    2.63324   2.64218   2.64505   2.65598   2.65712
 Alpha virt. eigenvalues --    2.67423   2.67699   2.68754   2.69849   2.70491
 Alpha virt. eigenvalues --    2.71322   2.72124   2.73628   2.73884   2.75024
 Alpha virt. eigenvalues --    2.75177   2.76855   2.76979   2.77817   2.78351
 Alpha virt. eigenvalues --    2.79205   2.80344   2.80894   2.81642   2.82031
 Alpha virt. eigenvalues --    2.82280   2.83144   2.83820   2.84630   2.85136
 Alpha virt. eigenvalues --    2.85524   2.86514   2.86807   2.87636   2.88829
 Alpha virt. eigenvalues --    2.89154   2.90194   2.90315   2.90659   2.90967
 Alpha virt. eigenvalues --    2.92209   2.92776   2.93324   2.94030   2.94416
 Alpha virt. eigenvalues --    2.94718   2.95363   2.96129   2.97485   2.97805
 Alpha virt. eigenvalues --    2.98743   2.99214   3.01341   3.01833   3.02412
 Alpha virt. eigenvalues --    3.03848   3.04513   3.04838   3.05357   3.07609
 Alpha virt. eigenvalues --    3.08312   3.08662   3.09743   3.10811   3.12696
 Alpha virt. eigenvalues --    3.12810   3.13606   3.14526   3.15018   3.15369
 Alpha virt. eigenvalues --    3.16778   3.17650   3.17915   3.18284   3.19561
 Alpha virt. eigenvalues --    3.20083   3.20559   3.21546   3.21664   3.22445
 Alpha virt. eigenvalues --    3.23155   3.23657   3.23935   3.24461   3.24707
 Alpha virt. eigenvalues --    3.25740   3.26852   3.27452   3.27791   3.28532
 Alpha virt. eigenvalues --    3.28843   3.30332   3.30795   3.31356   3.31690
 Alpha virt. eigenvalues --    3.33544   3.33899   3.34683   3.35620   3.36484
 Alpha virt. eigenvalues --    3.36925   3.37773   3.38067   3.38553   3.40779
 Alpha virt. eigenvalues --    3.41229   3.41831   3.41951   3.43220   3.43737
 Alpha virt. eigenvalues --    3.45620   3.46090   3.46449   3.47391   3.47757
 Alpha virt. eigenvalues --    3.48108   3.48936   3.49890   3.50873   3.51733
 Alpha virt. eigenvalues --    3.52776   3.53039   3.53570   3.54237   3.55391
 Alpha virt. eigenvalues --    3.56296   3.57168   3.57566   3.58535   3.59363
[...]
     3  C   -0.084891  -0.908193  -0.003541   0.026008  -0.006326   0.082527
     4  C    0.014662  -0.091497  -0.004968  -0.031204   0.100299  -0.162543
     5  H   -0.000230   0.000210   0.000003   0.000040   0.000465   0.000203
     6  H    0.005248   0.054562   0.000168   0.000882  -0.032275  -0.001311
     7  C   -0.004896   0.020306  -0.000055   0.001956  -0.008835   0.006652
     8  H   -0.000030   0.001454   0.000000   0.000061  -0.000239   0.000208
     9  H    0.000016   0.000419   0.000000   0.000003   0.000057  -0.000056
    10  H    0.000109  -0.004325  -0.000011  -0.000095   0.000197  -0.000769
    11  N    0.000289   0.128324  -0.000153   0.017260  -0.046838   0.020522
    12  O    0.006751  -0.039202   0.002846  -0.005336  -0.011838   0.002868
    13  O    0.000307   0.009099  -0.000012   0.000319  -0.001292   0.001044
    14  C    0.008912   0.272465   0.005881   0.005573  -0.035044   0.049378
    15  H   -0.000026  -0.002640   0.000002   0.000000   0.000515  -0.000046
    16  C   -0.057230  -0.491947  -0.012287  -0.006133   0.060911  -0.007689
    17  H    0.001631   0.000668   0.000270  -0.000200  -0.004070   0.001299
    18  C    0.013229   0.250950  -0.000348   0.000608  -0.044073   0.006143
    19  H    0.006616  -0.005278   0.000010  -0.000011   0.000265   0.000189
    20  C    0.006070  -0.044462  -0.000374  -0.000981  -0.004848  -0.003596
    21  H   -0.000014   0.000058   0.000000  -0.000002  -0.000013  -0.000008
    22  H    0.000025  -0.001904   0.000000   0.000000   0.000066  -0.000005
    23  H   -0.000014  -0.000251  -0.000001   0.000000   0.000040   0.000001
    24  C    0.411543   0.186426  -0.017961  -0.043984  -0.024280  -0.084771
    25  H    0.484353  -0.010566  -0.000461  -0.006645  -0.002646  -0.001512
    26  C   -0.010566   5.779030   0.432058   0.392085  -0.167424  -0.117156
    27  H   -0.000461   0.432058   0.504845  -0.030898  -0.010519   0.000611
    28  H   -0.006645   0.392085  -0.030898   0.547630  -0.016869   0.030970
    29  C   -0.002646  -0.167424  -0.010519  -0.016869   5.629312  -0.259234
    30  C   -0.001512  -0.117156   0.000611   0.030970  -0.259234   5.638005
    31  H   -0.000046   0.011360  -0.001087  -0.005734  -0.074340   0.447983
    32  H    0.000000   0.003199   0.000162   0.000403  -0.026147   0.395275
    33  H    0.000012  -0.025456   0.000643   0.000938  -0.058124   0.440757
    34  O    0.002751   0.024998  -0.050182  -0.037816   0.211724   0.031011
    35  O    0.000106   0.025785  -0.002585  -0.001083   0.327173  -0.049440
    36  H    0.000005   0.000660   0.000000   0.000000   0.000011   0.000005
    37  H    0.000003  -0.000879  -0.000007  -0.000652   0.000752   0.000677
    38  H    0.000020  -0.002539   0.000047  -0.000027  -0.000632  -0.003756
    39  H    0.000000   0.004272  -0.000001   0.000011   0.022673  -0.026875
    40  O   -0.000506  -0.021387  -0.000586   0.000851   0.050042   0.012746
    41  H    0.000000  -0.002913   0.000003  -0.000013  -0.002169  -0.000479
    42  O    0.000000  -0.000863  -0.000027  -0.000022  -0.002159   0.000484
    43  H    0.000000   0.000076   0.000000   0.000000  -0.002023  -0.000264
    44  O   -0.000733  -0.051694   0.002558   0.015303  -0.019426   0.036455
    45  H    0.000491   0.003913  -0.000103  -0.003940   0.006318  -0.001622
    46  O    0.000033   0.001427   0.000000   0.000000  -0.000200   0.000039
    47  H    0.000000   0.000092   0.000000   0.000000  -0.000004   0.000001
              31         32         33         34         35         36
     1  C   -0.000437   0.000069   0.000207   0.021708  -0.001390   0.122017
     2  C    0.000351  -0.000439   0.000418   0.025643  -0.013794  -0.123203
     3  C    0.004749  -0.001508   0.001677  -0.028635  -0.015002  -0.040633
     4  C   -0.007585   0.001910  -0.000625  -0.059309   0.022422   0.003838
     5  H    0.000000   0.000000   0.000000  -0.000324  -0.000106  -0.001560
     6  H    0.000052   0.000026  -0.000104  -0.007836   0.008538   0.000018
     7  C    0.000063   0.000023  -0.000113   0.001782   0.000385   0.002417
     8  H    0.000000   0.000000   0.000000  -0.000041  -0.000001  -0.000010
     9  H    0.000000   0.000000   0.000000  -0.000006   0.000000   0.000051
    10  H   -0.000001   0.000000  -0.000003   0.000095   0.000003  -0.000002
    11  N    0.000149   0.000061   0.000060  -0.011482   0.001561   0.001921
    12  O    0.000941   0.000146  -0.000508   0.015058   0.001490  -0.000137
    13  O    0.000000   0.000000   0.000000   0.000101   0.000008   0.047548
    14  C   -0.000066  -0.000176   0.000290   0.054439  -0.008050   0.000322
    15  H    0.000000   0.000000   0.000000   0.000292  -0.000004   0.000018
    16  C   -0.002440  -0.000518   0.002022   0.047385  -0.006307  -0.004508
    17  H    0.000039   0.000000  -0.000005  -0.004898  -0.000771   0.000000
    18  C    0.000251  -0.000037   0.000089  -0.018513   0.000505   0.009998
    19  H    0.000000   0.000000   0.000000  -0.000016  -0.000012   0.000077
    20  C   -0.000026  -0.000004   0.000010   0.002539   0.000861   0.000799
    21  H    0.000000   0.000000   0.000000  -0.000014   0.000000  -0.004328
    22  H    0.000000   0.000000   0.000000   0.000029   0.000000   0.000597
    23  H    0.000000   0.000000   0.000000   0.000009   0.000000   0.000003
    24  C   -0.000117  -0.001394   0.002652  -0.133221   0.030985   0.000222
    25  H   -0.000046   0.000000   0.000012   0.002751   0.000106   0.000005
    26  C    0.011360   0.003199  -0.025456   0.024998   0.025785   0.000660
    27  H   -0.001087   0.000162   0.000643  -0.050182  -0.002585   0.000000
    28  H   -0.005734   0.000403   0.000938  -0.037816  -0.001083   0.000000
    29  C   -0.074340  -0.026147  -0.058124   0.211724   0.327173   0.000011
    30  C    0.447983   0.395275   0.440757   0.031011  -0.049440   0.000005
    31  H    0.482044  -0.013115  -0.023321  -0.007331   0.004570   0.000000
    32  H   -0.013115   0.459030  -0.008066   0.009521  -0.009705   0.000000
    33  H   -0.023321  -0.008066   0.448775   0.011175  -0.004078   0.000000
    34  O   -0.007331   0.009521   0.011175   8.293525  -0.089057   0.000000
    35  O    0.004570  -0.009705  -0.004078  -0.089057   8.285072   0.000000
    36  H    0.000000   0.000000   0.000000   0.000000   0.000000   0.377997
    37  H   -0.000002  -0.000001   0.000021   0.000058  -0.000008   0.000000
    38  H   -0.000067  -0.000047   0.000155  -0.009091   0.019012   0.000000
    39  H   -0.000197  -0.002569  -0.000187   0.005488   0.013374   0.000000
    40  O   -0.000168  -0.000110   0.000057   0.022636  -0.037687   0.000004
    41  H    0.000004   0.000005  -0.000004  -0.003746   0.003225   0.000000
    42  O    0.000015  -0.000872   0.000040  -0.001705  -0.023573   0.000000
    43  H   -0.000013  -0.000782  -0.000005   0.000142   0.004785   0.000000
    44  O    0.000711   0.000298  -0.000564   0.005412  -0.000298   0.000000
    45  H   -0.000018  -0.000001   0.000721   0.002124  -0.000114   0.000000
    46  O    0.000000   0.000000   0.000000   0.000018   0.000002   0.302706
    47  H    0.000000   0.000000   0.000000   0.000000   0.000000  -0.017084
              37         38         39         40         41         42
     1  C   -0.001396  -0.001333   0.000085   0.037529  -0.004669  -0.000024
     2  C   -0.000871  -0.011709   0.000267   0.181695  -0.011441  -0.000096
     3  C   -0.001125   0.008759  -0.000400  -0.191493   0.027308  -0.000318
     4  C   -0.000832   0.020453  -0.000080  -0.145467   0.004907   0.000539
     5  H    0.000000  -0.000092   0.000000   0.003573  -0.000065   0.000000
     6  H    0.000003   0.007680   0.000025  -0.117965   0.001341  -0.000029
     7  C    0.000926  -0.000172  -0.000001   0.003422  -0.000172   0.000008
     8  H   -0.000034   0.000000   0.000000   0.000000   0.000000   0.000000
     9  H   -0.000002   0.000000   0.000000  -0.000003   0.000000   0.000000
    10  H   -0.000608   0.000000   0.000000   0.000008   0.000000   0.000000
    11  N   -0.000541  -0.000200   0.000001  -0.004507  -0.000072   0.000007
    12  O   -0.002335  -0.000344  -0.000094   0.005250   0.000148  -0.000003
    13  O   -0.000010   0.000000   0.000000   0.000046  -0.000005   0.000000
    14  C   -0.000014  -0.013652   0.000068   0.110028  -0.005206   0.000001
    15  H    0.000000   0.000013   0.000000  -0.000263   0.000002   0.000000
    16  C    0.000753   0.000649  -0.000103  -0.009471   0.000989   0.000357
    17  H    0.000000   0.000115   0.000000   0.000463  -0.000010  -0.000002
    18  C   -0.000098  -0.002552   0.000020   0.020102  -0.001100  -0.000030
    19  H    0.000000  -0.000001   0.000000   0.000068   0.000000   0.000000
    20  C   -0.000021   0.000455   0.000000  -0.008144   0.000169  -0.000001
    21  H    0.000000   0.000000   0.000000  -0.000001   0.000000   0.000000
    22  H    0.000000   0.000000   0.000000  -0.000008   0.000000   0.000000
    23  H    0.000000   0.000000   0.000000   0.000000   0.000000   0.000000
    24  C    0.001905   0.009741  -0.000094  -0.076211   0.003769   0.000546
    25  H    0.000003   0.000020   0.000000  -0.000506   0.000000   0.000000
    26  C   -0.000879  -0.002539   0.004272  -0.021387  -0.002913  -0.000863
    27  H   -0.000007   0.000047  -0.000001  -0.000586   0.000003  -0.000027
    28  H   -0.000652  -0.000027   0.000011   0.000851  -0.000013  -0.000022
    29  C    0.000752  -0.000632   0.022673   0.050042  -0.002169  -0.002159
    30  C    0.000677  -0.003756  -0.026875   0.012746  -0.000479   0.000484
    31  H   -0.000002  -0.000067  -0.000197  -0.000168   0.000004   0.000015
    32  H   -0.000001  -0.000047  -0.002569  -0.000110   0.000005  -0.000872
    33  H    0.000021   0.000155  -0.000187   0.000057  -0.000004   0.000040
    34  O    0.000058  -0.009091   0.005488   0.022636  -0.003746  -0.001705
    35  O   -0.000008   0.019012   0.013374  -0.037687   0.003225  -0.023573
    36  H    0.000000   0.000000   0.000000   0.000004   0.000000   0.000000
    37  H    0.356403   0.000000   0.000000  -0.000001   0.000000   0.000000
    38  H    0.000000   0.373519   0.000546   0.277938  -0.013316  -0.000374
    39  H    0.000000   0.000546   0.361356  -0.000783  -0.000075   0.301570
    40  O   -0.000001   0.277938  -0.000783   8.346478   0.296211  -0.000091
    41  H    0.000000  -0.013316  -0.000075   0.296211   0.358671   0.000047
    42  O    0.000000  -0.000374   0.301570  -0.000091   0.000047   8.135320
    43  H    0.000000   0.000036  -0.016544   0.000045  -0.000001   0.297507
    44  O    0.308826   0.000001  -0.000005  -0.000009   0.000000   0.000004
    45  H   -0.007513   0.000001   0.000000  -0.000029   0.000000   0.000000
    46  O    0.000000   0.000001   0.000000  -0.000121   0.000001   0.000000
    47  H    0.000000   0.000000   0.000000  -0.000001   0.000000   0.000000
              43         44         45         46         47
     1  C   -0.000001   0.008577  -0.004197   0.069395   0.035635
     2  C    0.000020   0.009590   0.018525  -0.015157  -0.032932
     3  C    0.000047   0.016996   0.029598  -0.050700  -0.011970
     4  C   -0.000073  -0.061147  -0.053583  -0.003328  -0.004002
     5  H    0.000000   0.000016   0.000000  -0.005059   0.000257
     6  H   -0.000001   0.000088  -0.000106   0.000116  -0.000003
     7  C    0.000000   0.001486   0.005212   0.001432   0.000478
     8  H    0.000000   0.000514  -0.000921  -0.000009   0.000001
     9  H    0.000000   0.000175  -0.000005   0.000049   0.000000
    10  H    0.000000   0.003263  -0.003229   0.000015   0.000000
    11  N    0.000000   0.019482  -0.000583   0.002499  -0.000274
    12  O   -0.000001  -0.018960  -0.011636  -0.000036  -0.000011
    13  O    0.000000  -0.000405  -0.000180  -0.029967   0.004938
    14  C   -0.000002   0.000801   0.004257   0.022792  -0.000614
    15  H    0.000000   0.000000   0.000000  -0.000130   0.000000
    16  C   -0.000008  -0.009745   0.001805   0.002270  -0.001853
    17  H    0.000000   0.000011   0.000003   0.000008   0.000000
    18  C   -0.000002   0.000410   0.002128  -0.023722   0.007092
    19  H    0.000000  -0.000115  -0.000013  -0.000010   0.000001
    20  C    0.000000  -0.000138   0.000062  -0.010965   0.001771
    21  H    0.000000   0.000001   0.000000   0.005465  -0.000586
    22  H    0.000000   0.000000   0.000000  -0.000199  -0.000042
    23  H    0.000000  -0.000001   0.000000   0.000301  -0.000008
    24  C   -0.000064  -0.004277  -0.011637  -0.002324   0.000087
    25  H    0.000000  -0.000733   0.000491   0.000033   0.000000
    26  C    0.000076  -0.051694   0.003913   0.001427   0.000092
    27  H    0.000000   0.002558  -0.000103   0.000000   0.000000
    28  H    0.000000   0.015303  -0.003940   0.000000   0.000000
    29  C   -0.002023  -0.019426   0.006318  -0.000200  -0.000004
    30  C   -0.000264   0.036455  -0.001622   0.000039   0.000001
    31  H   -0.000013   0.000711  -0.000018   0.000000   0.000000
    32  H   -0.000782   0.000298  -0.000001   0.000000   0.000000
    33  H   -0.000005  -0.000564   0.000721   0.000000   0.000000
    34  O    0.000142   0.005412   0.002124   0.000018   0.000000
    35  O    0.004785  -0.000298  -0.000114   0.000002   0.000000
    36  H    0.000000   0.000000   0.000000   0.302706  -0.017084
    37  H    0.000000   0.308826  -0.007513   0.000000   0.000000
    38  H    0.000036   0.000001   0.000001   0.000001   0.000000
    39  H   -0.016544  -0.000005   0.000000   0.000000   0.000000
    40  O    0.000045  -0.000009  -0.000029  -0.000121  -0.000001
    41  H   -0.000001   0.000000   0.000000   0.000001   0.000000
    42  O    0.297507   0.000004   0.000000   0.000000   0.000000
    43  H    0.375988   0.000000   0.000000   0.000000   0.000000
    44  O    0.000000   8.148115   0.287667   0.000001   0.000000
    45  H    0.000000   0.287667   0.423577   0.000000   0.000000
    46  O    0.000000   0.000001   0.000000   8.105238   0.308965
    47  H    0.000000   0.000000   0.000000   0.308965   0.368015
 Mulliken charges:
               1
     1  C    0.228527
     2  C   -0.207320
     3  C   -0.085462
     4  C    0.384959
     5  H    0.242225
     6  H    0.269923
     7  C   -0.390196
     8  H    0.176858
     9  H    0.184605
    10  H    0.175814
    11  N   -0.058524
    12  O   -0.486910
    13  O   -0.516133
    14  C   -0.134597
    15  H    0.167200
    16  C   -0.173284
    17  H    0.191911
    18  C   -0.050749
    19  H    0.172615
    20  C   -0.390855
    21  H    0.146338
    22  H    0.156161
    23  H    0.162237
    24  C   -0.307250
    25  H    0.200969
    26  C    0.014685
    27  H    0.181158
    28  H    0.147909
    29  C    0.505710
    30  C   -0.534126
    31  H    0.182828
    32  H    0.195361
    33  H    0.210444
    34  O   -0.326440
    35  O   -0.486794
    36  H    0.320230
    37  H    0.346620
    38  H    0.340762
    39  H    0.338249
    40  O   -0.754181
    41  H    0.348656
    42  O   -0.706257
    43  H    0.341137
    44  O   -0.699247
    45  H    0.313025
    46  O   -0.680846
    47  H    0.342053
 Sum of Mulliken charges =   0.00000
 Mulliken charges with hydrogens summed into heavy atoms:
               1
     1  C    0.228527
     2  C    0.034905
     3  C    0.184461
     4  C    0.384959
     7  C    0.147081
    11  N   -0.058524
    12  O   -0.486910
    13  O   -0.516133
    14  C    0.032603
    16  C    0.018628
    18  C    0.121866
    20  C    0.073881
    24  C   -0.106281
    26  C    0.343752
    29  C    0.505710
    30  C    0.054507
    34  O   -0.326440
    35  O   -0.486794
    40  O   -0.064763
    42  O   -0.026871
    44  O   -0.039601
    46  O   -0.018563
 Electronic spatial extent (au):  <R**2>=           9137.2830
 Charge=              0.0000 electrons
 Dipole moment (field-independent basis, Debye):
    X=             -0.2685    Y=              2.5503    Z=              2.3756  Tot=              3.4957
 Quadrupole moment (field-independent basis, Debye-Ang):
   XX=           -152.9647   YY=           -130.0813   ZZ=           -128.6484
   XY=             -8.9269   XZ=              9.9080   YZ=             -5.3169
 Traceless Quadrupole moment (field-independent basis, Debye-Ang):
   XX=            -15.7332   YY=              7.1502   ZZ=              8.5830
   XY=             -8.9269   XZ=              9.9080   YZ=             -5.3169
 Octapole moment (field-independent basis, Debye-Ang**2):
  XXX=             33.7390  YYY=             66.4443  ZZZ=            -50.6335  XYY=             41.9427
  XXY=              2.3077  XXZ=             60.1444  XZZ=            -30.1117  YZZ=            -26.0479
  YYZ=            -25.9727  XYZ=             28.4303
 Hexadecapole moment (field-independent basis, Debye-Ang**3):
 XXXX=          -8124.5110 YYYY=          -2213.3580 ZZZZ=          -1291.1602 XXXY=           -579.8492
 XXXZ=            439.2596 YYYX=            -50.9457 YYYZ=            -73.6591 ZZZX=            166.7710
 ZZZY=            102.5054 XXYY=          -1559.7523 XXZZ=          -1403.8428 YYZZ=           -641.0689
 XXYZ=             81.6356 YYXZ=            -74.8820 ZZXY=            -26.0306
 N-N= 2.005106365403D+03 E-N=-6.743473398330D+03  KE= 1.161871733824D+03
 1\1\GINC-D11S3B2\FTS\RwB97XD\Gen\C13H25N1O8\PMMASS\13-Feb-2022\0\\#n w
 B97XD/Gen scrf(smd,solvent=toluene) opt=(calcfc,ts,noeigentest)\\ts di
 els alder toluene 4 h2o - opt2\\0,1\C,2.7455062233,0.7987868246,0.6587
 463502\C,1.9612107051,-0.4518425418,0.6198217717\C,0.619759253,-0.1031
 762863,0.5851804807\C,0.55355648,1.3761717683,0.6098009453\H,2.3726979
 472,-1.3625862429,1.0224239785\H,-0.1907725172,-0.7023765733,0.9743512
 16\C,2.2011559283,3.2484987462,0.4929831892\H,1.9761562094,3.718866076
 2,1.451403318\H,3.2683571991,3.3280312865,0.2989776046\H,1.6505234667,
 3.761871472,-0.2945825626\N,1.846988302,1.8492503232,0.50782695\O,-0.4
 262715785,2.089224288,0.7037036137\O,3.939853945,0.9504701932,0.809450
 8797\C,1.5972424977,-1.9633770828,-1.7250205026\H,1.822558921,-3.02483
 41167,-1.7312438416\C,0.2571075021,-1.5838697493,-1.7393532468\H,-0.49
 19056767,-2.3673904061,-1.7369006519\C,2.6314962271,-1.0843492064,-1.4
 885671271\H,2.488452518,-0.0390684,-1.7411482377\C,4.052404548,-1.5300
 319515,-1.3948492434\H,4.6376691966,-0.8672108614,-0.7584310556\H,4.13
 41915131,-2.5473068514,-1.0121166055\H,4.5107270768,-1.49899031,-2.388
 5342442\C,-0.1474643351,-0.287063027,-1.5076693151\H,0.5037250111,0.52
 87031941,-1.8015328957\C,-1.5893502908,0.1065459396,-1.4551996153\H,-1
 .9967288562,0.1801820981,-2.4682889381\H,-1.6948195575,1.0755142975,-0
 .9701381396\C,-3.4940703319,-0.6675781981,-0.1920586704\C,-4.191749760
 2,0.6231147929,-0.4784308081\H,-4.145446678,0.8828597039,-1.5359125398
 \H,-5.226593445,0.5497653542,-0.1543754437\H,-3.7045246089,1.424159122
 8,0.0827134944\O,-2.3048033575,-0.898400026,-0.7307104021\O,-3.9504700
 676,-1.5336675819,0.5263239256\H,4.8154719991,-0.5454161542,1.59447638
 71\H,-1.5694123514,4.6551670089,-1.134859174\H,-2.3167674749,-2.357571
 0833,1.36179099\H,-5.6468546961,-1.2508880802,1.3288436123\O,-1.483106
 3899,-2.5237310289,1.8236203686\H,-1.724005265,-2.6335438964,2.7451766
 407\O,-6.5108621771,-0.9698872117,1.6661482743\H,-7.0735671757,-1.7429
 927777,1.602308252\O,-1.1565253523,3.8289779314,-1.3913087735\H,-0.910
 2279681,3.3919357362,-0.5632293484\O,5.1466400898,-1.3557581263,2.0108
 590107\H,5.5176371519,-1.0757083862,2.8489801297\\Version=ES64L-G09Rev
 D.01\State=1-A\HF=-1167.1029222\RMSD=9.964e-09\RMSF=3.029e-06\Dipole=0
 .038296,0.9191776,-1.0222942\Quadrupole=-12.4296685,6.8898968,5.539771
 7,6.1369594,6.6290651,4.3481787\PG=C01 [X(C13H25N1O8)]\\@


 THERE'S NOTHING WRONG WITH FOLLOWING A TRAIN OF THOUGHT...
 AS LONG AS IT ULTIMATELY PULLS INTO THE STATION.
 Job cpu time:      13 days 20 hours 30 minutes 14.4 seconds.
 File lengths (MBytes):  RWF=   5064 Int=      0 D2E=      0 Chk=     67 Scr=      1
 Normal termination of Gaussian 09 at Sun Feb 13 07:15:31 2022.
