 Entering Gaussian System, Link 0=g09
 Input=freq_m062x_TS_associated_cycloaddition_PM6_toluene_3_water.com
 Output=freq_m062x_TS_associated_cycloaddition_PM6_toluene_3_water.log
 Initial command:
 /apps/applications/gaussian/G09.D01/2/default/g09/l1.exe "/local/743750.1.40core-192G.q/Gau-61921.inp" -scrdir="/local/743750.1.40core-192G.q/"
 Entering Link 1 = /apps/applications/gaussian/G09.D01/2/default/g09/l1.exe PID=     61922.
  
 Copyright (c) 1988,1990,1992,1993,1995,1998,2003,2009,2013,
            Gaussian, Inc.  All Rights Reserved.
  
 This is part of the Gaussian(R) 09 program.  It is based on
 the Gaussian(R) 03 system (copyright 2003, Gaussian, Inc.),
 the Gaussian(R) 98 system (copyright 1998, Gaussian, Inc.),
 the Gaussian(R) 94 system (copyright 1995, Gaussian, Inc.),
 the Gaussian 92(TM) system (copyright 1992, Gaussian, Inc.),
 the Gaussian 90(TM) system (copyright 1990, Gaussian, Inc.),
 the Gaussian 88(TM) system (copyright 1988, Gaussian, Inc.),
 the Gaussian 86(TM) system (copyright 1986, Carnegie Mellon
 University), and the Gaussian 82(TM) system (copyright 1983,
 Carnegie Mellon University). Gaussian is a federally registered
 trademark of Gaussian, Inc.
  
 This software contains proprietary and confidential information,
 including trade secrets, belonging to Gaussian, Inc.
  
 This software is provided under written license and may be
 used, copied, transmitted, or stored only in accord with that
 written license.
  
 The following legend is applicable only to US Government
 contracts under FAR:
  
                    RESTRICTED RIGHTS LEGEND
  
 Use, reproduction and disclosure by the US Government is
 subject to restrictions as set forth in subparagraphs (a)
 and (c) of the Commercial Computer Software - Restricted
 Rights clause in FAR 52.227-19.
  
 Gaussian, Inc.
 340 Quinnipiac St., Bldg. 40, Wallingford CT 06492
  
  
 ---------------------------------------------------------------
 Warning -- This program may not be used in any manner that
 competes with the business of Gaussian, Inc. or will provide
 assistance to any competitor of Gaussian, Inc.  The licensee
 of this program is prohibited from giving any competitor of
 Gaussian, Inc. access to this program.  By using this program,
 the user acknowledges that Gaussian, Inc. is engaged in the
 business of creating and licensing software in the field of
 computational chemistry and represents and warrants to the
 licensee that it is not a competitor of Gaussian, Inc. and that
 it will not use this program in any manner prohibited above.
 ---------------------------------------------------------------
  

 Cite this work as:
 Gaussian 09, Revision D.01,
 M. J. Frisch, G. W. Trucks, H. B. Schlegel, G. E. Scuseria, 
 M. A. Robb, J. R. Cheeseman, G. Scalmani, V. Barone, B. Mennucci, 
 G. A. Petersson, H. Nakatsuji, M. Caricato, X. Li, H. P. Hratchian, 
 A. F. Izmaylov, J. Bloino, G. Zheng, J. L. Sonnenberg, M. Hada, 
 M. Ehara, K. Toyota, R. Fukuda, J. Hasegawa, M. Ishida, T. Nakajima, 
 Y. Honda, O. Kitao, H. Nakai, T. Vreven, J. A. Montgomery, Jr., 
 J. E. Peralta, F. Ogliaro, M. Bearpark, J. J. Heyd, E. Brothers, 
 K. N. Kudin, V. N. Staroverov, T. Keith, R. Kobayashi, J. Normand, 
 K. Raghavachari, A. Rendell, J. C. Burant, S. S. Iyengar, J. Tomasi, 
 M. Cossi, N. Rega, J. M. Millam, M. Klene, J. E. Knox, J. B. Cross, 
 V. Bakken, C. Adamo, J. Jaramillo, R. Gomperts, R. E. Stratmann, 
 O. Yazyev, A. J. Austin, R. Cammi, C. Pomelli, J. W. Ochterski, 
 R. L. Martin, K. Morokuma, V. G. Zakrzewski, G. A. Voth, 
 P. Salvador, J. J. Dannenberg, S. Dapprich, A. D. Daniels, 
 O. Farkas, J. B. Foresman, J. V. Ortiz, J. Cioslowski, 
 and D. J. Fox, Gaussian, Inc., Wallingford CT, 2013.
 
 ******************************************
 Gaussian 09:  ES64L-G09RevD.01 24-Apr-2013
                16-Sep-2020 
 ******************************************
 %nprocshared=4
 Will use up to    4 processors via shared memory.
 %chk=freq_m062x_TS_associated_cycloaddition_PM6_toluene_3_water.chk
 ----------------------------------------------------------------------
 # freq scrf=(cpcm,solvent=water) geom=connectivity def2svp empiricaldi
 spersion=gd3 m062x
 ----------------------------------------------------------------------
 1/10=4,30=1,38=1,57=2/1,3;
 2/12=2,17=6,18=5,40=1/2;
 3/5=43,7=101,11=2,16=1,25=1,30=1,70=2101,71=2,72=1,74=-55,124=31,140=1/1,2,3;
 4//1;
 5/5=2,38=5,53=1,98=1/2;
 8/6=4,10=90,11=11/1;
 11/6=1,8=1,9=11,15=111,16=1/1,2,10;
 10/6=1/2;
 6/7=2,8=2,9=2,10=2,18=1,28=1/1;
 7/8=1,10=1,25=1/1,2,3,16;
 1/10=4,30=1/3;
 99//99;
 -------------------
 Title Card Required
 -------------------
 Symbolic Z-matrix:
 Charge =  0 Multiplicity = 1
 C                     0.46451   0.79527  -0.85559 
 C                     1.61248   1.39564   0.01273 
 C                    -0.32753   2.26254   0.8882 
 C                    -0.74401   1.58757  -0.39052 
 H                     0.6066    0.46649  -1.88176 
 H                    -1.76722   1.38622  -0.69828 
 C                     0.98115   1.66326   1.37187 
 H                     1.58558   2.37181   1.95448 
 H                     0.82277   0.73892   1.94226 
 C                     1.19347   2.43379  -0.9023 
 H                     1.6742    2.67652  -1.84813 
 C                    -0.09702   2.97827  -0.40699 
 H                    -0.58232   3.88735  -0.75126 
 H                     2.59046   0.92677  -0.10456 
 H                    -1.1009    2.61606   1.56795 
 N                    -0.73994  -0.87583   0.85643 
 N                     0.07423  -0.98284  -0.14117 
 C                    -2.08447  -0.89322   0.50248 
 C                     1.38027  -1.39805   0.24275 
 O                     1.73106  -1.71905   1.34605 
 O                    -2.96456  -0.8138    1.33139 
 O                     2.15871  -1.45578  -0.83605 
 O                    -2.34465  -1.02585  -0.81034 
 C                    -3.71796  -1.03989  -1.16398 
 H                    -3.75653  -1.18312  -2.24833 
 H                    -4.24413  -1.85774  -0.65402 
 H                    -4.19894  -0.08935  -0.89233 
 C                     3.48992  -1.90951  -0.61845 
 H                     4.01714  -1.24202   0.0769 
 H                     3.48427  -2.92544  -0.20314 
 H                     3.97962  -1.89997  -1.59615 
 

 GradGradGradGradGradGradGradGradGradGradGradGradGradGradGradGradGradGrad
 Berny optimization.
 Initialization pass.
 Trust Radius=3.00D-01 FncErr=1.00D-07 GrdErr=1.00D-07
 Number of steps in this run=      2 maximum allowed number of steps=      2.
 GradGradGradGradGradGradGradGradGradGradGradGradGradGradGradGradGradGrad

                          Input orientation:                          
 ---------------------------------------------------------------------
 Center     Atomic      Atomic             Coordinates (Angstroms)
 Number     Number       Type             X           Y           Z
 ---------------------------------------------------------------------
      1          6           0        0.464510    0.795267   -0.855588
      2          6           0        1.612484    1.395640    0.012729
      3          6           0       -0.327530    2.262538    0.888204
      4          6           0       -0.744005    1.587573   -0.390524
      5          1           0        0.606597    0.466494   -1.881755
      6          1           0       -1.767220    1.386221   -0.698276
      7          6           0        0.981145    1.663257    1.371870
      8          1           0        1.585581    2.371810    1.954480
      9          1           0        0.822767    0.738923    1.942260
     10          6           0        1.193470    2.433790   -0.902302
     11          1           0        1.674203    2.676524   -1.848126
     12          6           0       -0.097019    2.978268   -0.406994
     13          1           0       -0.582315    3.887352   -0.751262
     14          1           0        2.590463    0.926769   -0.104556
     15          1           0       -1.100899    2.616064    1.567948
     16          7           0       -0.739944   -0.875827    0.856425
     17          7           0        0.074227   -0.982837   -0.141174
     18          6           0       -2.084470   -0.893222    0.502484
     19          6           0        1.380270   -1.398051    0.242754
     20          8           0        1.731062   -1.719053    1.346047
     21          8           0       -2.964561   -0.813798    1.331392
     22          8           0        2.158710   -1.455778   -0.836051
     23          8           0       -2.344645   -1.025852   -0.810343
     24          6           0       -3.717956   -1.039894   -1.163977
     25          1           0       -3.756526   -1.183118   -2.248329
     26          1           0       -4.244125   -1.857739   -0.654017
     27          1           0       -4.198939   -0.089346   -0.892327
     28          6           0        3.489915   -1.909507   -0.618450
     29          1           0        4.017141   -1.242015    0.076897
     30          1           0        3.484265   -2.925441   -0.203137
     31          1           0        3.979619   -1.899965   -1.596149
 ---------------------------------------------------------------------
                    Distance matrix (angstroms):
                    1          2          3          4          5
     1  C    0.000000
     2  C    1.559573   0.000000
     3  C    2.412679   2.298178   0.000000
     4  C    1.518072   2.398435   1.504717   0.000000
     5  H    1.086876   2.337561   3.430895   2.303196   0.000000
     6  H    2.313999   3.453696   2.314640   1.087301   2.807406
     7  C    2.445790   1.522325   1.518453   2.467368   3.486919
     8  H    3.411564   2.173483   2.192916   3.397211   4.393784
     9  H    2.821254   2.185868   2.180738   2.935449   3.839797
    10  C    1.793968   1.445894   2.355564   2.175272   2.274643
    11  H    2.446961   2.259924   3.415527   3.026243   2.454617
    12  C    2.298270   2.367125   1.497646   1.533915   2.996499
    13  H    3.266147   3.407265   2.322237   2.333508   3.793916
    14  H    2.258543   1.090889   3.359246   3.411322   2.702964
    15  H    3.411647   3.357170   1.088638   2.240710   4.408701
    16  N    2.678480   3.377174   3.165506   2.761021   3.333561
    17  N    1.955598   2.836736   3.428336   2.709001   2.326715
    18  C    3.345542   4.375639   3.632415   2.957812   3.843861
    19  C    2.618323   2.812747   4.090611   3.718539   2.930638
    20  O    3.573955   3.390149   4.505606   4.480559   4.057061
    21  O    4.373843   5.250698   4.076051   3.696275   4.971582
    22  O    2.817428   3.024793   4.793779   4.229212   2.682849
    23  O    3.348115   4.711681   4.215130   3.093265   3.476327
    24  C    4.577766   5.977462   5.158730   4.043043   4.635318
    25  H    4.865273   6.370922   5.785188   4.494825   4.678936
    26  H    5.408356   6.732674   5.890233   4.918378   5.517146
    27  H    4.746751   6.066049   4.867182   3.873039   4.937722
    28  C    4.065109   3.853197   5.852252   5.496144   3.943963
    29  H    4.200147   3.569834   5.640592   5.558198   4.288022
    30  H    4.836143   4.714011   6.529620   6.187138   4.754362
    31  H    4.490957   4.364955   6.484595   5.994087   4.130251
                    6          7          8          9         10
     6  H    0.000000
     7  C    3.451922   0.000000
     8  H    4.387457   1.098556   0.000000
     9  H    3.754924   1.097644   1.802319   0.000000
    10  C    3.147175   2.410531   2.884232   3.331896   0.000000
    11  H    3.851030   3.446072   3.815825   4.341229   1.088397
    12  C    2.325732   2.460904   2.962346   3.373376   1.485647
    13  H    2.768116   3.449449   3.783871   4.375148   2.299797
    14  H    4.421878   2.304811   2.708793   2.710994   2.204337
    15  H    2.663131   2.298085   2.725113   2.713717   3.376313
    16  N    2.930743   3.110431   4.142576   2.495700   4.217200
    17  N    3.051840   3.180191   4.234337   2.804544   3.674964
    18  C    2.595830   4.085268   5.122304   3.631650   4.877225
    19  C    4.306321   3.287219   4.145360   2.786716   4.003630
    20  O    5.104896   3.464544   4.138419   2.687399   4.752913
    21  O    3.223858   4.658974   5.589287   4.138593   5.729349
    22  O    4.848594   3.998744   4.771370   3.784239   4.008094
    23  O    2.482755   4.801483   5.885153   4.552335   4.949327
    24  C    3.147742   5.984906   7.035055   5.781960   6.021384
    25  H    3.600209   6.607058   7.670673   6.498092   6.276645
    26  H    4.081702   6.618540   7.660210   6.257532   6.931544
    27  H    2.851002   5.918739   6.900889   5.825671   5.953519
    28  C    6.205293   4.797910   5.345665   4.548087   4.921226
    29  H    6.400574   4.397139   4.743156   4.196155   4.737456
    30  H    6.812759   5.459158   6.026706   5.011373   5.870088
    31  H    6.680670   5.522367   6.048673   5.426765   5.198604
                   11         12         13         14         15
    11  H    0.000000
    12  C    2.303289   0.000000
    13  H    2.785873   1.086493   0.000000
    14  H    2.634618   3.394507   4.387459   0.000000
    15  H    4.401637   2.244852   2.695151   4.390574   0.000000
    16  N    5.075618   4.106535   5.029650   3.906974   3.581879
    17  N    4.343332   3.973706   4.951969   3.159016   4.153806
    18  C    5.691755   4.445846   5.165485   5.053302   3.797066
    19  C    4.589154   4.664410   5.724971   2.643857   4.901577
    20  O    5.433882   5.336652   6.417336   3.137386   5.182903
    21  O    6.618898   5.062069   5.666865   5.995816   3.910645
    22  O    4.281934   4.993312   6.005784   2.529432   5.743184
    23  O    5.561989   4.609500   5.220045   5.354078   4.524016
    24  C    6.584467   5.461670   5.854941   6.692256   5.261029
    25  H    6.674565   5.839490   6.166562   7.023650   6.004174
    26  H    7.550632   6.375459   6.813544   7.400472   5.901857
    27  H    6.561813   5.145051   5.377174   6.910069   4.792708
    28  C    5.083364   6.066395   7.085497   3.019530   6.807107
    29  H    4.954798   5.913650   6.939110   2.602299   6.580451
    30  H    6.112637   6.908034   7.953091   3.955771   7.407344
    31  H    5.130564   6.467629   7.417420   3.484972   7.497846
                   16         17         18         19         20
    16  N    0.000000
    17  N    1.292103   0.000000
    18  C    1.390441   2.254396   0.000000
    19  C    2.268175   1.423219   3.510945   0.000000
    20  O    2.656432   2.344982   3.993980   1.201396   0.000000
    21  O    2.275601   3.381014   1.211593   4.517083   4.782110
    22  O    3.406320   2.247576   4.484721   1.331586   2.239140
    23  O    2.318553   2.510095   1.344915   3.888771   4.662825
    24  C    3.602429   3.928108   2.338136   5.300856   6.037655
    25  H    4.339780   4.376629   3.232148   5.713000   6.581822
    26  H    3.940161   4.435834   2.632850   5.713959   6.302567
    27  H    3.954912   4.429730   2.657573   5.841977   6.544553
    28  C    4.597332   3.571195   5.776080   2.335350   2.643688
    29  H    4.834420   3.957436   6.126372   2.646686   2.657906
    30  H    4.813266   3.925036   5.969809   2.637903   2.632311
    31  H    5.416480   4.267337   6.495457   3.223367   3.707459
                   21         22         23         24         25
    21  O    0.000000
    22  O    5.599808   0.000000
    23  O    2.239708   4.523904   0.000000
    24  C    2.616408   5.900483   1.418181   0.000000
    25  H    3.684835   6.087601   2.021372   1.094450   0.000000
    26  H    2.582430   6.418022   2.079543   1.098082   1.798526
    27  H    2.644512   6.503077   2.078983   1.099400   1.797445
    28  C    6.831012   1.423140   5.904215   7.280606   7.462912
    29  H    7.106426   2.081570   6.426993   7.836603   8.114188
    30  H    6.957095   2.077880   6.160627   7.506696   7.723183
    31  H    7.613927   2.022563   6.432564   7.757523   7.796611
                   26         27         28         29         30
    26  H    0.000000
    27  H    1.784950   0.000000
    28  C    7.734295   7.906103   0.000000
    29  H    8.316361   8.352964   1.098645   0.000000
    30  H    7.814812   8.218883   1.097560   1.787820   0.000000
    31  H    8.277642   8.406100   1.093525   1.798163   1.799294
                   31
    31  H    0.000000
 Stoichiometry    C11H14N2O4
 Framework group  C1[X(C11H14N2O4)]
 Deg. of freedom    87
 Full point group                 C1      NOp   1
 Largest Abelian subgroup         C1      NOp   1
 Largest concise Abelian subgroup C1      NOp   1
                         Standard orientation:                         
 ---------------------------------------------------------------------
 Center     Atomic      Atomic             Coordinates (Angstroms)
 Number     Number       Type             X           Y           Z
 ---------------------------------------------------------------------
      1          6           0        0.464510    0.795267   -0.855588
      2          6           0        1.612484    1.395640    0.012729
      3          6           0       -0.327530    2.262538    0.888204
      4          6           0       -0.744005    1.587573   -0.390524
      5          1           0        0.606597    0.466494   -1.881755
      6          1           0       -1.767220    1.386221   -0.698276
      7          6           0        0.981145    1.663257    1.371870
      8          1           0        1.585581    2.371810    1.954480
      9          1           0        0.822767    0.738923    1.942260
     10          6           0        1.193470    2.433790   -0.902302
     11          1           0        1.674203    2.676524   -1.848126
     12          6           0       -0.097019    2.978268   -0.406994
     13          1           0       -0.582315    3.887352   -0.751262
     14          1           0        2.590463    0.926769   -0.104556
     15          1           0       -1.100899    2.616064    1.567948
     16          7           0       -0.739944   -0.875827    0.856425
     17          7           0        0.074227   -0.982837   -0.141174
     18          6           0       -2.084470   -0.893222    0.502484
     19          6           0        1.380270   -1.398051    0.242754
     20          8           0        1.731062   -1.719053    1.346047
     21          8           0       -2.964561   -0.813798    1.331392
     22          8           0        2.158710   -1.455778   -0.836051
     23          8           0       -2.344645   -1.025852   -0.810343
     24          6           0       -3.717956   -1.039894   -1.163977
     25          1           0       -3.756526   -1.183118   -2.248329
     26          1           0       -4.244125   -1.857739   -0.654017
     27          1           0       -4.198939   -0.089346   -0.892327
     28          6           0        3.489915   -1.909507   -0.618450
     29          1           0        4.017141   -1.242015    0.076897
     30          1           0        3.484265   -2.925441   -0.203137
     31          1           0        3.979619   -1.899965   -1.596149
 ---------------------------------------------------------------------
 Rotational constants (GHZ):      0.6250517      0.4495181      0.3277339
 Standard basis: def2SVP (5D, 7F)
 There are   325 symmetry adapted cartesian basis functions of A   symmetry.
 There are   308 symmetry adapted basis functions of A   symmetry.
   308 basis functions,   523 primitive gaussians,   325 cartesian basis functions
    63 alpha electrons       63 beta electrons
       nuclear repulsion energy      1317.9549068227 Hartrees.
 NAtoms=   31 NActive=   31 NUniq=   31 SFac= 1.00D+00 NAtFMM=   60 NAOKFM=F Big=F
 Integral buffers will be    131072 words long.
 Raffenetti 2 integral format.
 Two-electron integral symmetry is turned on.
 Nuclear repulsion after empirical dispersion term =     1317.9531652939 Hartrees.
 Force inversion solution in PCM.
 ------------------------------------------------------------------------------
 Polarizable Continuum Model (PCM)
 =================================
 Model                : C-PCM.
 Atomic radii         : UFF (Universal Force Field).
 Polarization charges : Total charges.
 Charge compensation  : None.
 Solution method      : Matrix inversion.
 Cavity type          : Scaled VdW (van der Waals Surface) (Alpha=1.100).
 Cavity algorithm     : GePol (No added spheres)
                        Default sphere list used, NSphG=   31.
                        Lebedev-Laikov grids with approx.  5.0 points / Ang**2.
                        Smoothing algorithm: Karplus/York (Gamma=1.0000).
                        Polarization charges: spherical gaussians, with
                                              point-specific exponents (IZeta= 3).
                        Self-potential: point-specific (ISelfS= 7).
                        Self-field    : sphere-specific E.n sum rule (ISelfD= 2).
 1st derivatives      : Analytical E(r).r(x)/FMM algorithm (CHGder, D1EAlg=3).
                        Cavity 1st derivative terms included.
 2nd derivatives      : Analytical E(r).r(xy)/FMM algorithm (CHGder, D2EAlg=3).
                        Cavity 2nd derivative terms included.
 Solvent              : Water, Eps=  78.355300 Eps(inf)=   1.777849
 ------------------------------------------------------------------------------
 One-electron integrals computed using PRISM.
   1 Symmetry operations used in ECPInt.
 ECPInt:  NShTT=   10440 NPrTT=   37938 LenC2=    9938 LenP2D=   26204.
 LDataN:  DoStor=T MaxTD1= 4 Len=   56
 NBasis=   308 RedAO= T EigKep=  3.72D-04  NBF=   308
 NBsUse=   308 1.00D-06 EigRej= -1.00D+00 NBFU=   308
 ExpMin= 1.22D-01 ExpMax= 2.27D+03 ExpMxC= 3.41D+02 IAcc=1 IRadAn=         1 AccDes= 0.00D+00
 Harris functional with IExCor= 1009 and IRadAn=       1 diagonalized for initial guess.
 HarFok:  IExCor= 1009 AccDes= 0.00D+00 IRadAn=         1 IDoV= 1 UseB2=F ITyADJ=14
 ICtDFT=  3500011 ScaDFX=  1.000000  1.000000  1.000000  1.000000
 FoFCou: FMM=F IPFlag=           0 FMFlag=      100000 FMFlg1=           0
         NFxFlg=           0 DoJE=T BraDBF=F KetDBF=T FulRan=T
         wScrn=  0.000000 ICntrl=     500 IOpCl=  0 I1Cent=   200000004 NGrid=           0
         NMat0=    1 NMatS0=      1 NMatT0=    0 NMatD0=    1 NMtDS0=    0 NMtDT0=    0
 Petite list used in FoFCou.
 Requested convergence on RMS density matrix=1.00D-08 within 128 cycles.
 Requested convergence on MAX density matrix=1.00D-06.
 Requested convergence on             energy=1.00D-06.
 No special actions if energy rises.
 Inv3:  Mode=1 IEnd=    15174003.
 Iteration    1 A*A^-1 deviation from unit magnitude is 6.22D-15 for   2237.
 Iteration    1 A*A^-1 deviation from orthogonality  is 3.14D-15 for   2238    604.
 Iteration    1 A^-1*A deviation from unit magnitude is 6.22D-15 for   2237.
 Iteration    1 A^-1*A deviation from orthogonality  is 2.85D-15 for   2226    611.
 Error on total polarization charges =  0.00818
 SCF Done:  E(RM062X) =  -836.853069513     A.U. after   17 cycles
            NFock= 17  Conv=0.28D-08     -V/T= 2.0093
 DoSCS=F DFT=T ScalE2(SS,OS)=  1.000000  1.000000
 Range of M.O.s used for correlation:     1   308
 NBasis=   308 NAE=    63 NBE=    63 NFC=     0 NFV=     0
 NROrb=    308 NOA=    63 NOB=    63 NVA=   245 NVB=   245
   1 Symmetry operations used in ECPInt.
 ECPInt:  NShTT=   10440 NPrTT=   37938 LenC2=    9938 LenP2D=   26204.
 LDataN:  DoStor=T MaxTD1= 5 Len=  102
 Number of processors reduced to   2 by ecpmxn.
 Symmetrizing basis deriv contribution to polar:
 IMax=3 JMax=2 DiffMx= 0.00D+00
 G2DrvN: will do    16 centers at a time, making    2 passes.
 Calling FoFCou, ICntrl=  3107 FMM=F I1Cent=   0 AccDes= 0.00D+00.
 Calling FoFCou, ICntrl=  3107 FMM=F I1Cent=   0 AccDes= 0.00D+00.
 NEqPCM:  Using equilibrium solvation (IEInf=0, Eps=  78.3553, EpsInf=   1.7778)
 G2PCM: DoFxE=T DoFxN=T DoGrad=T DoDP/DQ/DG/TGxP=FFFF NFrqRd=   0 IEInf=0 SqF1=F DoCFld=F IF1Alg=4.
 End of G2Drv F.D. properties file   721 does not exist.
 End of G2Drv F.D. properties file   722 does not exist.
 End of G2Drv F.D. properties file   788 does not exist.
          IDoAtm=1111111111111111111111111111111
 NEqPCM:  Using equilibrium solvation (IEInf=0, Eps=  78.3553, EpsInf=   1.7778)
          Differentiating once with respect to electric field.
                with respect to dipole field.
          Differentiating once with respect to nuclear coordinates.
 PrRfSu:  requested number of processors reduced to:   3 ShMem   1 Linda.
          There are    96 degrees of freedom in the 1st order CPHF.  IDoFFX=6 NUNeed=     3.
     96 vectors produced by pass  0 Test12= 1.61D-14 1.04D-09 XBig12= 1.63D+02 8.65D+00.
 AX will form    96 AO Fock derivatives at one time.
 PrRfSu:  requested number of processors reduced to:   3 ShMem   1 Linda.
     94 vectors produced by pass  1 Test12= 1.61D-14 1.04D-09 XBig12= 2.12D+01 1.01D+00.
 PrRfSu:  requested number of processors reduced to:   3 ShMem   1 Linda.
     93 vectors produced by pass  2 Test12= 1.61D-14 1.04D-09 XBig12= 3.42D-01 8.25D-02.
 PrRfSu:  requested number of processors reduced to:   3 ShMem   1 Linda.
     93 vectors produced by pass  3 Test12= 1.61D-14 1.04D-09 XBig12= 4.01D-03 7.57D-03.
 PrRfSu:  requested number of processors reduced to:   3 ShMem   1 Linda.
     93 vectors produced by pass  4 Test12= 1.61D-14 1.04D-09 XBig12= 2.61D-05 3.73D-04.
 PrRfSu:  requested number of processors reduced to:   3 ShMem   1 Linda.
     93 vectors produced by pass  5 Test12= 1.61D-14 1.04D-09 XBig12= 1.03D-07 2.93D-05.
 PrRfSu:  requested number of processors reduced to:   3 ShMem   1 Linda.
     66 vectors produced by pass  6 Test12= 1.61D-14 1.04D-09 XBig12= 3.38D-10 1.71D-06.
      5 vectors produced by pass  7 Test12= 1.61D-14 1.04D-09 XBig12= 9.20D-13 7.51D-08.
      3 vectors produced by pass  8 Test12= 1.61D-14 1.04D-09 XBig12= 2.58D-15 3.42D-09.
 InvSVY:  IOpt=1 It=  1 EMax= 7.11D-15
 Solved reduced A of dimension   636 with    96 vectors.
 Isotropic polarizability for W=    0.000000      213.72 Bohr**3.
 End of Minotr F.D. properties file   721 does not exist.
 End of Minotr F.D. properties file   722 does not exist.
 End of Minotr F.D. properties file   788 does not exist.

 **********************************************************************

            Population analysis using the SCF density.

 **********************************************************************

 Orbital symmetries:
       Occupied  (A) (A) (A) (A) (A) (A) (A) (A) (A) (A) (A) (A)
                 (A) (A) (A) (A) (A) (A) (A) (A) (A) (A) (A) (A)
                 (A) (A) (A) (A) (A) (A) (A) (A) (A) (A) (A) (A)
                 (A) (A) (A) (A) (A) (A) (A) (A) (A) (A) (A) (A)
                 (A) (A) (A) (A) (A) (A) (A) (A) (A) (A) (A) (A)
                 (A) (A) (A)
       Virtual   (A) (A) (A) (A) (A) (A) (A) (A) (A) (A) (A) (A)
                 (A) (A) (A) (A) (A) (A) (A) (A) (A) (A) (A) (A)
                 (A) (A) (A) (A) (A) (A) (A) (A) (A) (A) (A) (A)
                 (A) (A) (A) (A) (A) (A) (A) (A) (A) (A) (A) (A)
                 (A) (A) (A) (A) (A) (A) (A) (A) (A) (A) (A) (A)
                 (A) (A) (A) (A) (A) (A) (A) (A) (A) (A) (A) (A)
                 (A) (A) (A) (A) (A) (A) (A) (A) (A) (A) (A) (A)
                 (A) (A) (A) (A) (A) (A) (A) (A) (A) (A) (A) (A)
                 (A) (A) (A) (A) (A) (A) (A) (A) (A) (A) (A) (A)
                 (A) (A) (A) (A) (A) (A) (A) (A) (A) (A) (A) (A)
                 (A) (A) (A) (A) (A) (A) (A) (A) (A) (A) (A) (A)
                 (A) (A) (A) (A) (A) (A) (A) (A) (A) (A) (A) (A)
                 (A) (A) (A) (A) (A) (A) (A) (A) (A) (A) (A) (A)
                 (A) (A) (A) (A) (A) (A) (A) (A) (A) (A) (A) (A)
                 (A) (A) (A) (A) (A) (A) (A) (A) (A) (A) (A) (A)
                 (A) (A) (A) (A) (A) (A) (A) (A) (A) (A) (A) (A)
                 (A) (A) (A) (A) (A) (A) (A) (A) (A) (A) (A) (A)
                 (A) (A) (A) (A) (A) (A) (A) (A) (A) (A) (A) (A)
                 (A) (A) (A) (A) (A) (A) (A) (A) (A) (A) (A) (A)
                 (A) (A) (A) (A) (A) (A) (A) (A) (A) (A) (A) (A)
                 (A) (A) (A) (A) (A)
 The electronic state is 1-A.
 Alpha  occ. eigenvalues --  -19.68490 -19.66863 -19.63304 -19.60835 -14.82452
 Alpha  occ. eigenvalues --  -14.77453 -10.71193 -10.69096 -10.62127 -10.61526
 Alpha  occ. eigenvalues --  -10.61118 -10.60302 -10.60264 -10.59260 -10.58779
 Alpha  occ. eigenvalues --  -10.58259 -10.56737  -1.24334  -1.22203  -1.14355
 Alpha  occ. eigenvalues --   -1.11650  -1.10570  -1.07971  -0.90505  -0.88630
 Alpha  occ. eigenvalues --   -0.84178  -0.81674  -0.78571  -0.77395  -0.67633
 Alpha  occ. eigenvalues --   -0.66766  -0.64947  -0.64721  -0.63546  -0.62948
 Alpha  occ. eigenvalues --   -0.62130  -0.58719  -0.57937  -0.56821  -0.55767
 Alpha  occ. eigenvalues --   -0.54383  -0.53597  -0.52830  -0.51518  -0.49960
 Alpha  occ. eigenvalues --   -0.49213  -0.48233  -0.47512  -0.46896  -0.45898
 Alpha  occ. eigenvalues --   -0.43877  -0.43678  -0.42873  -0.42477  -0.41143
 Alpha  occ. eigenvalues --   -0.38394  -0.38065  -0.37259  -0.36575  -0.36377
 Alpha  occ. eigenvalues --   -0.35858  -0.30792  -0.24827
 Alpha virt. eigenvalues --   -0.07133   0.05560   0.08381   0.08890   0.10443
 Alpha virt. eigenvalues --    0.11872   0.12908   0.13989   0.15014   0.15469
 Alpha virt. eigenvalues --    0.16100   0.16606   0.16738   0.16900   0.17222
 Alpha virt. eigenvalues --    0.17599   0.18073   0.18666   0.19042   0.19802
 Alpha virt. eigenvalues --    0.21103   0.21878   0.23096   0.23468   0.25398
 Alpha virt. eigenvalues --    0.26290   0.28338   0.29945   0.31564   0.33820
 Alpha virt. eigenvalues --    0.35470   0.37052   0.37396   0.40126   0.41560
 Alpha virt. eigenvalues --    0.44667   0.45514   0.46820   0.48894   0.49381
 Alpha virt. eigenvalues --    0.49622   0.50228   0.50887   0.51404   0.51773
 Alpha virt. eigenvalues --    0.52680   0.54107   0.55181   0.56115   0.57113
 Alpha virt. eigenvalues --    0.59469   0.60390   0.61505   0.61656   0.63040
 Alpha virt. eigenvalues --    0.64069   0.66012   0.66411   0.67413   0.67717
 Alpha virt. eigenvalues --    0.68281   0.68697   0.69600   0.69796   0.69853
 Alpha virt. eigenvalues --    0.70566   0.70978   0.71145   0.71474   0.71944
 Alpha virt. eigenvalues --    0.72690   0.72787   0.73246   0.73917   0.74932
 Alpha virt. eigenvalues --    0.75280   0.76384   0.77979   0.79287   0.80108
 Alpha virt. eigenvalues --    0.80184   0.81599   0.82672   0.84199   0.85283
 Alpha virt. eigenvalues --    0.88779   0.90247   0.92530   0.93987   0.95336
 Alpha virt. eigenvalues --    0.99030   0.99574   0.99905   1.01560   1.03547
 Alpha virt. eigenvalues --    1.05925   1.07486   1.08955   1.09835   1.12338
 Alpha virt. eigenvalues --    1.14525   1.16370   1.17424   1.19166   1.20451
 Alpha virt. eigenvalues --    1.22116   1.24744   1.27714   1.28223   1.31078
 Alpha virt. eigenvalues --    1.32189   1.36192   1.36798   1.39052   1.39551
 Alpha virt. eigenvalues --    1.40254   1.42328   1.46363   1.49323   1.51148
 Alpha virt. eigenvalues --    1.53283   1.54308   1.56233   1.56556   1.57270
 Alpha virt. eigenvalues --    1.58537   1.58974   1.60367   1.61893   1.63287
 Alpha virt. eigenvalues --    1.63959   1.65763   1.66519   1.67264   1.69268
 Alpha virt. eigenvalues --    1.70824   1.71395   1.73178   1.75138   1.76420
 Alpha virt. eigenvalues --    1.76703   1.78278   1.78766   1.80998   1.82140
 Alpha virt. eigenvalues --    1.82941   1.83843   1.85403   1.86584   1.87620
 Alpha virt. eigenvalues --    1.88875   1.89994   1.90225   1.91850   1.93121
 Alpha virt. eigenvalues --    1.93597   1.94934   1.95413   1.95924   1.97275
 Alpha virt. eigenvalues --    1.98305   1.99530   2.00037   2.00359   2.02571
 Alpha virt. eigenvalues --    2.03607   2.04889   2.07307   2.07727   2.09101
 Alpha virt. eigenvalues --    2.10363   2.10538   2.11327   2.13069   2.14507
 Alpha virt. eigenvalues --    2.16775   2.18609   2.20027   2.21008   2.22007
 Alpha virt. eigenvalues --    2.24152   2.26459   2.27977   2.32241   2.34193
 Alpha virt. eigenvalues --    2.34715   2.35343   2.38807   2.39385   2.40399
 Alpha virt. eigenvalues --    2.42464   2.43884   2.45723   2.46314   2.49692
 Alpha virt. eigenvalues --    2.52198   2.54836   2.56631   2.56876   2.59937
 Alpha virt. eigenvalues --    2.62796   2.67104   2.67979   2.69081   2.69292
 Alpha virt. eigenvalues --    2.70884   2.71398   2.72616   2.73813   2.74987
 Alpha virt. eigenvalues --    2.76589   2.79212   2.82678   2.83923   2.84488
 Alpha virt. eigenvalues --    2.88247   2.89921   2.90464   2.91637   2.93057
 Alpha virt. eigenvalues --    2.95161   2.96375   2.96653   2.98453   2.99951
 Alpha virt. eigenvalues --    3.01463   3.03277   3.05714   3.06483   3.07569
 Alpha virt. eigenvalues --    3.10880   3.18097   3.19784   3.22872   3.27965
 Alpha virt. eigenvalues --    3.28984   3.30270   3.31861   3.37258   3.50183
 Alpha virt. eigenvalues --    3.51268   3.68783   3.70349   3.76378   3.79725
          Condensed to atoms (all electrons):
               1          2          3          4          5          6
     1  C    5.624654   0.173016   0.002247   0.144933   0.395567  -0.031985
     2  C    0.173016   5.448930  -0.041973  -0.013440  -0.051047   0.005801
     3  C    0.002247  -0.041973   5.518869   0.080357   0.009239  -0.030149
     4  C    0.144933  -0.013440   0.080357   5.538750  -0.026198   0.412517
     5  H    0.395567  -0.051047   0.009239  -0.026198   0.549474  -0.003469
     6  H   -0.031985   0.005801  -0.030149   0.412517  -0.003469   0.557261
     7  C   -0.089530   0.263470   0.248567  -0.051930   0.005693   0.003084
     8  H    0.008187  -0.021680  -0.016432   0.008042  -0.000185  -0.000153
     9  H   -0.003608  -0.023031  -0.012333  -0.013094   0.000116   0.000405
    10  C    0.025631   0.098705   0.015143  -0.078282   0.039435   0.002152
    11  H    0.016666  -0.054695   0.007881  -0.005977  -0.003154  -0.000025
    12  C   -0.131781   0.046470   0.002944   0.122513  -0.015627  -0.001448
    13  H    0.004868   0.005204  -0.036822  -0.014116   0.000201  -0.003879
    14  H   -0.035280   0.398883   0.004160   0.007552  -0.001865  -0.000033
    15  H    0.004503   0.003874   0.407129  -0.015792  -0.000119  -0.003941
    16  N   -0.082425  -0.013821  -0.005086   0.036391   0.002099  -0.005352
    17  N    0.073837  -0.021386  -0.011826  -0.036518  -0.008293  -0.001162
    18  C   -0.002075   0.000870   0.003430   0.005163  -0.000246   0.007286
    19  C   -0.045025   0.009156  -0.001275   0.004706  -0.002725  -0.000083
    20  O   -0.003307  -0.001866   0.000147   0.000142   0.000180   0.000002
    21  O    0.000593   0.000015   0.000297  -0.004343  -0.000003  -0.000914
    22  O   -0.007068  -0.005631  -0.000011   0.001364   0.006198   0.000007
    23  O    0.001518   0.000176  -0.000266  -0.006663   0.000765   0.010374
    24  C   -0.000062  -0.000003  -0.000017  -0.000563  -0.000013   0.000248
    25  H    0.000014  -0.000001  -0.000005   0.000020  -0.000007  -0.000229
    26  H   -0.000022   0.000001   0.000000   0.000046   0.000003   0.000225
    27  H    0.000089  -0.000007   0.000088   0.000065   0.000007  -0.000375
    28  C   -0.000240  -0.001782  -0.000004  -0.000018   0.000000   0.000000
    29  H   -0.000015  -0.000551  -0.000007  -0.000013   0.000095   0.000000
    30  H   -0.000019   0.000008  -0.000001   0.000009   0.000015   0.000000
    31  H    0.000008   0.000053   0.000001  -0.000007  -0.000088   0.000000
               7          8          9         10         11         12
     1  C   -0.089530   0.008187  -0.003608   0.025631   0.016666  -0.131781
     2  C    0.263470  -0.021680  -0.023031   0.098705  -0.054695   0.046470
     3  C    0.248567  -0.016432  -0.012333   0.015143   0.007881   0.002944
     4  C   -0.051930   0.008042  -0.013094  -0.078282  -0.005977   0.122513
     5  H    0.005693  -0.000185   0.000116   0.039435  -0.003154  -0.015627
     6  H    0.003084  -0.000153   0.000405   0.002152  -0.000025  -0.001448
     7  C    4.722829   0.385010   0.369547  -0.041110   0.004890  -0.038080
     8  H    0.385010   0.597857  -0.018327  -0.004108   0.000048  -0.008533
     9  H    0.369547  -0.018327   0.589652   0.009694  -0.000196   0.008290
    10  C   -0.041110  -0.004108   0.009694   5.307712   0.438544   0.144357
    11  H    0.004890   0.000048  -0.000196   0.438544   0.549388  -0.044298
    12  C   -0.038080  -0.008533   0.008290   0.144357  -0.044298   5.495440
    13  H    0.004009   0.000244  -0.000172  -0.050147  -0.004315   0.452744
    14  H   -0.014353  -0.002336  -0.001377  -0.027985  -0.004861   0.006999
    15  H   -0.016869  -0.002222  -0.001930   0.005734  -0.000068  -0.023467
    16  N   -0.001748   0.000053   0.027903   0.003331  -0.000017   0.002846
    17  N    0.007941   0.000060  -0.010867   0.001120  -0.000020   0.008187
    18  C   -0.001060  -0.000007  -0.000162   0.000200   0.000001  -0.001579
    19  C   -0.000407  -0.000179  -0.001194  -0.000573  -0.000049   0.000369
    20  O   -0.003844   0.000071   0.012376   0.000214  -0.000002  -0.000017
    21  O   -0.000080  -0.000001   0.000008  -0.000004   0.000000  -0.000082
    22  O   -0.000159  -0.000024   0.000353   0.000521   0.000050  -0.000103
    23  O    0.000007   0.000000   0.000081  -0.000074   0.000000   0.000556
    24  C    0.000002   0.000000  -0.000002   0.000003   0.000000  -0.000021
    25  H    0.000000   0.000000   0.000000   0.000001   0.000000   0.000000
    26  H    0.000000   0.000000  -0.000001   0.000000   0.000000   0.000005
    27  H   -0.000003   0.000000   0.000000   0.000007   0.000000  -0.000125
    28  C    0.000124  -0.000001  -0.000015   0.000064  -0.000002   0.000003
    29  H    0.000076   0.000022   0.000027  -0.000048  -0.000006   0.000006
    30  H    0.000016  -0.000001  -0.000026   0.000000   0.000000   0.000000
    31  H   -0.000006   0.000000   0.000000   0.000005   0.000001   0.000000
              13         14         15         16         17         18
     1  C    0.004868  -0.035280   0.004503  -0.082425   0.073837  -0.002075
     2  C    0.005204   0.398883   0.003874  -0.013821  -0.021386   0.000870
     3  C   -0.036822   0.004160   0.407129  -0.005086  -0.011826   0.003430
     4  C   -0.014116   0.007552  -0.015792   0.036391  -0.036518   0.005163
     5  H    0.000201  -0.001865  -0.000119   0.002099  -0.008293  -0.000246
     6  H   -0.003879  -0.000033  -0.003941  -0.005352  -0.001162   0.007286
     7  C    0.004009  -0.014353  -0.016869  -0.001748   0.007941  -0.001060
     8  H    0.000244  -0.002336  -0.002222   0.000053   0.000060  -0.000007
     9  H   -0.000172  -0.001377  -0.001930   0.027903  -0.010867  -0.000162
    10  C   -0.050147  -0.027985   0.005734   0.003331   0.001120   0.000200
    11  H   -0.004315  -0.004861  -0.000068  -0.000017  -0.000020   0.000001
    12  C    0.452744   0.006999  -0.023467   0.002846   0.008187  -0.001579
    13  H    0.570719   0.000000  -0.003818   0.000035  -0.000032  -0.000003
    14  H    0.000000   0.576747  -0.000220   0.000615  -0.004673  -0.000039
    15  H   -0.003818  -0.000220   0.569793  -0.001174   0.000106   0.000252
    16  N    0.000035   0.000615  -0.001174   6.949207   0.224417   0.348208
    17  N   -0.000032  -0.004673   0.000106   0.224417   6.922964  -0.051392
    18  C   -0.000003  -0.000039   0.000252   0.348208  -0.051392   4.408522
    19  C   -0.000001   0.008199   0.000006  -0.054096   0.281996   0.004450
    20  O    0.000000  -0.000258  -0.000003   0.002703  -0.089727  -0.000310
    21  O   -0.000001   0.000000   0.000468  -0.096137   0.003289   0.706511
    22  O    0.000000   0.006340   0.000000   0.003309  -0.103963  -0.000171
    23  O   -0.000001  -0.000001  -0.000011  -0.107070   0.003094   0.328808
    24  C    0.000000   0.000000  -0.000002   0.004652   0.000057  -0.030788
    25  H    0.000000   0.000000   0.000000   0.000023   0.000035   0.004694
    26  H    0.000000   0.000000  -0.000001   0.000492  -0.000093  -0.006117
    27  H   -0.000001   0.000000   0.000011   0.000062  -0.000068  -0.000906
    28  C    0.000000   0.001441   0.000000  -0.000108   0.005365   0.000006
    29  H    0.000000   0.001092   0.000000  -0.000007   0.000101   0.000001
    30  H    0.000000   0.000183   0.000000  -0.000014   0.000326   0.000000
    31  H    0.000000  -0.000355   0.000000   0.000003   0.000017   0.000000
              19         20         21         22         23         24
     1  C   -0.045025  -0.003307   0.000593  -0.007068   0.001518  -0.000062
     2  C    0.009156  -0.001866   0.000015  -0.005631   0.000176  -0.000003
     3  C   -0.001275   0.000147   0.000297  -0.000011  -0.000266  -0.000017
     4  C    0.004706   0.000142  -0.004343   0.001364  -0.006663  -0.000563
     5  H   -0.002725   0.000180  -0.000003   0.006198   0.000765  -0.000013
     6  H   -0.000083   0.000002  -0.000914   0.000007   0.010374   0.000248
     7  C   -0.000407  -0.003844  -0.000080  -0.000159   0.000007   0.000002
     8  H   -0.000179   0.000071  -0.000001  -0.000024   0.000000   0.000000
     9  H   -0.001194   0.012376   0.000008   0.000353   0.000081  -0.000002
    10  C   -0.000573   0.000214  -0.000004   0.000521  -0.000074   0.000003
    11  H   -0.000049  -0.000002   0.000000   0.000050   0.000000   0.000000
    12  C    0.000369  -0.000017  -0.000082  -0.000103   0.000556  -0.000021
    13  H   -0.000001   0.000000  -0.000001   0.000000  -0.000001   0.000000
    14  H    0.008199  -0.000258   0.000000   0.006340  -0.000001   0.000000
    15  H    0.000006  -0.000003   0.000468   0.000000  -0.000011  -0.000002
    16  N   -0.054096   0.002703  -0.096137   0.003309  -0.107070   0.004652
    17  N    0.281996  -0.089727   0.003289  -0.103963   0.003094   0.000057
    18  C    0.004450  -0.000310   0.706511  -0.000171   0.328808  -0.030788
    19  C    4.427675   0.696356  -0.000166   0.376879  -0.000870   0.000043
    20  O    0.696356   7.728039   0.000003  -0.084064  -0.000001   0.000000
    21  O   -0.000166   0.000003   7.797241   0.000000  -0.095439  -0.002148
    22  O    0.376879  -0.084064   0.000000   7.975326   0.000005   0.000000
    23  O   -0.000870  -0.000001  -0.095439   0.000005   8.048224   0.266645
    24  C    0.000043   0.000000  -0.002148   0.000000   0.266645   4.420351
    25  H   -0.000001   0.000000   0.000912   0.000000  -0.023114   0.401029
    26  H    0.000009   0.000000   0.008421   0.000000  -0.027635   0.408133
    27  H    0.000000   0.000000   0.006863   0.000000  -0.033068   0.403668
    28  C   -0.031724  -0.002810   0.000000   0.262061   0.000000   0.000000
    29  H   -0.000494   0.006748   0.000000  -0.032485   0.000000   0.000000
    30  H   -0.005432   0.006081   0.000000  -0.025913   0.000000   0.000000
    31  H    0.004597   0.000739   0.000000  -0.021734   0.000000   0.000000
              25         26         27         28         29         30
     1  C    0.000014  -0.000022   0.000089  -0.000240  -0.000015  -0.000019
     2  C   -0.000001   0.000001  -0.000007  -0.001782  -0.000551   0.000008
     3  C   -0.000005   0.000000   0.000088  -0.000004  -0.000007  -0.000001
     4  C    0.000020   0.000046   0.000065  -0.000018  -0.000013   0.000009
     5  H   -0.000007   0.000003   0.000007   0.000000   0.000095   0.000015
     6  H   -0.000229   0.000225  -0.000375   0.000000   0.000000   0.000000
     7  C    0.000000   0.000000  -0.000003   0.000124   0.000076   0.000016
     8  H    0.000000   0.000000   0.000000  -0.000001   0.000022  -0.000001
     9  H    0.000000  -0.000001   0.000000  -0.000015   0.000027  -0.000026
    10  C    0.000001   0.000000   0.000007   0.000064  -0.000048   0.000000
    11  H    0.000000   0.000000   0.000000  -0.000002  -0.000006   0.000000
    12  C    0.000000   0.000005  -0.000125   0.000003   0.000006   0.000000
    13  H    0.000000   0.000000  -0.000001   0.000000   0.000000   0.000000
    14  H    0.000000   0.000000   0.000000   0.001441   0.001092   0.000183
    15  H    0.000000  -0.000001   0.000011   0.000000   0.000000   0.000000
    16  N    0.000023   0.000492   0.000062  -0.000108  -0.000007  -0.000014
    17  N    0.000035  -0.000093  -0.000068   0.005365   0.000101   0.000326
    18  C    0.004694  -0.006117  -0.000906   0.000006   0.000001   0.000000
    19  C   -0.000001   0.000009   0.000000  -0.031724  -0.000494  -0.005432
    20  O    0.000000   0.000000   0.000000  -0.002810   0.006748   0.006081
    21  O    0.000912   0.008421   0.006863   0.000000   0.000000   0.000000
    22  O    0.000000   0.000000   0.000000   0.262061  -0.032485  -0.025913
    23  O   -0.023114  -0.027635  -0.033068   0.000000   0.000000   0.000000
    24  C    0.401029   0.408133   0.403668   0.000000   0.000000   0.000000
    25  H    0.597411  -0.022776  -0.023010   0.000000   0.000000   0.000000
    26  H   -0.022776   0.617579  -0.033607   0.000000   0.000000   0.000000
    27  H   -0.023010  -0.033607   0.626311   0.000000   0.000000   0.000000
    28  C    0.000000   0.000000   0.000000   4.431084   0.402870   0.409449
    29  H    0.000000   0.000000   0.000000   0.402870   0.609489  -0.031793
    30  H    0.000000   0.000000   0.000000   0.409449  -0.031793   0.602340
    31  H    0.000000   0.000000   0.000000   0.402964  -0.020792  -0.020987
              31
     1  C    0.000008
     2  C    0.000053
     3  C    0.000001
     4  C   -0.000007
     5  H   -0.000088
     6  H    0.000000
     7  C   -0.000006
     8  H    0.000000
     9  H    0.000000
    10  C    0.000005
    11  H    0.000001
    12  C    0.000000
    13  H    0.000000
    14  H   -0.000355
    15  H    0.000000
    16  N    0.000003
    17  N    0.000017
    18  C    0.000000
    19  C    0.004597
    20  O    0.000739
    21  O    0.000000
    22  O   -0.021734
    23  O    0.000000
    24  C    0.000000
    25  H    0.000000
    26  H    0.000000
    27  H    0.000000
    28  C    0.402964
    29  H   -0.020792
    30  H   -0.020987
    31  H    0.580055
 Mulliken charges:
               1
     1  C   -0.043888
     2  C   -0.203720
     3  C   -0.144291
     4  C   -0.095614
     5  H    0.103950
     6  H    0.083837
     7  C    0.243913
     8  H    0.074593
     9  H    0.067882
    10  C    0.109758
    11  H    0.100215
    12  C   -0.026567
    13  H    0.075283
    14  H    0.081424
    15  H    0.077759
    16  N   -0.239295
    17  N   -0.192890
    18  C    0.276454
    19  C    0.329855
    20  O   -0.267592
    21  O   -0.325305
    22  O   -0.351088
    23  O   -0.366038
    24  C    0.128788
    25  H    0.065002
    26  H    0.055338
    27  H    0.054000
    28  C    0.121272
    29  H    0.065684
    30  H    0.065758
    31  H    0.075525
 Sum of Mulliken charges =   0.00000
 Mulliken charges with hydrogens summed into heavy atoms:
               1
     1  C    0.060062
     2  C   -0.122296
     3  C   -0.066532
     4  C   -0.011777
     7  C    0.386388
    10  C    0.209973
    12  C    0.048716
    16  N   -0.239295
    17  N   -0.192890
    18  C    0.276454
    19  C    0.329855
    20  O   -0.267592
    21  O   -0.325305
    22  O   -0.351088
    23  O   -0.366038
    24  C    0.303128
    28  C    0.328239
 APT charges:
               1
     1  C   -1.362793
     2  C    0.369254
     3  C    0.041827
     4  C   -0.339859
     5  H    0.172826
     6  H    0.146384
     7  C   -0.019680
     8  H    0.025492
     9  H    0.076370
    10  C    0.244018
    11  H    0.111575
    12  C    0.223223
    13  H    0.090230
    14  H    0.080089
    15  H    0.093509
    16  N   -1.116671
    17  N    0.531758
    18  C    2.082685
    19  C    1.776902
    20  O   -1.003643
    21  O   -1.223418
    22  O   -1.054534
    23  O   -1.111798
    24  C    0.633284
    25  H   -0.002100
    26  H   -0.026163
    27  H   -0.032821
    28  C    0.600511
    29  H   -0.014304
    30  H   -0.011095
    31  H    0.018942
 Sum of APT charges =   0.00000
 APT charges with hydrogens summed into heavy atoms:
               1
     1  C   -1.189966
     2  C    0.449343
     3  C    0.135336
     4  C   -0.193476
     7  C    0.082182
    10  C    0.355593
    12  C    0.313452
    16  N   -1.116671
    17  N    0.531758
    18  C    2.082685
    19  C    1.776902
    20  O   -1.003643
    21  O   -1.223418
    22  O   -1.054534
    23  O   -1.111798
    24  C    0.572201
    28  C    0.594054
 Electronic spatial extent (au):  <R**2>=           3654.3680
 Charge=              0.0000 electrons
 Dipole moment (field-independent basis, Debye):
    X=              4.7886    Y=              7.1050    Z=             -7.0184  Tot=             11.0756
 Quadrupole moment (field-independent basis, Debye-Ang):
   XX=            -85.4473   YY=            -86.6200   ZZ=           -103.8274
   XY=             -2.4321   XZ=              4.6679   YZ=              4.0474
 Traceless Quadrupole moment (field-independent basis, Debye-Ang):
   XX=              6.5176   YY=              5.3449   ZZ=            -11.8625
   XY=             -2.4321   XZ=              4.6679   YZ=              4.0474
 Octapole moment (field-independent basis, Debye-Ang**2):
  XXX=             42.4432  YYY=              7.7351  ZZZ=            -23.2616  XYY=              4.0869
  XXY=            -15.8771  XXZ=            -56.5543  XZZ=              7.6507  YZZ=             16.5755
  YYZ=            -18.1345  XYZ=             -3.6425
 Hexadecapole moment (field-independent basis, Debye-Ang**3):
 XXXX=          -2174.6641 YYYY=          -1538.5673 ZZZZ=           -585.2198 XXXY=            -70.1888
 XXXZ=             86.4884 YYYX=            -38.1489 YYYZ=            -21.7197 ZZZX=              6.6119
 ZZZY=             19.5810 XXYY=           -608.5278 XXZZ=           -512.4930 YYZZ=           -367.2418
 XXYZ=             58.5012 YYXZ=            -25.8530 ZZXY=             12.6107
 N-N= 1.317953165294D+03 E-N=-4.588046350141D+03  KE= 8.291789425977D+02
  Exact polarizability: 216.239  46.566 260.208 -22.759 -38.378 164.709
 Approx polarizability: 196.255  47.949 247.799 -30.414 -48.017 176.854
   1 Symmetry operations used in ECPInt.
 ECPInt:  NShTT=   10440 NPrTT=   37938 LenC2=    9938 LenP2D=   26204.
 LDataN:  DoStor=T MaxTD1= 6 Len=  172
 D2PCM: C-PCM CHGder 2nd derivatives, FixD1E=F FixD2E=F DoIter=F DoCFld=F I1PDM=0
 Calling FoFJK, ICntrl=    100127 FMM=F ISym2X=0 I1Cent= 0 IOpClX= 0 NMat=1 NMatS=1 NMatT=0.
 Full mass-weighted force constant matrix:
 Low frequencies --- -641.1255  -30.2645  -12.7032    0.0006    0.0009    0.0012
 Low frequencies ---    7.9484   36.0035   57.2098
 ******    1 imaginary frequencies (negative Signs) ****** 
 Diagonal vibrational polarizability:
      130.4296677     278.7219593      53.0565449
 Harmonic frequencies (cm**-1), IR intensities (KM/Mole), Raman scattering
 activities (A**4/AMU), depolarization ratios for plane and unpolarized
 incident light, reduced masses (AMU), force constants (mDyne/A),
 and normal coordinates:
                      1                      2                      3
                      A                      A                      A
 Frequencies --   -641.1254                29.6463                56.7592
 Red. masses --      9.3663                 3.6090                 5.7744
 Frc consts  --      2.2683                 0.0019                 0.0110
 IR Inten    --   3243.7254                 0.5852                 1.9285
  Atom  AN      X      Y      Z        X      Y      Z        X      Y      Z
     1   6     0.20   0.61  -0.24    -0.08   0.02  -0.03    -0.01  -0.04   0.02
     2   6     0.03  -0.04   0.08     0.03   0.02  -0.19     0.00  -0.04   0.02
     3   6     0.01   0.00   0.03     0.14  -0.02   0.10     0.02   0.03  -0.02
     4   6    -0.05   0.08  -0.03    -0.03   0.00   0.15     0.01   0.00   0.00
     5   1     0.07  -0.29   0.06    -0.22   0.02  -0.05    -0.01  -0.04   0.02
     6   1    -0.04  -0.13   0.10    -0.07   0.00   0.27     0.00   0.02   0.00
     7   6     0.01   0.00   0.03     0.21  -0.01  -0.09    -0.01   0.00   0.01
     8   1    -0.01   0.02   0.03     0.28  -0.02  -0.16     0.01   0.00   0.00
     9   1     0.04   0.03   0.09     0.31  -0.02  -0.09    -0.03   0.01   0.02
    10   6    -0.04  -0.18  -0.11    -0.12   0.04  -0.11     0.04  -0.05  -0.01
    11   1     0.18   0.07   0.08    -0.26   0.06  -0.18     0.05  -0.08  -0.01
    12   6    -0.09  -0.02   0.01    -0.05   0.01   0.09     0.04  -0.01  -0.04
    13   1     0.05   0.14   0.22    -0.12   0.01   0.17     0.07  -0.01  -0.07
    14   1     0.04  -0.03   0.12     0.02   0.04  -0.34    -0.01  -0.06   0.04
    15   1     0.02  -0.03   0.06     0.23  -0.05   0.22     0.02   0.07  -0.03
    16   7     0.10  -0.07  -0.03    -0.02   0.02   0.01    -0.02  -0.06   0.00
    17   7    -0.16  -0.33   0.09    -0.01   0.00   0.02    -0.02  -0.03   0.00
    18   6    -0.09   0.01  -0.05    -0.02  -0.02  -0.02    -0.02  -0.10   0.00
    19   6     0.04  -0.02   0.04    -0.02   0.01   0.04     0.01   0.06   0.02
    20   8     0.03   0.02   0.03    -0.04  -0.01   0.05     0.10   0.33   0.07
    21   8     0.04   0.01   0.01    -0.04  -0.07  -0.05    -0.02  -0.31   0.02
    22   8    -0.03  -0.01   0.02     0.01   0.02   0.06    -0.06  -0.14  -0.02
    23   8     0.00  -0.01   0.03     0.02   0.02  -0.04    -0.02   0.14  -0.03
    24   6    -0.02   0.00  -0.01     0.03   0.00  -0.08    -0.02   0.20  -0.03
    25   1     0.02   0.00  -0.01     0.07   0.02  -0.08    -0.02   0.44  -0.06
    26   1     0.00  -0.01  -0.01     0.04  -0.02  -0.11    -0.01   0.08  -0.21
    27   1     0.02   0.01   0.00     0.00  -0.02  -0.07    -0.03   0.13   0.19
    28   6    -0.01   0.00   0.00    -0.01  -0.02   0.09    -0.02  -0.01  -0.02
    29   1    -0.02   0.01  -0.01    -0.01  -0.05   0.13     0.02   0.23  -0.27
    30   1     0.00   0.00   0.00    -0.04  -0.03   0.06     0.07   0.11   0.29
    31   1    -0.03   0.01  -0.01     0.02   0.00   0.10    -0.11  -0.29  -0.07
                      4                      5                      6
                      A                      A                      A
 Frequencies --     60.8966                71.4189                95.9947
 Red. masses --      3.6878                 5.2665                 3.5060
 Frc consts  --      0.0081                 0.0158                 0.0190
 IR Inten    --      2.9832                 0.6008                 3.4672
  Atom  AN      X      Y      Z        X      Y      Z        X      Y      Z
     1   6     0.03   0.05   0.02    -0.02  -0.04   0.00    -0.02   0.05   0.02
     2   6     0.05   0.01   0.03    -0.03  -0.02  -0.01    -0.04   0.09   0.02
     3   6     0.07   0.05   0.04    -0.04  -0.13   0.07    -0.07   0.05   0.00
     4   6     0.05   0.07   0.03    -0.03  -0.09   0.05    -0.05   0.02   0.00
     5   1     0.03   0.07   0.01    -0.03   0.01  -0.02    -0.01   0.03   0.03
     6   1     0.05   0.09   0.02    -0.03  -0.09   0.05    -0.04  -0.02   0.01
     7   6     0.05   0.00   0.03     0.00  -0.10   0.02    -0.06   0.10   0.01
     8   1     0.07  -0.02   0.05    -0.02  -0.09   0.03    -0.08   0.13   0.00
     9   1     0.02   0.00   0.02     0.05  -0.13  -0.02    -0.03   0.11   0.03
    10   6     0.08   0.03   0.05    -0.08   0.02   0.05    -0.07   0.06   0.00
    11   1     0.09   0.03   0.05    -0.13   0.07   0.04    -0.07   0.06   0.00
    12   6     0.09   0.06   0.05    -0.09  -0.06   0.10    -0.09   0.03  -0.02
    13   1     0.12   0.08   0.06    -0.14  -0.07   0.15    -0.11   0.01  -0.03
    14   1     0.04  -0.02   0.03    -0.01   0.03  -0.05    -0.03   0.10   0.03
    15   1     0.08   0.06   0.04    -0.04  -0.20   0.10    -0.09   0.04  -0.01
    16   7    -0.03   0.07  -0.02     0.02  -0.03  -0.02     0.04   0.02   0.05
    17   7    -0.03   0.06  -0.01     0.01  -0.04  -0.02     0.04   0.04   0.05
    18   6    -0.03   0.01  -0.02     0.02   0.06  -0.03     0.05  -0.01   0.02
    19   6    -0.04   0.05  -0.02     0.04   0.03  -0.01     0.04   0.00   0.02
    20   8    -0.01   0.13   0.00     0.11   0.24   0.03     0.04  -0.04   0.00
    21   8    -0.04  -0.01  -0.03     0.01   0.31  -0.06     0.02  -0.05  -0.01
    22   8    -0.08  -0.06  -0.04    -0.02  -0.12  -0.04     0.00  -0.02   0.00
    23   8    -0.02  -0.04  -0.02     0.03  -0.13  -0.01     0.10   0.01   0.00
    24   6    -0.02  -0.33  -0.01     0.04   0.06  -0.05     0.12   0.03  -0.06
    25   1     0.00  -0.41   0.00     0.04  -0.16  -0.02     0.16   0.03  -0.06
    26   1     0.15  -0.41   0.04    -0.14   0.27   0.11     0.08   0.04  -0.08
    27   1    -0.21  -0.42  -0.06     0.22   0.22  -0.27     0.12   0.04  -0.08
    28   6    -0.08  -0.08  -0.05     0.01  -0.04  -0.04    -0.08  -0.32  -0.08
    29   1    -0.02  -0.02  -0.17     0.05   0.15  -0.25     0.09  -0.48  -0.06
    30   1    -0.10  -0.03   0.07     0.07   0.07   0.21    -0.29  -0.35  -0.16
    31   1    -0.13  -0.23  -0.08    -0.07  -0.27  -0.08    -0.12  -0.36  -0.10
                      7                      8                      9
                      A                      A                      A
 Frequencies --    106.6395               148.8506               153.8677
 Red. masses --      3.9125                 1.1716                 2.2559
 Frc consts  --      0.0262                 0.0153                 0.0315
 IR Inten    --      2.0137                 0.2098                10.3121
  Atom  AN      X      Y      Z        X      Y      Z        X      Y      Z
     1   6     0.06   0.04  -0.08     0.00  -0.01   0.00    -0.01  -0.02  -0.04
     2   6     0.01   0.06  -0.03     0.01  -0.01   0.00    -0.02  -0.04  -0.02
     3   6    -0.05  -0.11   0.00     0.01   0.00   0.00    -0.03  -0.08  -0.01
     4   6     0.02  -0.02  -0.07     0.01   0.00   0.00    -0.02  -0.04  -0.04
     5   1     0.11   0.10  -0.09     0.00   0.00   0.00    -0.01  -0.05  -0.03
     6   1     0.04  -0.05  -0.13     0.01   0.00   0.00    -0.01  -0.02  -0.06
     7   6    -0.02  -0.07  -0.02     0.00  -0.01   0.00    -0.03  -0.09  -0.02
     8   1    -0.07  -0.08   0.04     0.01  -0.01   0.00    -0.05  -0.09   0.01
     9   1     0.02  -0.12  -0.09     0.00  -0.01   0.00    -0.03  -0.10  -0.04
    10   6    -0.02   0.11   0.04     0.01  -0.01   0.00    -0.03  -0.03   0.00
    11   1    -0.04   0.19   0.06     0.01  -0.01   0.00    -0.03  -0.01   0.01
    12   6    -0.05   0.01   0.07     0.01   0.00   0.00    -0.03  -0.04   0.02
    13   1    -0.10   0.01   0.12     0.02   0.00   0.00    -0.03  -0.03   0.05
    14   1     0.04   0.10  -0.06     0.00  -0.01   0.00    -0.02  -0.04  -0.03
    15   1    -0.08  -0.21   0.01     0.01   0.00   0.00    -0.05  -0.12   0.00
    16   7     0.04   0.03  -0.12    -0.01  -0.01   0.00     0.01   0.05   0.04
    17   7     0.04   0.03  -0.12    -0.01   0.00   0.00     0.01   0.00   0.05
    18   6     0.02   0.02  -0.03    -0.01  -0.01   0.00     0.02   0.09   0.02
    19   6     0.02   0.03  -0.04     0.00   0.02   0.00     0.01  -0.01   0.03
    20   8    -0.06   0.06   0.00     0.02   0.08   0.01     0.03   0.00   0.02
    21   8     0.09  -0.03   0.04    -0.01   0.00   0.00     0.00   0.06   0.00
    22   8     0.11  -0.02   0.03    -0.01   0.00   0.00    -0.03  -0.02   0.00
    23   8    -0.09   0.06  -0.02    -0.01  -0.03   0.00     0.05   0.18   0.00
    24   6    -0.14  -0.01   0.14    -0.01   0.01   0.00     0.07  -0.07  -0.02
    25   1    -0.25   0.13   0.12    -0.02  -0.04   0.01     0.13   0.34  -0.08
    26   1    -0.01  -0.11   0.10    -0.04   0.05   0.04     0.29  -0.42  -0.35
    27   1    -0.18  -0.08   0.32     0.02   0.04  -0.04    -0.22  -0.32   0.34
    28   6     0.04  -0.16   0.17    -0.01  -0.02  -0.01     0.00   0.03  -0.04
    29   1     0.05  -0.20   0.20    -0.17  -0.35   0.43    -0.05  -0.02   0.04
    30   1    -0.11  -0.14   0.20    -0.02  -0.24  -0.54     0.05  -0.02  -0.16
    31   1     0.14  -0.24   0.22     0.15   0.51   0.08     0.00   0.18  -0.03
                     10                     11                     12
                      A                      A                      A
 Frequencies --    170.8852               187.7804               196.7804
 Red. masses --      1.7306                 3.5170                 3.7402
 Frc consts  --      0.0298                 0.0731                 0.0853
 IR Inten    --      2.5833                 1.4705                 4.5291
  Atom  AN      X      Y      Z        X      Y      Z        X      Y      Z
     1   6     0.00  -0.01   0.06    -0.03  -0.02   0.08     0.21  -0.02   0.03
     2   6     0.00   0.04   0.02    -0.03   0.03   0.03     0.12   0.16   0.00
     3   6     0.02   0.07   0.02    -0.01   0.09   0.03    -0.02  -0.11  -0.02
     4   6     0.00  -0.01   0.07    -0.04  -0.03   0.10     0.12  -0.13  -0.06
     5   1    -0.01   0.01   0.05    -0.06   0.01   0.06     0.32  -0.06   0.06
     6   1     0.00  -0.02   0.09    -0.04  -0.03   0.13     0.17  -0.27  -0.12
     7   6     0.03   0.10   0.02     0.00   0.12   0.03     0.08   0.11   0.00
     8   1     0.04   0.13  -0.02     0.02   0.16  -0.03    -0.05   0.24  -0.03
     9   1     0.04   0.13   0.07     0.01   0.16   0.10     0.24   0.11   0.04
    10   6    -0.01   0.00  -0.01    -0.05  -0.02  -0.02    -0.02   0.13   0.01
    11   1    -0.02  -0.03  -0.02    -0.05  -0.05  -0.03    -0.09   0.17  -0.01
    12   6    -0.01   0.00  -0.03    -0.05  -0.01  -0.03    -0.09  -0.04   0.01
    13   1    -0.03  -0.03  -0.07    -0.08  -0.06  -0.10    -0.22  -0.11   0.01
    14   1     0.01   0.04   0.04    -0.03   0.03   0.05     0.18   0.28   0.02
    15   1     0.03   0.11   0.01     0.00   0.14   0.02    -0.09  -0.26  -0.04
    16   7     0.00  -0.07  -0.03     0.02  -0.08  -0.04    -0.04   0.05   0.02
    17   7     0.00  -0.04  -0.03     0.02  -0.07  -0.05    -0.01   0.00   0.05
    18   6    -0.01  -0.02  -0.03     0.02   0.06  -0.04    -0.04   0.00   0.00
    19   6     0.01  -0.02  -0.02     0.02  -0.09  -0.04    -0.03  -0.04   0.05
    20   8     0.01   0.00  -0.01     0.03  -0.02  -0.02     0.00  -0.05   0.04
    21   8     0.00   0.08  -0.03     0.04   0.03  -0.02    -0.05  -0.05  -0.01
    22   8     0.02  -0.03  -0.01     0.02  -0.17  -0.03    -0.09  -0.08   0.01
    23   8    -0.03  -0.09  -0.02    -0.01   0.23  -0.05    -0.04   0.01   0.00
    24   6    -0.04   0.00   0.01    -0.03  -0.07   0.03    -0.04   0.02  -0.01
    25   1    -0.06   0.55  -0.06    -0.08  -0.50   0.09    -0.03  -0.01  -0.01
    26   1     0.03  -0.30  -0.39     0.11   0.06   0.38    -0.06   0.05   0.01
    27   1    -0.10  -0.18   0.52    -0.14  -0.03  -0.33    -0.02   0.04  -0.05
    28   6     0.02  -0.02   0.01     0.07   0.01   0.04    -0.03   0.06  -0.09
    29   1     0.00  -0.02   0.03    -0.08   0.05   0.12    -0.07   0.09  -0.09
    30   1     0.02  -0.02  -0.01     0.19  -0.01  -0.02     0.12   0.04  -0.14
    31   1     0.04   0.01   0.02     0.15   0.14   0.08    -0.09   0.17  -0.11
                     13                     14                     15
                      A                      A                      A
 Frequencies --    214.8790               274.8559               305.0275
 Red. masses --      4.9210                 4.3588                 6.6148
 Frc consts  --      0.1339                 0.1940                 0.3626
 IR Inten    --     11.8522                 7.3424                26.5594
  Atom  AN      X      Y      Z        X      Y      Z        X      Y      Z
     1   6     0.04  -0.08   0.06    -0.07   0.04  -0.04     0.00   0.04   0.00
     2   6     0.03  -0.03   0.03    -0.05   0.00  -0.05    -0.01  -0.09   0.11
     3   6     0.02  -0.04   0.00    -0.01   0.05   0.00     0.01  -0.02   0.04
     4   6     0.02  -0.11   0.04    -0.04   0.11  -0.03    -0.05  -0.14   0.12
     5   1     0.04  -0.11   0.07    -0.10   0.05  -0.05    -0.05  -0.04   0.02
     6   1     0.03  -0.14   0.06    -0.05   0.18  -0.04    -0.06  -0.20   0.19
     7   6     0.04   0.02   0.02    -0.05  -0.07  -0.04     0.02   0.06   0.09
     8   1     0.03   0.07  -0.02    -0.01  -0.16   0.04     0.03   0.16  -0.05
     9   1     0.07   0.05   0.08    -0.12  -0.11  -0.12     0.06   0.14   0.24
    10   6     0.00  -0.10  -0.02     0.01   0.07   0.01    -0.05  -0.24  -0.03
    11   1    -0.01  -0.14  -0.03     0.01   0.08   0.01     0.02  -0.26   0.00
    12   6    -0.01  -0.10  -0.04     0.03   0.09   0.03    -0.04  -0.16  -0.03
    13   1    -0.03  -0.13  -0.08     0.06   0.12   0.06    -0.03  -0.17  -0.08
    14   1     0.04  -0.01   0.05    -0.06  -0.03  -0.07    -0.03  -0.13   0.13
    15   1     0.02  -0.02  -0.01     0.02   0.06   0.02     0.01   0.03   0.02
    16   7    -0.05  -0.07  -0.02    -0.01   0.03  -0.01     0.06   0.41  -0.07
    17   7     0.01  -0.07   0.04     0.09   0.03   0.08     0.04   0.13  -0.03
    18   6    -0.05   0.02  -0.06     0.01  -0.01  -0.10     0.08   0.08  -0.10
    19   6     0.06   0.09   0.06     0.08  -0.05   0.15    -0.02   0.05  -0.01
    20   8     0.08   0.04   0.04     0.08  -0.08   0.15    -0.11   0.01   0.00
    21   8    -0.05   0.04  -0.06    -0.03  -0.01  -0.13     0.08  -0.09  -0.09
    22   8     0.10   0.32   0.07     0.01  -0.12   0.11    -0.03  -0.03  -0.01
    23   8    -0.09   0.12  -0.06    -0.04  -0.04  -0.09     0.06  -0.08  -0.08
    24   6    -0.13  -0.03   0.03    -0.12   0.02   0.13    -0.01   0.05   0.12
    25   1    -0.19  -0.17   0.05    -0.31   0.01   0.13    -0.20   0.09   0.12
    26   1    -0.02  -0.01   0.17    -0.06   0.05   0.23     0.00   0.09   0.19
    27   1    -0.19  -0.04  -0.06    -0.02   0.03   0.22     0.14   0.08   0.24
    28   6    -0.01  -0.08  -0.12     0.09   0.01  -0.17    -0.02   0.03  -0.02
    29   1     0.33  -0.22  -0.25     0.17   0.03  -0.24    -0.04   0.04  -0.02
    30   1    -0.27  -0.06  -0.08     0.30  -0.03  -0.25     0.03   0.02  -0.04
    31   1    -0.17  -0.29  -0.21    -0.11   0.13  -0.27    -0.02   0.06  -0.03
                     16                     17                     18
                      A                      A                      A
 Frequencies --    337.4105               347.5638               425.7733
 Red. masses --      5.3277                 5.2953                 1.9570
 Frc consts  --      0.3574                 0.3769                 0.2090
 IR Inten    --     21.8965                11.1722                13.2618
  Atom  AN      X      Y      Z        X      Y      Z        X      Y      Z
     1   6     0.01   0.02  -0.01    -0.02   0.03  -0.01    -0.05  -0.02  -0.05
     2   6     0.01   0.01   0.00    -0.02  -0.02   0.02    -0.05  -0.10  -0.01
     3   6    -0.01  -0.02  -0.01     0.00   0.02   0.01    -0.05  -0.09   0.00
     4   6     0.00   0.02  -0.03    -0.02  -0.01   0.03    -0.01   0.05  -0.10
     5   1     0.02  -0.07   0.02    -0.04   0.02  -0.02     0.01  -0.02  -0.04
     6   1     0.01   0.01  -0.05    -0.03  -0.01   0.04    -0.02   0.14  -0.15
     7   6     0.00  -0.01   0.00    -0.01   0.00   0.02     0.05   0.13   0.00
     8   1    -0.02   0.00   0.00     0.01  -0.01   0.01     0.02   0.49  -0.40
     9   1     0.02  -0.01   0.00    -0.04   0.00   0.02     0.34   0.32   0.38
    10   6    -0.01  -0.01  -0.01    -0.01  -0.04   0.00     0.01  -0.03   0.05
    11   1    -0.02  -0.01  -0.01     0.01  -0.03   0.01     0.01   0.01   0.06
    12   6     0.00   0.01   0.01     0.00  -0.01   0.00     0.04   0.03   0.10
    13   1     0.02   0.03   0.04     0.01  -0.01  -0.01     0.11   0.09   0.16
    14   1     0.01   0.00  -0.01    -0.03  -0.04   0.02    -0.07  -0.12  -0.01
    15   1    -0.01  -0.04   0.00     0.01   0.04   0.01    -0.07  -0.14   0.01
    16   7    -0.04   0.04   0.12    -0.04   0.22  -0.03    -0.01   0.00   0.01
    17   7     0.00   0.03   0.14     0.05   0.05   0.04    -0.02  -0.01  -0.01
    18   6    -0.03   0.00  -0.03    -0.12   0.05   0.05    -0.01   0.00   0.02
    19   6     0.04   0.01  -0.06     0.10  -0.01   0.00     0.00   0.00  -0.01
    20   8     0.29  -0.07  -0.16     0.19  -0.06  -0.04    -0.02   0.01   0.00
    21   8    -0.17  -0.02  -0.17    -0.03  -0.02   0.16    -0.04   0.00  -0.01
    22   8    -0.03   0.01  -0.13     0.11  -0.07  -0.02     0.04  -0.01   0.00
    23   8     0.03  -0.01  -0.04    -0.20  -0.03   0.07     0.01   0.00   0.01
    24   6    -0.03   0.02   0.14    -0.13  -0.01  -0.26     0.01   0.00   0.01
    25   1    -0.20   0.02   0.15     0.18   0.01  -0.28     0.01   0.00   0.01
    26   1     0.03   0.04   0.24    -0.29  -0.03  -0.45     0.01   0.00   0.01
    27   1     0.03   0.02   0.23    -0.19   0.00  -0.40     0.01   0.00   0.01
    28   6    -0.07  -0.01   0.22     0.14  -0.04   0.01     0.05  -0.01  -0.02
    29   1    -0.26   0.03   0.31     0.11  -0.02   0.01     0.07  -0.02  -0.02
    30   1    -0.21   0.04   0.33     0.17  -0.04   0.02     0.06  -0.02  -0.03
    31   1     0.19  -0.11   0.35     0.15  -0.03   0.01     0.03  -0.01  -0.03
                     19                     20                     21
                      A                      A                      A
 Frequencies --    439.1685               469.9360               523.1021
 Red. masses --      6.3916                 7.6122                 3.0596
 Frc consts  --      0.7263                 0.9905                 0.4933
 IR Inten    --     24.1703                36.9502                15.2756
  Atom  AN      X      Y      Z        X      Y      Z        X      Y      Z
     1   6    -0.04  -0.02  -0.02    -0.01   0.14   0.01    -0.07   0.09  -0.09
     2   6    -0.04  -0.06  -0.02     0.12   0.08   0.09    -0.02  -0.04  -0.02
     3   6    -0.02  -0.04   0.00     0.02  -0.11  -0.01     0.01  -0.03  -0.01
     4   6    -0.03   0.02  -0.03    -0.07   0.07  -0.09    -0.09  -0.09   0.08
     5   1    -0.03   0.00  -0.02     0.05  -0.13   0.12    -0.17   0.23  -0.15
     6   1    -0.03   0.07  -0.05    -0.07  -0.17   0.07    -0.11  -0.17   0.22
     7   6     0.02   0.05  -0.01     0.06  -0.02   0.04     0.03   0.00  -0.03
     8   1     0.02   0.21  -0.20    -0.07   0.03   0.11     0.08   0.08  -0.17
     9   1     0.16   0.15   0.18     0.17  -0.07   0.01     0.10   0.07   0.10
    10   6     0.03   0.00   0.03    -0.05  -0.21  -0.10     0.21   0.15   0.11
    11   1     0.04   0.02   0.04    -0.13  -0.39  -0.18     0.50   0.36   0.31
    12   6     0.02   0.00   0.03    -0.05  -0.08  -0.03    -0.06  -0.16  -0.14
    13   1     0.05   0.03   0.07     0.15   0.12   0.19    -0.08  -0.15  -0.11
    14   1    -0.05  -0.08  -0.02     0.06  -0.03   0.04    -0.05  -0.11  -0.02
    15   1    -0.01  -0.04   0.01     0.04  -0.09   0.01     0.09   0.10   0.01
    16   7     0.04  -0.07  -0.07     0.01  -0.29   0.09     0.01  -0.04   0.01
    17   7     0.10   0.06   0.03     0.10   0.45   0.08     0.02   0.06   0.01
    18   6     0.10  -0.03  -0.11    -0.01  -0.08   0.01    -0.02  -0.01   0.02
    19   6     0.00   0.02   0.12     0.05   0.16  -0.01     0.01   0.02   0.01
    20   8     0.16  -0.08   0.06    -0.11  -0.02  -0.02     0.00  -0.01   0.00
    21   8     0.31   0.02   0.09    -0.02   0.05  -0.01    -0.05   0.00  -0.01
    22   8    -0.21   0.04   0.02     0.02  -0.10  -0.02     0.00  -0.01   0.00
    23   8    -0.07  -0.01  -0.11    -0.05   0.03   0.00     0.00   0.01   0.03
    24   6    -0.10  -0.01  -0.12    -0.06  -0.01  -0.03     0.01   0.00   0.01
    25   1    -0.09  -0.02  -0.12    -0.01  -0.03  -0.03     0.02   0.00   0.01
    26   1    -0.10  -0.02  -0.12    -0.04  -0.03  -0.04     0.01   0.00   0.01
    27   1    -0.11  -0.01  -0.14    -0.10  -0.02  -0.06     0.00   0.00   0.00
    28   6    -0.28   0.07   0.08     0.07  -0.01  -0.01     0.00   0.00   0.00
    29   1    -0.34   0.08   0.12     0.00   0.04  -0.01    -0.01   0.01   0.00
    30   1    -0.31   0.09   0.13     0.15  -0.01  -0.02     0.01   0.00   0.00
    31   1    -0.19   0.04   0.13     0.07   0.04  -0.01     0.00   0.01   0.00
                     22                     23                     24
                      A                      A                      A
 Frequencies --    625.9020               639.2671               692.5785
 Red. masses --      8.8906                 4.2836                 5.5257
 Frc consts  --      2.0521                 1.0314                 1.5616
 IR Inten    --     31.8270                15.1563                21.1575
  Atom  AN      X      Y      Z        X      Y      Z        X      Y      Z
     1   6     0.03  -0.06   0.04    -0.14   0.02   0.15     0.06   0.05  -0.09
     2   6    -0.06  -0.08  -0.05     0.15   0.23   0.02     0.02   0.02  -0.09
     3   6     0.01   0.05   0.00    -0.09  -0.19  -0.01    -0.15  -0.01   0.06
     4   6     0.04   0.00  -0.01    -0.19   0.06   0.00     0.06  -0.15   0.21
     5   1     0.03  -0.26   0.11    -0.22   0.07   0.12    -0.23   0.11  -0.14
     6   1     0.04  -0.03   0.00    -0.18   0.19  -0.15     0.14   0.20  -0.27
     7   6     0.01  -0.02  -0.04     0.00   0.00  -0.02    -0.18   0.06  -0.10
     8   1     0.11  -0.07  -0.09    -0.34   0.15   0.16    -0.26   0.14  -0.11
     9   1    -0.06   0.02   0.00     0.32  -0.15  -0.18    -0.08   0.06  -0.08
    10   6     0.02   0.10   0.06     0.14   0.01  -0.10     0.05  -0.02  -0.14
    11   1     0.11   0.20   0.13     0.06  -0.09  -0.17    -0.07   0.07  -0.18
    12   6    -0.05   0.02  -0.02     0.12  -0.10  -0.01     0.22   0.00   0.17
    13   1    -0.10  -0.02  -0.06     0.24   0.07   0.26    -0.02  -0.25  -0.11
    14   1    -0.03  -0.01  -0.05     0.04   0.01   0.02     0.03  -0.02   0.14
    15   1     0.00  -0.02   0.02     0.11   0.17   0.02    -0.12   0.15   0.02
    16   7     0.05   0.05   0.39    -0.03   0.07   0.02     0.15  -0.03   0.04
    17   7    -0.05  -0.09   0.36    -0.06  -0.11   0.02     0.16  -0.01   0.02
    18   6     0.10  -0.02  -0.09     0.01   0.03  -0.02     0.06  -0.03   0.06
    19   6    -0.02   0.02  -0.12    -0.03  -0.06  -0.02     0.06   0.02   0.00
    20   8    -0.23   0.09  -0.05     0.00   0.02  -0.01    -0.09   0.00   0.05
    21   8     0.21   0.00  -0.04     0.05  -0.01   0.02    -0.09   0.00  -0.10
    22   8     0.07   0.01  -0.16     0.02   0.01   0.00    -0.02   0.01  -0.08
    23   8    -0.05  -0.01  -0.15     0.01  -0.01  -0.04    -0.07   0.02   0.10
    24   6    -0.19  -0.01  -0.10     0.00   0.00  -0.01    -0.06   0.00  -0.02
    25   1    -0.23  -0.01  -0.10    -0.05   0.00  -0.01     0.12  -0.01  -0.03
    26   1    -0.16  -0.01  -0.08     0.00   0.01   0.01    -0.12  -0.02  -0.11
    27   1    -0.16   0.00  -0.09     0.02   0.00   0.01    -0.13  -0.01  -0.12
    28   6     0.12  -0.03  -0.01     0.02  -0.01   0.00    -0.07   0.02   0.00
    29   1     0.05  -0.01   0.02     0.04  -0.02   0.00    -0.13   0.03   0.04
    30   1     0.05  -0.02   0.02     0.01  -0.01  -0.01    -0.11   0.04   0.04
    31   1     0.23  -0.07   0.04     0.01  -0.01  -0.01     0.05  -0.02   0.05
                     25                     26                     27
                      A                      A                      A
 Frequencies --    722.5246               753.0721               783.7076
 Red. masses --      5.7821                 3.5612                 7.5002
 Frc consts  --      1.7784                 1.1899                 2.7141
 IR Inten    --     58.5904                97.3358                28.7623
  Atom  AN      X      Y      Z        X      Y      Z        X      Y      Z
     1   6    -0.10  -0.08  -0.01     0.10   0.10   0.26     0.05   0.00   0.20
     2   6     0.01   0.08   0.09    -0.02  -0.16  -0.05     0.00  -0.08  -0.02
     3   6     0.12  -0.02  -0.05    -0.07   0.02   0.02    -0.04   0.00  -0.01
     4   6    -0.07   0.10  -0.15    -0.06   0.05  -0.02    -0.07   0.05  -0.02
     5   1     0.08   0.05  -0.03     0.18  -0.13   0.36     0.11  -0.13   0.25
     6   1    -0.17  -0.06   0.26     0.08   0.01  -0.46     0.00  -0.01  -0.21
     7   6     0.11  -0.02   0.12     0.03  -0.06  -0.12     0.03  -0.04  -0.09
     8   1     0.10  -0.06   0.19     0.08  -0.02  -0.22     0.02   0.00  -0.14
     9   1     0.06  -0.06   0.05     0.09  -0.01  -0.04     0.06  -0.01  -0.03
    10   6    -0.05  -0.01   0.06     0.04   0.06   0.03     0.01   0.03   0.04
    11   1     0.08  -0.04   0.13    -0.25  -0.19  -0.18    -0.02  -0.01   0.01
    12   6    -0.09   0.02  -0.08    -0.08  -0.03  -0.03    -0.04   0.00  -0.03
    13   1     0.15   0.25   0.17    -0.15  -0.06  -0.03     0.03   0.08   0.07
    14   1     0.00   0.11  -0.08    -0.06  -0.24  -0.07     0.03   0.01  -0.07
    15   1     0.08  -0.08  -0.07     0.12   0.17   0.17     0.12   0.13   0.10
    16   7     0.22   0.06   0.01     0.07  -0.03  -0.02    -0.08   0.11  -0.17
    17   7     0.14  -0.13  -0.06     0.02   0.05  -0.04     0.11  -0.14   0.06
    18   6     0.14  -0.01   0.08     0.02   0.19  -0.01    -0.12  -0.29   0.00
    19   6     0.09  -0.08   0.00     0.00  -0.08  -0.01     0.23   0.34   0.09
    20   8    -0.07   0.02   0.09     0.01   0.02   0.01    -0.12  -0.09   0.08
    21   8    -0.09  -0.01  -0.17    -0.02  -0.06  -0.05    -0.04   0.09   0.09
    22   8    -0.02   0.03  -0.08     0.00   0.02   0.00    -0.01  -0.05  -0.21
    23   8    -0.10   0.02   0.15    -0.02  -0.04   0.06     0.03   0.07  -0.02
    24   6    -0.09   0.00  -0.03    -0.01   0.00   0.00     0.08   0.01   0.03
    25   1     0.21  -0.01  -0.04     0.08   0.02   0.00    -0.03  -0.02   0.04
    26   1    -0.20  -0.03  -0.18    -0.07   0.00  -0.06     0.18   0.00   0.12
    27   1    -0.19   0.00  -0.18     0.00   0.01  -0.03     0.07  -0.01   0.08
    28   6    -0.10   0.03   0.00    -0.01   0.01   0.00    -0.02   0.00  -0.02
    29   1    -0.18   0.03   0.05    -0.01   0.00   0.01    -0.24   0.06   0.08
    30   1    -0.20   0.06   0.05    -0.05   0.01   0.01    -0.09   0.05   0.09
    31   1     0.04  -0.03   0.07    -0.01  -0.01   0.00     0.27  -0.06   0.13
                     28                     29                     30
                      A                      A                      A
 Frequencies --    794.3808               805.5948               812.1953
 Red. masses --      2.9733                 1.6730                 4.3644
 Frc consts  --      1.1055                 0.6397                 1.6963
 IR Inten    --      2.7877                89.0224                43.2922
  Atom  AN      X      Y      Z        X      Y      Z        X      Y      Z
     1   6     0.00  -0.04  -0.03     0.05   0.01   0.05    -0.02  -0.06  -0.07
     2   6    -0.18   0.05  -0.01    -0.12  -0.03  -0.02     0.11   0.02   0.01
     3   6     0.05  -0.03   0.09     0.06  -0.04  -0.06     0.02   0.04  -0.08
     4   6     0.03   0.03  -0.04     0.00  -0.05   0.02    -0.04  -0.06   0.02
     5   1     0.08  -0.33   0.08     0.15  -0.11   0.11    -0.04   0.06  -0.12
     6   1     0.05   0.38  -0.33    -0.03  -0.41   0.36    -0.12  -0.22   0.37
     7   6     0.03  -0.02   0.19    -0.06   0.00   0.04    -0.05   0.04  -0.10
     8   1     0.08  -0.03   0.14    -0.07   0.05  -0.01    -0.09   0.03  -0.04
     9   1     0.14  -0.07   0.15    -0.06   0.03   0.07    -0.17   0.08  -0.09
    10   6     0.00   0.05  -0.17     0.03   0.08  -0.09    -0.02  -0.05   0.10
    11   1     0.30   0.26   0.03    -0.02  -0.01  -0.15    -0.05   0.02   0.10
    12   6     0.04  -0.08  -0.02     0.03   0.03   0.01     0.00   0.03   0.06
    13   1    -0.25  -0.24  -0.01     0.18   0.33   0.58     0.31   0.29   0.29
    14   1    -0.17   0.09  -0.04    -0.15  -0.11   0.03     0.16   0.10   0.07
    15   1     0.03   0.19  -0.04     0.02   0.10  -0.18     0.03  -0.02  -0.04
    16   7    -0.02  -0.06  -0.03     0.00   0.01  -0.01    -0.07  -0.10  -0.03
    17   7     0.02   0.00   0.02     0.01   0.03   0.00     0.06  -0.03   0.05
[...]
 0.00001063,0.00000984,-0.00010731,0.00015926,0.00023480,-0.00000869,-0
 .00001597,-0.00003791,0.00020968,0.00013058,0.00001091,-0.00000683,-0.
 00002115,-0.00003145,-0.00001472,-0.00000537,-0.00003243,-0.00000403,0
 .00000815,-0.00001906,-0.00139969,0.00004424,-0.00038591,0.00059661,0.
 00032917,-0.00057519,0.00122007,0.00019808,0.00371591,0.00013240,-0.00
 017869,-0.00008332,-0.00011360,0.00007528,-0.00002979,-0.00103890,-0.0
 0014218,-0.00073878,-0.00009759,0.00005587,0.00003829,-0.00491969,-0.0
 0083017,-0.00775488,-0.00322450,-0.03722006,-0.33248919,0.00924407,0.0
 4066364,0.35134256,-0.00036825,-0.00076911,0.00027193,0.00009349,0.000
 23931,0.00000681,0.00000969,-0.00002430,-0.00002373,0.00025541,-0.0004
 3170,0.00000788,0.00001502,0.00004353,-0.00005943,-0.00022243,0.000174
 43,-0.00011943,-0.00003813,-0.00001928,-0.00003262,-0.00000582,-0.0000
 1759,-0.00002069,0.00000968,0.00001741,0.00001475,-0.00013963,0.000252
 14,0.00029981,-0.00001300,-0.00001661,-0.00004897,0.00027711,0.0001571
 6,-0.00003267,-0.00001520,-0.00003064,-0.00004314,-0.00001994,-0.00000
 387,-0.00004628,-0.00000983,0.00001301,-0.00003035,-0.00194638,0.00067
 516,-0.00030423,0.00050354,0.00044535,-0.00107930,0.00148485,0.0001401
 3,0.01103814,0.00035008,-0.00036370,-0.00014473,-0.00025220,0.00017228
 ,-0.00011518,0.00181581,0.00033483,-0.00206573,-0.00019062,0.00009252,
 0.00008058,-0.03391243,-0.02691687,0.00515822,-0.10164683,-0.08876413,
 0.05647705,0.00185790,0.00151123,-0.00044562,0.12409315,0.00003402,0.0
 0006713,-0.00005066,-0.00000771,0.00001359,0.00000468,-0.00001553,0.00
 000700,0.00001447,0.00000269,0.00008068,0.00002373,0.00000198,-0.00000
 465,-0.00000090,0.00020664,0.00008544,0.00002391,-0.00000364,-0.000009
 32,-0.00000075,-0.00000369,-0.00000092,0.00000072,0.00000366,0.0000022
 6,0.00000511,0.00004183,-0.00002310,-0.00002984,0.00000461,0.00000537,
 0.00000510,-0.00003967,-0.00002988,0.00000121,-0.00000130,-0.00000066,
 0.00000101,-0.00000247,-0.00000249,-0.00000196,-0.00000174,0.00000043,
 0.00000252,0.00014504,-0.00034906,-0.00042092,0.00007543,-0.00004648,0
 .00002199,-0.00120349,0.00111642,0.00390284,0.00006526,-0.00002735,-0.
 00002974,-0.00002715,0.00001789,-0.00001375,0.00238977,0.00014834,-0.0
 0013756,-0.00001309,0.00000533,0.00001383,-0.00266290,0.00586662,-0.00
 505193,-0.09474116,-0.21124486,0.10074822,0.00393939,0.00550264,-0.003
 41358,0.10375679,0.21637925,-0.00003814,-0.00011298,0.00002129,0.00001
 281,0.00006248,-0.00000126,0.00000266,-0.00000812,-0.00000692,0.000007
 78,-0.00009710,0.00002133,0.00000184,0.00000490,-0.00000308,0.00005348
 ,0.00000485,-0.00000330,-0.00000520,-0.00000025,-0.00000170,0.00000218
 ,-0.00000098,-0.00000378,-0.00000825,-0.00000064,-0.00000352,0.0000029
 5,0.00004055,0.00005041,-0.00000165,-0.00000288,-0.00000440,0.00006050
 ,0.00001550,-0.00000954,-0.00000231,-0.00000490,-0.00000806,-0.0000044
 0,-0.00000398,-0.00000712,-0.00000182,-0.00000288,-0.00000394,-0.00036
 399,0.00075483,0.00000626,0.00006325,0.00008407,-0.00027651,-0.0018173
 4,-0.00133064,0.00247651,0.00004967,-0.00003636,-0.00000507,-0.0000206
 2,0.00000635,-0.00000443,0.00079842,-0.00007837,-0.00030214,-0.0000003
 6,0.,-0.00000274,-0.00689579,-0.01027627,0.00524114,0.06215291,0.10486
 216,-0.11527738,0.01248190,0.02274853,-0.00956041,-0.06281219,-0.10910
 784,0.11347955,-0.00057972,-0.00097028,0.00039572,0.00012535,0.0002244
 8,-0.00002812,0.00004277,-0.00002568,-0.00009317,0.00012018,-0.0003792
 3,-0.00007044,0.00001169,0.00004017,-0.00006055,-0.00024160,0.00004238
 ,-0.00010388,-0.00003693,0.00001779,-0.00002760,0.00000173,-0.00001769
 ,-0.00001094,0.00002038,0.00000927,0.00001255,-0.00020060,0.00030756,0
 .00037127,-0.00000841,-0.00002253,-0.00005581,0.00043409,0.00024202,0.
 00001223,-0.00001030,-0.00003518,-0.00005514,-0.00001669,-0.00000212,-
 0.00004703,-0.00000693,0.00001123,-0.00002436,-0.00236875,-0.00061112,
 0.00002205,0.00087673,0.00038032,-0.00133192,0.00183901,0.00216528,0.0
 1062287,0.00019031,-0.00030610,-0.00016314,-0.00017136,0.00014001,-0.0
 0006770,0.00134789,-0.00050551,-0.00244322,-0.00013278,0.00008296,0.00
 004568,-0.03266288,0.02950487,-0.00233929,-0.08948201,0.09057965,0.027
 08538,0.00168992,-0.00149891,0.00015986,0.00796560,-0.01194615,-0.0037
 2312,0.11121391,-0.00010444,-0.00012113,-0.00001419,0.00002216,0.00009
 136,-0.00001885,0.00001198,0.00002401,-0.00002953,-0.00016572,0.000082
 63,-0.00004552,0.00000245,-0.00000679,0.00000687,0.00053499,0.00014407
 ,0.00012122,-0.00000439,0.00001177,0.00000952,0.00000597,0.00000292,0.
 00000318,-0.00000493,-0.00000533,-0.00000827,0.00006289,0.00000381,0.0
 0002596,0.00000757,-0.00000273,0.00000211,0.00009755,0.00000339,0.0000
 6457,-0.00000029,-0.00000736,-0.00001202,-0.00000448,-0.00001012,-0.00
 000580,0.00000167,-0.00000300,0.00001055,-0.00003586,-0.00038185,0.000
 56600,-0.00005780,0.00003092,-0.00006208,0.00041086,0.00067967,-0.0035
 6818,-0.00006630,0.00005486,0.00002058,0.00004423,-0.00002808,0.000017
 65,-0.00182809,0.00037781,0.00011145,0.00004328,-0.00001196,-0.0000201
 7,0.00296023,0.00861834,0.00412144,0.09670232,-0.26229472,-0.06181709,
 -0.00055829,-0.00058930,0.00075992,0.00934804,-0.01755866,-0.00751845,
 -0.10741648,0.27089397,-0.00015346,-0.00025985,0.00009011,0.00002298,0
 .00006904,-0.00000402,-0.00000263,-0.00001015,-0.00002447,0.00004066,-
 0.00007481,-0.00002021,0.00000102,0.00001017,-0.00001147,0.00005424,0.
 00002222,0.00007144,-0.00001020,0.00000150,-0.00000421,-0.00000036,-0.
 00000113,-0.00000248,0.00000081,-0.00000170,-0.00000099,-0.00003611,0.
 00008030,0.00009561,-0.00000106,-0.00000526,-0.00001134,0.00012368,0.0
 0005713,-0.00000610,-0.00000212,-0.00000834,-0.00001410,-0.00000684,-0
 .00000513,-0.00001233,-0.00000250,0.00000122,-0.00000490,-0.00058629,-
 0.00053959,0.00012965,0.00024661,0.00003662,-0.00039116,-0.00168064,0.
 00174997,0.00307148,0.00004137,0.00000131,-0.00004049,-0.00001855,0.00
 000444,-0.00000106,0.00078833,0.00000104,-0.00044547,0.00000339,0.0000
 0745,-0.00000536,-0.00733510,0.01026562,0.00140226,0.03065708,-0.06592
 604,-0.06850293,0.01186882,-0.02624573,-0.00364323,-0.00593289,0.01349
 150,0.00418892,-0.02808490,0.06728069,0.06409853,-0.00105444,-0.001500
 94,-0.00048980,0.00032800,0.00051750,-0.00008629,0.00016413,0.00010472
 ,-0.00031806,0.00022449,-0.00202797,0.00018337,-0.00029164,0.00065952,
 -0.00075676,0.00008933,0.00014318,-0.00030696,0.00009373,-0.00013133,0
 .00000139,0.00002741,-0.00016918,-0.00010472,-0.00018495,0.00019291,0.
 00028216,-0.00027948,0.00098878,0.00045865,0.00006881,0.00002855,-0.00
 009001,0.00160747,0.00023891,0.00038981,-0.00004729,-0.00020462,-0.000
 28794,0.00113279,0.00063406,0.00044798,-0.00000361,-0.00003773,-0.0000
 8555,0.00052349,0.00061093,-0.00022758,0.00709180,-0.00162987,0.001220
 12,-0.00152045,-0.00061936,0.00014939,-0.05714304,0.01234900,0.0330790
 8,0.00103500,0.00128115,-0.01891293,0.00098881,0.00002620,-0.00034470,
 -0.20856992,0.04857606,-0.02114014,0.00092211,0.00018354,0.00051838,-0
 .00040620,-0.00001181,-0.00016608,0.00005416,0.00000711,0.00004557,0.0
 0008594,0.00000877,0.00000301,0.00006470,-0.00001681,0.00000462,0.4997
 7044,0.00150086,0.00136898,-0.00059413,0.00023001,-0.00011680,0.000119
 76,-0.00012185,0.00001611,0.00022236,-0.00032430,0.00073017,0.00001095
 ,0.00009703,-0.00013407,0.00004177,-0.00004298,-0.00007138,0.00013787,
 -0.00009118,0.00004022,-0.00011835,-0.00000255,0.00005998,0.00003874,0
 .00008678,-0.00005154,-0.00009039,0.00014671,-0.00063634,-0.00030411,-
 0.00001045,0.00003478,0.00006420,-0.00080959,-0.00026884,-0.00018734,-
 0.00000092,0.00006657,0.00010875,-0.00007122,-0.00151842,-0.00026835,-
 0.00001132,0.00001509,0.00003645,0.00053533,0.00057231,0.00015744,-0.0
 0484970,0.00411618,0.00219532,0.00050428,0.00023346,-0.00012128,0.0124
 3172,-0.00291234,-0.01106286,-0.00254502,-0.00445223,0.00510688,-0.000
 27094,-0.00006386,0.00007635,0.05429230,-0.08537092,0.01082467,-0.0002
 8657,-0.00006543,-0.00014609,0.00012276,0.00000426,0.00004911,-0.00001
 611,-0.00000241,-0.00001289,-0.00002666,-0.00000186,-0.00000167,-0.000
 01879,0.00000453,-0.00000218,0.03709927,0.59043350,-0.00040814,0.00006
 546,-0.00013394,0.00011245,-0.00015983,-0.00009803,-0.00007375,0.00001
 726,0.00000066,0.00002907,-0.00003951,0.00004304,0.00004627,-0.0001570
 1,0.00012810,-0.00000343,0.00003658,-0.00002330,0.00002745,-0.00001931
 ,-0.00007595,-0.00000178,-0.00000951,0.00001009,0.00002100,0.00001027,
 0.00001569,-0.00008916,0.00009950,0.00005946,0.00000893,0.00002168,-0.
 00000175,0.00007370,0.00002608,-0.00000391,-0.00000968,-0.00000704,-0.
 00001791,0.00041755,-0.00047580,0.00006439,-0.00000378,0.00001730,-0.0
 0000617,0.00160014,-0.00024015,0.00066848,0.00241472,0.00101465,-0.004
 16929,-0.00000662,-0.00022107,-0.00023803,0.03601121,-0.01211314,0.003
 74938,0.00449722,-0.00191940,-0.00122099,0.00026905,0.00005632,-0.0000
 5793,-0.04752194,0.01854186,-0.09539277,0.00012983,0.00002803,0.000095
 28,-0.00004991,0.00000527,-0.00000695,0.00000924,-0.00000004,0.0000054
 0,0.00000870,-0.00000140,0.00000012,0.00000871,-0.00000243,-0.00000123
 ,-0.03550151,0.00432657,0.63843255,0.00050270,0.00075517,-0.00017511,-
 0.00041745,-0.00028605,0.00009707,-0.00002586,-0.00003957,0.00005680,-
 0.00007641,0.00044393,0.00000693,0.00007100,-0.00013268,0.00011668,-0.
 00000918,-0.00003924,0.00005275,0.00007135,0.00000488,0.00009137,-0.00
 000945,0.00001534,0.00001829,0.00001300,-0.00001780,-0.00001272,0.0001
 5536,-0.00025212,-0.00037685,0.00001009,0.00001203,0.00004669,-0.00036
 546,-0.00016909,-0.00002184,0.00003054,0.00004213,0.00005904,-0.000365
 35,0.00025973,-0.00004148,0.00002259,0.00000022,0.00003285,0.00046338,
 -0.00004738,-0.00013832,-0.00201131,0.00082230,0.00091423,-0.00003523,
 0.00014278,-0.00008080,0.00470264,-0.00123813,-0.01025705,0.00092532,-
 0.00057712,0.00287445,-0.00003781,-0.00002540,-0.00000304,-0.03448947,
 -0.01419010,-0.01805076,-0.00007755,-0.00002410,0.00000386,0.00003623,
 0.00000314,0.00001661,-0.00000407,-0.00000136,-0.00000477,-0.00000889,
 -0.00000233,0.00000091,-0.00000505,0.00000184,0.00000019,-0.10088402,-
 0.07435896,-0.07336023,0.12171620,-0.00008934,-0.00029856,0.00014793,0
 .00023439,0.00024813,-0.00012382,0.00002266,0.00001290,0.00000442,0.00
 004575,-0.00022509,-0.00000244,-0.00002636,0.00004207,-0.00002531,-0.0
 0000313,0.00001585,-0.00001179,-0.00009410,0.00005466,-0.00006537,0.00
 000007,-0.00000443,-0.00000240,-0.00000565,0.00000978,0.00000444,-0.00
 012107,0.00011691,0.00027619,-0.00002551,-0.00002664,-0.00003858,0.000
 17895,0.00013521,-0.00001793,-0.00002844,-0.00001060,-0.00000979,-0.00
 006143,0.00007589,-0.00013806,-0.00001494,-0.00000025,-0.00001775,-0.0
 0025874,-0.00002761,0.00010723,0.00071637,-0.00053718,-0.00017714,0.00
 007394,-0.00002924,0.00005671,-0.00074853,0.00136035,-0.00016769,0.001
 22546,-0.00039997,0.00003722,-0.00002662,0.00000802,0.00001465,0.01026
 151,0.01190145,0.01076513,0.00001050,0.00000412,-0.00001920,-0.0000009
 5,0.00000142,-0.00000045,0.00000032,0.,-0.00000085,0.00000022,-0.00000
 049,0.00000035,-0.00000015,-0.00000071,-0.00000031,-0.08086299,-0.1623
 6565,-0.11196981,0.08044115,0.16281154,0.00013928,-0.00008549,0.000030
 55,-0.00005743,0.00009763,-0.00003893,0.00000424,-0.00001449,0.0000083
 9,0.00001149,0.00002087,0.00003145,0.00001796,-0.00002278,0.00003169,-
 0.00000202,-0.00001043,0.00001463,-0.00000254,0.00000051,0.00003312,-0
 .00000190,0.00000644,-0.00000071,0.00000717,-0.00001144,-0.00001722,0.
 00003450,-0.00002299,-0.00000170,-0.00000939,-0.00000977,-0.00000050,-
 0.00001957,-0.00000118,-0.00002814,0.00000037,0.00000831,0.00001147,-0
 .00020528,0.00017037,0.00009542,0.00000542,-0.00000105,0.00000451,0.00
 003394,0.00001090,0.00001891,-0.00057798,-0.00030118,-0.00002188,0.000
 08644,0.00003932,-0.00000048,0.00303251,0.00036131,-0.00068916,-0.0002
 7722,0.00007795,0.00068839,-0.00006732,-0.00000640,0.00002422,-0.00671
 985,0.00201415,0.00005875,-0.00006282,-0.00000914,-0.00003261,0.000026
 88,0.00000150,0.00001198,-0.00000323,-0.00000055,-0.00000415,-0.000006
 60,-0.00000167,0.00000067,-0.00000491,0.00000108,0.,-0.07938329,-0.111
 35498,-0.16185097,0.09032590,0.11782670,0.16572794,0.00001878,0.000249
 33,0.00016960,-0.00020161,-0.00017619,-0.00000993,-0.00002531,-0.00003
 611,0.00003508,-0.00000316,0.00035792,-0.00005761,0.00005518,-0.000135
 87,0.00018826,-0.00001435,-0.00001883,0.00004853,0.00002930,0.00002517
 ,0.00000454,-0.00000658,0.00001963,0.00002255,0.00000417,-0.00002377,-
 0.00002370,0.00004867,-0.00010858,-0.00010506,-0.00001042,-0.00000769,
 0.00001610,-0.00024621,-0.00002659,-0.00004914,0.00001288,0.00003948,0
 .00004941,-0.00018843,-0.00000886,-0.00003660,0.00000532,0.00000638,0.
 00001571,-0.00013246,-0.00021128,-0.00012046,-0.00088878,-0.00030155,-
 0.00006594,0.00023824,0.00012021,0.00004319,0.00456920,0.00176574,-0.0
 0790150,-0.00004589,-0.00064009,0.00267228,-0.00017464,-0.00000223,0.0
 0005104,-0.01602923,0.03931453,-0.01124237,-0.00013501,-0.00003180,-0.
 00007993,0.00006440,0.00000172,0.00002609,-0.00000826,-0.00000104,-0.0
 0000739,-0.00001358,-0.00000143,0.,-0.00000986,0.00000262,-0.00000039,
 -0.04865048,-0.01961751,0.00797100,0.00155515,-0.01222217,0.00643492,0
 .05906057,0.00004671,-0.00001445,-0.00005785,-0.00006261,0.00012024,0.
 00000031,0.00002297,-0.00000401,-0.00002681,0.00000149,-0.00016367,0.0
 0004901,-0.00002905,0.00007292,-0.00009099,0.00000812,0.00000438,-0.00
 002337,-0.00000886,-0.00001891,0.00002784,0.00000355,-0.00001261,-0.00
 001182,-0.00001322,0.00000549,0.00001549,-0.00000208,0.00007717,0.0000
 1610,0.00000244,-0.00000110,-0.00000885,0.00013300,0.00002444,0.000019
 79,-0.00000213,-0.00001271,-0.00001845,-0.00002809,0.00019001,-0.00001
 284,0.00000263,-0.00000413,-0.00000429,0.00022933,0.00002107,-0.000019
 33,0.00018841,-0.00039873,-0.00037422,-0.00017198,-0.00003261,-0.00004
 109,-0.00243757,0.00033440,0.00595561,-0.00151535,0.00094367,-0.001687
 76,0.00010607,-0.00000046,-0.00003522,0.01154672,-0.00638786,0.0013780
 6,0.00005911,0.00001219,0.00005063,-0.00003432,-0.00000155,-0.00001143
 ,0.00000426,0.00000044,0.00000427,0.00000706,0.00000127,-0.00000042,0.
 00000482,-0.00000143,0.00000008,-0.01061936,-0.28905800,0.09537423,-0.
 00089275,-0.01462047,0.00812016,0.00416140,0.30537872,0.00007472,-0.00
 002126,-0.00000887,-0.00007580,0.00001800,0.00002207,-0.00000333,-0.00
 000580,0.00001549,0.00002225,0.00009315,0.00000506,0.00002785,-0.00003
 155,0.00003859,-0.00000373,-0.00000960,0.00001640,-0.00001262,0.000010
 14,0.00003243,-0.00000255,0.00001418,0.00000237,0.00002000,-0.00001443
 ,-0.00002913,0.00001658,-0.00006369,-0.00002708,-0.00000391,-0.0000056
 2,0.00000235,-0.00006490,-0.00000161,-0.00002089,0.00000418,0.00001049
 ,0.00001428,-0.00014741,0.00007756,-0.00002428,0.00000319,0.00000213,0
 .00000561,-0.00010422,0.00003406,-0.00002733,-0.00017398,0.00040200,0.
 00012639,0.00012150,0.00001098,0.00001207,0.00221878,-0.00176971,-0.00
 005571,-0.00049647,0.00007491,0.00009677,-0.00007141,-0.00000007,0.000
 02047,-0.00478232,0.00449651,-0.00066289,-0.00005866,-0.00000814,-0.00
 004132,0.00002554,0.00000142,0.00000754,-0.00000380,-0.00000030,-0.000
 00345,-0.00000527,-0.00000087,0.00000030,-0.00000424,0.00000102,-0.000
 00020,0.00457458,0.09739352,-0.08923854,-0.00022120,-0.01902154,0.0083
 1174,-0.00078836,-0.10653407,0.08760478,0.00028174,0.00037055,-0.00002
 244,-0.00005647,-0.00017284,0.00001435,-0.00002527,-0.00001899,0.00004
 165,-0.00007616,0.00033351,-0.00003042,0.00001982,-0.00005372,0.000071
 81,-0.00000930,-0.00003198,0.00005040,0.00002143,-0.00000061,0.0000084
 8,-0.00000222,0.00002027,0.00001319,0.00000955,-0.00002075,-0.00002670
 ,0.00008880,-0.00017967,-0.00016083,-0.00000098,0.00000724,0.00002703,
 -0.00028806,-0.00010123,-0.00004695,0.00001290,0.00003097,0.00004128,-
 0.00007302,-0.00000828,-0.00001165,0.00000352,0.00000128,0.00001770,-0
 .00033552,0.00000560,-0.00026814,-0.00151137,0.00005089,0.00156871,0.0
 0017652,0.00017564,0.00006081,-0.00209845,0.00187125,-0.00616870,0.001
 43076,-0.00049613,0.00126525,-0.00018762,-0.00002955,0.00004456,-0.029
 38966,0.00386489,0.03292606,-0.00014081,-0.00003495,-0.00007909,0.0000
 6424,0.00000195,0.00002260,-0.00000889,-0.00000130,-0.00000900,-0.0000
 1413,-0.00000246,0.00000092,-0.00001039,0.00000324,0.00000025,-0.09523
 712,-0.00357040,0.10337363,0.00854700,0.00137880,-0.01275969,0.0011224
 0,-0.00071073,-0.00008497,0.11768676,-0.00007296,-0.00007923,-0.000005
 81,0.00002296,0.00003327,0.00001126,0.00000744,0.00000435,-0.00001373,
 0.00002349,-0.00008141,0.00001094,-0.00000076,0.00001009,-0.00000286,0
 .00000308,0.00000788,-0.00001390,-0.00000873,0.00000164,0.00000545,0.0
 0000036,-0.00000533,-0.00000363,-0.00000230,0.00000402,0.00000751,-0.0
 0001440,0.00004839,0.00002915,0.00000073,-0.00000140,-0.00000626,0.000
 07466,0.00002057,0.00001798,-0.00000222,-0.00000707,-0.00001126,-0.000
 02183,0.00009070,-0.00006622,0.00000012,-0.00000036,-0.00000416,0.0001
 8225,-0.00000142,0.00006499,0.00037553,0.00018052,-0.00053240,-0.00006
 670,-0.00007054,-0.00002977,0.00142265,-0.00057418,0.00206185,-0.00065
 469,0.00083735,-0.00033640,0.00006541,0.00001081,-0.00001603,0.0102778
 0,-0.00104046,-0.01200849,0.00004149,0.00001032,0.00002722,-0.00001957
 ,0.00000035,-0.00000637,0.00000287,0.00000036,0.00000228,0.00000386,0.
 00000015,0.00000017,0.00000312,-0.00000092,-0.00000008,-0.00581817,-0.
 05060602,0.00769438,0.00934954,0.00174859,-0.01690368,-0.01249254,0.00
 354627,0.02484816,-0.00268251,0.04591273,-0.00003489,-0.00008831,0.000
 00843,-0.00000591,0.00003141,0.00000175,0.00001444,0.00000640,-0.00001
 391,0.00001600,-0.00008842,0.00000453,-0.00001215,0.00002168,-0.000032
 46,0.00000232,0.00000440,-0.00001163,0.00000456,0.00000402,0.00000576,
 -0.00000036,-0.00000750,-0.00000322,-0.00001120,0.00001122,0.00001593,
 -0.00000391,0.00004708,0.00001717,0.00000282,-0.00000284,-0.00000517,0
 .00006835,0.00001175,0.00002254,-0.00000112,-0.00000818,-0.00000966,0.
 00000983,0.00007641,-0.00004649,0.00000085,-0.00000299,-0.00000318,-0.
 00007627,0.00003780,0.00002181,0.00011750,-0.00005745,0.00029018,-0.00
 008935,-0.00002326,0.00002470,-0.00318769,0.00101087,0.00003827,0.0015
 4909,-0.00047396,0.00027455,0.00002940,-0.00000191,-0.00001298,-0.0061
 6018,0.00043409,0.00978448,0.00004223,0.00000761,0.00002179,-0.0000187
 8,-0.00000210,-0.00000672,0.00000237,0.00000073,0.00000417,0.00000515,
 0.00000253,-0.00000120,0.00000316,-0.00000122,-0.00000023,0.11684424,0
 .00335391,-0.29073495,0.00802955,0.00256929,-0.01241738,0.00274009,-0.
 00205276,-0.00619500,-0.11988011,-0.00482029,0.29895814\\-0.00000378,0
 .00000265,-0.00000095,-0.00000052,0.00000193,-0.00000001,-0.00000107,-
 0.00000127,0.00000032,-0.00000276,-0.00000218,0.00000103,-0.00000149,0
 .00000004,-0.00000011,-0.00000296,-0.00000334,0.00000265,-0.00000014,0
 .00000221,-0.00000170,-0.00000135,0.00000237,-0.00000238,0.00000312,0.
 00000182,-0.00000009,-0.00000665,0.00000181,-0.00000291,-0.00000587,0.
 00000351,-0.00000144,-0.00000557,-0.00000044,0.00000106,-0.00000703,-0
 .00000108,0.00000093,-0.00000128,0.00000344,-0.00000329,-0.00000218,-0
 .00000172,0.00000146,0.00000407,-0.00000146,0.00000234,-0.00000020,-0.
 00000095,-0.00000230,0.00000455,-0.00000293,0.00000170,0.00000501,0.00
 000311,-0.00000307,0.00000450,0.00000234,-0.00000168,0.00000250,-0.000
 00514,0.00000456,0.00000100,0.00000325,-0.00000226,0.00000133,-0.00000
 489,0.00000352,0.00000088,-0.00000646,0.00000533,-0.00000010,-0.000006
 72,0.00000455,0.00000272,-0.00000755,0.00000535,-0.00000047,-0.0000076
 3,0.00000517,0.00000386,0.00000567,-0.00000314,0.00000293,0.00000640,-
 0.00000511,0.00000529,0.00000629,-0.00000451,0.00000166,0.00000690,-0.
 00000501\\\@


 IF MATHEMATICALLY YOU END UP WITH THE INCORRECT ANSWER,
 TRY MULTIPLYING BY THE PAGE NUMBER.
 Job cpu time:       0 days  1 hours 28 minutes 44.0 seconds.
 File lengths (MBytes):  RWF=    393 Int=      0 D2E=      0 Chk=     13 Scr=      1
 Normal termination of Gaussian 09 at Wed Sep 16 20:11:15 2020.
