 Entering Gaussian System, Link 0=g09
 Input=m062x_dmad_cycloaddition_PM6_toluene_water_1.com
 Output=m062x_dmad_cycloaddition_PM6_toluene_water_1.log
 Initial command:
 /apps/applications/gaussian/G09.D01/2/default/g09/l1.exe "/local/743469.1.40core-192G.q/Gau-46704.inp" -scrdir="/local/743469.1.40core-192G.q/"
 Entering Link 1 = /apps/applications/gaussian/G09.D01/2/default/g09/l1.exe PID=     46705.
  
 Copyright (c) 1988,1990,1992,1993,1995,1998,2003,2009,2013,
            Gaussian, Inc.  All Rights Reserved.
  
 This is part of the Gaussian(R) 09 program.  It is based on
 the Gaussian(R) 03 system (copyright 2003, Gaussian, Inc.),
 the Gaussian(R) 98 system (copyright 1998, Gaussian, Inc.),
 the Gaussian(R) 94 system (copyright 1995, Gaussian, Inc.),
 the Gaussian 92(TM) system (copyright 1992, Gaussian, Inc.),
 the Gaussian 90(TM) system (copyright 1990, Gaussian, Inc.),
 the Gaussian 88(TM) system (copyright 1988, Gaussian, Inc.),
 the Gaussian 86(TM) system (copyright 1986, Carnegie Mellon
 University), and the Gaussian 82(TM) system (copyright 1983,
 Carnegie Mellon University). Gaussian is a federally registered
 trademark of Gaussian, Inc.
  
 This software contains proprietary and confidential information,
 including trade secrets, belonging to Gaussian, Inc.
  
 This software is provided under written license and may be
 used, copied, transmitted, or stored only in accord with that
 written license.
  
 The following legend is applicable only to US Government
 contracts under FAR:
  
                    RESTRICTED RIGHTS LEGEND
  
 Use, reproduction and disclosure by the US Government is
 subject to restrictions as set forth in subparagraphs (a)
 and (c) of the Commercial Computer Software - Restricted
 Rights clause in FAR 52.227-19.
  
 Gaussian, Inc.
 340 Quinnipiac St., Bldg. 40, Wallingford CT 06492
  
  
 ---------------------------------------------------------------
 Warning -- This program may not be used in any manner that
 competes with the business of Gaussian, Inc. or will provide
 assistance to any competitor of Gaussian, Inc.  The licensee
 of this program is prohibited from giving any competitor of
 Gaussian, Inc. access to this program.  By using this program,
 the user acknowledges that Gaussian, Inc. is engaged in the
 business of creating and licensing software in the field of
 computational chemistry and represents and warrants to the
 licensee that it is not a competitor of Gaussian, Inc. and that
 it will not use this program in any manner prohibited above.
 ---------------------------------------------------------------
  

 Cite this work as:
 Gaussian 09, Revision D.01,
 M. J. Frisch, G. W. Trucks, H. B. Schlegel, G. E. Scuseria, 
 M. A. Robb, J. R. Cheeseman, G. Scalmani, V. Barone, B. Mennucci, 
 G. A. Petersson, H. Nakatsuji, M. Caricato, X. Li, H. P. Hratchian, 
 A. F. Izmaylov, J. Bloino, G. Zheng, J. L. Sonnenberg, M. Hada, 
 M. Ehara, K. Toyota, R. Fukuda, J. Hasegawa, M. Ishida, T. Nakajima, 
 Y. Honda, O. Kitao, H. Nakai, T. Vreven, J. A. Montgomery, Jr., 
 J. E. Peralta, F. Ogliaro, M. Bearpark, J. J. Heyd, E. Brothers, 
 K. N. Kudin, V. N. Staroverov, T. Keith, R. Kobayashi, J. Normand, 
 K. Raghavachari, A. Rendell, J. C. Burant, S. S. Iyengar, J. Tomasi, 
 M. Cossi, N. Rega, J. M. Millam, M. Klene, J. E. Knox, J. B. Cross, 
 V. Bakken, C. Adamo, J. Jaramillo, R. Gomperts, R. E. Stratmann, 
 O. Yazyev, A. J. Austin, R. Cammi, C. Pomelli, J. W. Ochterski, 
 R. L. Martin, K. Morokuma, V. G. Zakrzewski, G. A. Voth, 
 P. Salvador, J. J. Dannenberg, S. Dapprich, A. D. Daniels, 
 O. Farkas, J. B. Foresman, J. V. Ortiz, J. Cioslowski, 
 and D. J. Fox, Gaussian, Inc., Wallingford CT, 2013.
 
 ******************************************
 Gaussian 09:  ES64L-G09RevD.01 24-Apr-2013
                16-Sep-2020 
 ******************************************
 %nprocshared=4
 Will use up to    4 processors via shared memory.
 %chk=m062x_dmad_cycloaddition_PM6_toluene_water_1.chk
 ----------------------------------------------------------------------
 # opt freq scrf=(cpcm,solvent=water) geom=connectivity def2svp m062x e
 mpiricaldispersion=gd3
 ----------------------------------------------------------------------
 1/14=-1,18=20,19=15,26=3,38=1,57=2/1,3;
 2/9=110,12=2,17=6,18=5,40=1/2;
 3/5=43,7=101,11=2,16=1,25=1,30=1,70=2101,71=1,72=1,74=-55,124=31/1,2,3;
 4//1;
 5/5=2,38=5,53=1/2;
 6/7=2,8=2,9=2,10=2,28=1/1;
 7//1,2,3,16;
 1/14=-1,18=20,19=15,26=3/3(2);
 2/9=110/2;
 99//99;
 2/9=110/2;
 3/5=43,7=101,11=2,16=1,25=1,30=1,70=2105,71=1,72=1,74=-55,124=31/1,2,3;
 4/5=5,16=3,69=1/1;
 5/5=2,38=5,53=1/2;
 7//1,2,3,16;
 1/14=-1,18=20,19=15,26=3/3(-5);
 2/9=110/2;
 6/7=2,8=2,9=2,10=2,19=2,28=1/1;
 99/9=1/99;
 -------------------
 Title Card Required
 -------------------
 Symbolic Z-matrix:
 Charge =  0 Multiplicity = 1
 N                     0.29994   0.34257  -0.41251 
 N                    -0.29989  -0.3426    0.41202 
 C                     1.70373   0.49571  -0.10594 
 C                    -1.70368  -0.49568   0.10548 
 O                    -2.17258  -1.57768  -0.08629 
 O                     2.17275   1.57784   0.08489 
 O                    -2.33106   0.65514   0.13825 
 O                     2.33096  -0.65522  -0.13741 
 C                     3.74633  -0.60538   0.07623 
 H                     4.16668  -1.43854  -0.49198 
 H                     4.14447   0.35106  -0.28422 
 H                     3.96484  -0.71679   1.14531 
 C                    -3.74647   0.60532  -0.07507 
 H                    -4.19363   1.19462   0.72898 
 H                    -3.99022   1.03758  -1.05325 
 H                    -4.09343  -0.43447  -0.03416 
 

 GradGradGradGradGradGradGradGradGradGradGradGradGradGradGradGradGradGrad
 Berny optimization.
 Initialization pass.
                           ----------------------------
                           !    Initial Parameters    !
                           ! (Angstroms and Degrees)  !
 --------------------------                            --------------------------
 ! Name  Definition              Value          Derivative Info.                !
 --------------------------------------------------------------------------------
 ! R1    R(1,2)                  1.2285         estimate D2E/DX2                !
 ! R2    R(1,3)                  1.445          estimate D2E/DX2                !
 ! R3    R(2,4)                  1.445          estimate D2E/DX2                !
 ! R4    R(3,6)                  1.1947         estimate D2E/DX2                !
 ! R5    R(3,8)                  1.3111         estimate D2E/DX2                !
 ! R6    R(4,5)                  1.1947         estimate D2E/DX2                !
 ! R7    R(4,7)                  1.3111         estimate D2E/DX2                !
 ! R8    R(7,13)                 1.4323         estimate D2E/DX2                !
 ! R9    R(8,9)                  1.4323         estimate D2E/DX2                !
 ! R10   R(9,10)                 1.0926         estimate D2E/DX2                !
 ! R11   R(9,11)                 1.0969         estimate D2E/DX2                !
 ! R12   R(9,12)                 1.0969         estimate D2E/DX2                !
 ! R13   R(13,14)                1.0926         estimate D2E/DX2                !
 ! R14   R(13,15)                1.0969         estimate D2E/DX2                !
 ! R15   R(13,16)                1.0969         estimate D2E/DX2                !
 ! A1    A(2,1,3)              113.0201         estimate D2E/DX2                !
 ! A2    A(1,2,4)              113.0197         estimate D2E/DX2                !
 ! A3    A(1,3,6)              120.747          estimate D2E/DX2                !
 ! A4    A(1,3,8)              111.5072         estimate D2E/DX2                !
 ! A5    A(6,3,8)              127.6701         estimate D2E/DX2                !
 ! A6    A(2,4,5)              120.7488         estimate D2E/DX2                !
 ! A7    A(2,4,7)              111.5043         estimate D2E/DX2                !
 ! A8    A(5,4,7)              127.6709         estimate D2E/DX2                !
 ! A9    A(4,7,13)             116.0157         estimate D2E/DX2                !
 ! A10   A(3,8,9)              116.0156         estimate D2E/DX2                !
 ! A11   A(8,9,10)             106.0269         estimate D2E/DX2                !
 ! A12   A(8,9,11)             109.8775         estimate D2E/DX2                !
 ! A13   A(8,9,12)             109.799          estimate D2E/DX2                !
 ! A14   A(10,9,11)            110.7548         estimate D2E/DX2                !
 ! A15   A(10,9,12)            110.6584         estimate D2E/DX2                !
 ! A16   A(11,9,12)            109.6657         estimate D2E/DX2                !
 ! A17   A(7,13,14)            106.0268         estimate D2E/DX2                !
 ! A18   A(7,13,15)            109.7991         estimate D2E/DX2                !
 ! A19   A(7,13,16)            109.877          estimate D2E/DX2                !
 ! A20   A(14,13,15)           110.6578         estimate D2E/DX2                !
 ! A21   A(14,13,16)           110.7554         estimate D2E/DX2                !
 ! A22   A(15,13,16)           109.6661         estimate D2E/DX2                !
 ! D1    D(3,1,2,4)            179.9971         estimate D2E/DX2                !
 ! D2    D(2,1,3,6)           -119.5182         estimate D2E/DX2                !
 ! D3    D(2,1,3,8)             63.4104         estimate D2E/DX2                !
 ! D4    D(1,2,4,5)            119.4664         estimate D2E/DX2                !
 ! D5    D(1,2,4,7)            -63.4702         estimate D2E/DX2                !
 ! D6    D(1,3,8,9)            176.4959         estimate D2E/DX2                !
 ! D7    D(6,3,8,9)             -0.324          estimate D2E/DX2                !
 ! D8    D(2,4,7,13)          -176.4876         estimate D2E/DX2                !
 ! D9    D(5,4,7,13)             0.3237         estimate D2E/DX2                !
 ! D10   D(4,7,13,14)          130.99           estimate D2E/DX2                !
 ! D11   D(4,7,13,15)         -109.4375         estimate D2E/DX2                !
 ! D12   D(4,7,13,16)           11.2595         estimate D2E/DX2                !
 ! D13   D(3,8,9,10)          -149.58           estimate D2E/DX2                !
 ! D14   D(3,8,9,11)           -29.85           estimate D2E/DX2                !
 ! D15   D(3,8,9,12)            90.8467         estimate D2E/DX2                !
 --------------------------------------------------------------------------------
 Trust Radius=3.00D-01 FncErr=1.00D-07 GrdErr=1.00D-06
 Number of steps in this run=     62 maximum allowed number of steps=    100.
 GradGradGradGradGradGradGradGradGradGradGradGradGradGradGradGradGradGrad

                          Input orientation:                          
 ---------------------------------------------------------------------
 Center     Atomic      Atomic             Coordinates (Angstroms)
 Number     Number       Type             X           Y           Z
 ---------------------------------------------------------------------
      1          7           0        0.299940    0.342569   -0.412514
      2          7           0       -0.299885   -0.342597    0.412022
      3          6           0        1.703734    0.495710   -0.105940
      4          6           0       -1.703677   -0.495675    0.105477
      5          8           0       -2.172583   -1.577683   -0.086287
      6          8           0        2.172751    1.577836    0.084893
      7          8           0       -2.331055    0.655140    0.138247
      8          8           0        2.330963   -0.655223   -0.137414
      9          6           0        3.746325   -0.605382    0.076229
     10          1           0        4.166683   -1.438545   -0.491981
     11          1           0        4.144469    0.351060   -0.284220
     12          1           0        3.964840   -0.716786    1.145314
     13          6           0       -3.746470    0.605316   -0.075070
     14          1           0       -4.193629    1.194616    0.728979
     15          1           0       -3.990220    1.037578   -1.053252
     16          1           0       -4.093427   -0.434475   -0.034159
 ---------------------------------------------------------------------
                    Distance matrix (angstroms):
                    1          2          3          4          5
     1  N    0.000000
     2  N    1.228455   0.000000
     3  C    1.445018   2.232831   0.000000
     4  C    2.232812   1.445003   3.554995   0.000000
     5  O    3.147564   2.297988   4.396041   1.194733   0.000000
     6  O    2.297982   3.147857   1.194735   4.396199   5.372944
     7  O    2.706136   2.279492   4.045314   1.311126   2.249673
     8  O    2.279545   2.705730   1.311127   4.045092   4.597333
     9  C    3.607638   4.068615   2.327610   5.451185   6.000438
    10  H    4.257978   4.687062   3.155390   5.975540   6.353758
    11  H    3.846678   4.551724   2.451508   5.921962   6.607902
    12  H    4.120747   4.343457   2.854538   5.767343   6.318699
    13  C    4.068948   3.607596   5.451393   2.327613   2.691232
    14  H    4.713932   4.198181   5.997037   3.073386   3.526319
    15  H    4.393069   4.203627   5.797597   2.986938   3.328425
    16  H    4.477569   3.820795   5.871752   2.394608   2.235908
                    6          7          8          9         10
     6  O    0.000000
     7  O    4.597661   0.000000
     8  O    2.249668   4.850510   0.000000
     9  C    2.691217   6.207037   1.432263   0.000000
    10  H    3.661571   6.855749   2.027111   1.092577   0.000000
    11  H    2.351360   6.496410   2.079173   1.096916   1.801761
    12  H    3.098608   6.521861   2.078157   1.096861   1.800670
    13  C    6.000713   1.432266   6.207096   7.591486   8.183469
    14  H    6.410343   2.027111   6.836874   8.167554   8.849807
    15  H    6.290427   2.078162   6.607699   7.989316   8.542908
    16  H    6.582443   2.079168   6.429010   7.842391   8.333496
                   11         12         13         14         15
    11  H    0.000000
    12  H    1.793358   0.000000
    13  C    7.897804   7.918434   0.000000
    14  H    8.441684   8.389721   1.092575   0.000000
    15  H    8.199749   8.437682   1.096861   1.800662   0.000000
    16  H    8.279041   8.149020   1.096913   1.801766   1.793360
                   16
    16  H    0.000000
 Stoichiometry    C4H6N2O4
 Framework group  C1[X(C4H6N2O4)]
 Deg. of freedom    42
 Full point group                 C1      NOp   1
 Largest Abelian subgroup         C1      NOp   1
 Largest concise Abelian subgroup C1      NOp   1
                         Standard orientation:                         
 ---------------------------------------------------------------------
 Center     Atomic      Atomic             Coordinates (Angstroms)
 Number     Number       Type             X           Y           Z
 ---------------------------------------------------------------------
      1          7           0       -0.300017   -0.342416   -0.412754
      2          7           0        0.299940    0.342277    0.412079
      3          6           0       -1.703779   -0.495665   -0.106087
      4          6           0        1.703700    0.495462    0.105441
      5          8           0        2.172628    1.577555   -0.085794
      6          8           0       -2.172817   -1.577875    0.084217
      7          8           0        2.331034   -0.655396    0.137508
      8          8           0       -2.330964    0.655311   -0.136857
      9          6           0       -3.746301    0.605414    0.076937
     10          1           0       -4.166695    1.438903   -0.490768
     11          1           0       -4.144530   -0.350816   -0.283982
     12          1           0       -3.964677    0.716246    1.146110
     13          6           0        3.746424   -0.605516   -0.075960
     14          1           0        4.193659   -1.195272    0.727713
     15          1           0        3.990034   -1.037257   -1.054407
     16          1           0        4.093430    0.434238   -0.034528
 ---------------------------------------------------------------------
 Rotational constants (GHZ):      4.0177261      0.5982403      0.5308791
 Standard basis: def2SVP (5D, 7F)
 There are   180 symmetry adapted cartesian basis functions of A   symmetry.
 There are   170 symmetry adapted basis functions of A   symmetry.
   170 basis functions,   292 primitive gaussians,   180 cartesian basis functions
    38 alpha electrons       38 beta electrons
       nuclear repulsion energy       524.6338462539 Hartrees.
 NAtoms=   16 NActive=   16 NUniq=   16 SFac= 1.00D+00 NAtFMM=   60 NAOKFM=F Big=F
 Integral buffers will be    131072 words long.
 Raffenetti 2 integral format.
 Two-electron integral symmetry is turned on.
 Nuclear repulsion after empirical dispersion term =      524.6334578306 Hartrees.
 ------------------------------------------------------------------------------
 Polarizable Continuum Model (PCM)
 =================================
 Model                : C-PCM.
 Atomic radii         : UFF (Universal Force Field).
 Polarization charges : Total charges.
 Charge compensation  : None.
 Solution method      : On-the-fly selection.
 Cavity type          : Scaled VdW (van der Waals Surface) (Alpha=1.100).
 Cavity algorithm     : GePol (No added spheres)
                        Default sphere list used, NSphG=   16.
                        Lebedev-Laikov grids with approx.  5.0 points / Ang**2.
                        Smoothing algorithm: Karplus/York (Gamma=1.0000).
                        Polarization charges: spherical gaussians, with
                                              point-specific exponents (IZeta= 3).
                        Self-potential: point-specific (ISelfS= 7).
                        Self-field    : sphere-specific E.n sum rule (ISelfD= 2).
 1st derivatives      : Analytical E(r).r(x)/FMM algorithm (CHGder, D1EAlg=3).
                        Cavity 1st derivative terms included.
 Solvent              : Water, Eps=  78.355300 Eps(inf)=   1.777849
 ------------------------------------------------------------------------------
 Spheres list:
 ISph  on   Nord     Re0    Alpha      Xe            Ye            Ze
    1   N      1    1.8300  1.100     -0.300017     -0.342416     -0.412754
    2   N      2    1.8300  1.100      0.299940      0.342277      0.412079
    3   C      3    1.9255  1.100     -1.703779     -0.495665     -0.106087
    4   C      4    1.9255  1.100      1.703700      0.495462      0.105441
    5   O      5    1.7500  1.100      2.172628      1.577555     -0.085794
    6   O      6    1.7500  1.100     -2.172817     -1.577875      0.084217
    7   O      7    1.7500  1.100      2.331034     -0.655396      0.137508
    8   O      8    1.7500  1.100     -2.330964      0.655311     -0.136857
    9   C      9    1.9255  1.100     -3.746301      0.605414      0.076937
   10   H     10    1.4430  1.100     -4.166695      1.438903     -0.490768
   11   H     11    1.4430  1.100     -4.144530     -0.350816     -0.283982
   12   H     12    1.4430  1.100     -3.964677      0.716246      1.146110
   13   C     13    1.9255  1.100      3.746424     -0.605516     -0.075960
   14   H     14    1.4430  1.100      4.193659     -1.195272      0.727713
   15   H     15    1.4430  1.100      3.990034     -1.037257     -1.054407
   16   H     16    1.4430  1.100      4.093430      0.434238     -0.034528
 ------------------------------------------------------------------------------
 One-electron integrals computed using PRISM.
   1 Symmetry operations used in ECPInt.
 ECPInt:  NShTT=    3081 NPrTT=   11473 LenC2=    2857 LenP2D=    7865.
 LDataN:  DoStor=T MaxTD1= 4 Len=   56
 NBasis=   170 RedAO= T EigKep=  4.31D-03  NBF=   170
 NBsUse=   170 1.00D-06 EigRej= -1.00D+00 NBFU=   170
 ExpMin= 1.22D-01 ExpMax= 2.27D+03 ExpMxC= 3.41D+02 IAcc=1 IRadAn=         1 AccDes= 0.00D+00
 Harris functional with IExCor= 1009 and IRadAn=       1 diagonalized for initial guess.
 HarFok:  IExCor= 1009 AccDes= 0.00D+00 IRadAn=         1 IDoV= 1 UseB2=F ITyADJ=14
 ICtDFT=  3500011 ScaDFX=  1.000000  1.000000  1.000000  1.000000
 FoFCou: FMM=F IPFlag=           0 FMFlag=      100000 FMFlg1=           0
         NFxFlg=           0 DoJE=T BraDBF=F KetDBF=T FulRan=T
         wScrn=  0.000000 ICntrl=     500 IOpCl=  0 I1Cent=   200000004 NGrid=           0
         NMat0=    1 NMatS0=      1 NMatT0=    0 NMatD0=    1 NMtDS0=    0 NMtDT0=    0
 Petite list used in FoFCou.
 Requested convergence on RMS density matrix=1.00D-08 within 128 cycles.
 Requested convergence on MAX density matrix=1.00D-06.
 Requested convergence on             energy=1.00D-06.
 No special actions if energy rises.
 Inv3:  Mode=1 IEnd=     7254075.
 Iteration    1 A*A^-1 deviation from unit magnitude is 1.02D-14 for   1553.
 Iteration    1 A*A^-1 deviation from orthogonality  is 2.52D-15 for    770    421.
 Iteration    1 A^-1*A deviation from unit magnitude is 1.02D-14 for   1553.
 Iteration    1 A^-1*A deviation from orthogonality  is 2.43D-15 for   1527    800.
 Error on total polarization charges =  0.00545
 SCF Done:  E(RM062X) =  -565.734249512     A.U. after   15 cycles
            NFock= 15  Conv=0.78D-08     -V/T= 2.0077

 **********************************************************************

            Population analysis using the SCF density.

 **********************************************************************

 Orbital symmetries:
       Occupied  (A) (A) (A) (A) (A) (A) (A) (A) (A) (A) (A) (A)
                 (A) (A) (A) (A) (A) (A) (A) (A) (A) (A) (A) (A)
                 (A) (A) (A) (A) (A) (A) (A) (A) (A) (A) (A) (A)
                 (A) (A)
       Virtual   (A) (A) (A) (A) (A) (A) (A) (A) (A) (A) (A) (A)
                 (A) (A) (A) (A) (A) (A) (A) (A) (A) (A) (A) (A)
                 (A) (A) (A) (A) (A) (A) (A) (A) (A) (A) (A) (A)
                 (A) (A) (A) (A) (A) (A) (A) (A) (A) (A) (A) (A)
                 (A) (A) (A) (A) (A) (A) (A) (A) (A) (A) (A) (A)
                 (A) (A) (A) (A) (A) (A) (A) (A) (A) (A) (A) (A)
                 (A) (A) (A) (A) (A) (A) (A) (A) (A) (A) (A) (A)
                 (A) (A) (A) (A) (A) (A) (A) (A) (A) (A) (A) (A)
                 (A) (A) (A) (A) (A) (A) (A) (A) (A) (A) (A) (A)
                 (A) (A) (A) (A) (A) (A) (A) (A) (A) (A) (A) (A)
                 (A) (A) (A) (A) (A) (A) (A) (A) (A) (A) (A) (A)
 The electronic state is 1-A.
 Alpha  occ. eigenvalues --  -19.70609 -19.70600 -19.65226 -19.65176 -14.86039
 Alpha  occ. eigenvalues --  -14.85961 -10.73268 -10.73231 -10.61746 -10.61584
 Alpha  occ. eigenvalues --   -1.27497  -1.26146  -1.18180  -1.16416  -1.16158
 Alpha  occ. eigenvalues --   -0.91145  -0.83854  -0.80101  -0.69685  -0.66198
 Alpha  occ. eigenvalues --   -0.65612  -0.62187  -0.59831  -0.59031  -0.58488
 Alpha  occ. eigenvalues --   -0.55543  -0.52906  -0.52607  -0.49820  -0.48973
 Alpha  occ. eigenvalues --   -0.47366  -0.44862  -0.44609  -0.41143  -0.40241
 Alpha  occ. eigenvalues --   -0.39654  -0.39550  -0.33422
 Alpha virt. eigenvalues --   -0.05345   0.05327   0.05548   0.11911   0.12139
 Alpha virt. eigenvalues --    0.15955   0.16093   0.16938   0.17377   0.17982
 Alpha virt. eigenvalues --    0.18085   0.24363   0.24483   0.32300   0.35809
 Alpha virt. eigenvalues --    0.38467   0.40444   0.43029   0.43296   0.45205
 Alpha virt. eigenvalues --    0.48227   0.48793   0.53064   0.53456   0.54011
 Alpha virt. eigenvalues --    0.54561   0.55891   0.57899   0.61956   0.64074
 Alpha virt. eigenvalues --    0.68628   0.68937   0.70036   0.70118   0.70163
 Alpha virt. eigenvalues --    0.70895   0.72069   0.72131   0.76909   0.77811
 Alpha virt. eigenvalues --    0.78262   0.83225   0.84268   0.86507   0.92427
 Alpha virt. eigenvalues --    0.92912   0.94843   0.97203   1.00088   1.03540
 Alpha virt. eigenvalues --    1.03711   1.06678   1.13264   1.14233   1.17464
 Alpha virt. eigenvalues --    1.19812   1.21534   1.24797   1.34494   1.35819
 Alpha virt. eigenvalues --    1.38797   1.42652   1.44372   1.47788   1.51365
 Alpha virt. eigenvalues --    1.52716   1.56452   1.58053   1.59877   1.61836
 Alpha virt. eigenvalues --    1.64262   1.65123   1.69873   1.73700   1.75779
 Alpha virt. eigenvalues --    1.76607   1.76827   1.77910   1.80017   1.83206
 Alpha virt. eigenvalues --    1.83793   1.87581   1.90094   1.91375   1.93101
 Alpha virt. eigenvalues --    1.97035   1.97850   2.00069   2.06173   2.12401
 Alpha virt. eigenvalues --    2.15054   2.15992   2.16677   2.26787   2.31168
 Alpha virt. eigenvalues --    2.34364   2.35968   2.37531   2.45050   2.50194
 Alpha virt. eigenvalues --    2.56638   2.61296   2.66056   2.66480   2.68899
 Alpha virt. eigenvalues --    2.69627   2.72685   2.74059   2.81872   2.83125
 Alpha virt. eigenvalues --    2.85474   2.86917   2.87872   2.89933   2.95228
 Alpha virt. eigenvalues --    2.97056   2.97736   2.99336   3.03611   3.07451
 Alpha virt. eigenvalues --    3.20706   3.22665   3.24359   3.27584   3.31216
 Alpha virt. eigenvalues --    3.36870   3.44570   3.45672   3.63523   3.66988
 Alpha virt. eigenvalues --    3.72144   3.72632
          Condensed to atoms (all electrons):
               1          2          3          4          5          6
     1  N    6.759369   0.319054   0.272473  -0.051342  -0.000450  -0.079010
     2  N    0.319054   6.764871  -0.052231   0.268151  -0.079303  -0.000420
     3  C    0.272473  -0.052231   4.345990   0.000915  -0.000316   0.714616
     4  C   -0.051342   0.268151   0.000915   4.352341   0.716850  -0.000311
     5  O   -0.000450  -0.079303  -0.000316   0.716850   7.692596   0.000000
     6  O   -0.079010  -0.000420   0.714616  -0.000311   0.000000   7.694074
     7  O    0.005536  -0.102686  -0.000523   0.397410  -0.078936   0.000007
     8  O   -0.102566   0.005507   0.399028  -0.000508   0.000007  -0.079587
     9  C    0.003902  -0.000690  -0.032330   0.000009  -0.000001  -0.011566
    10  H   -0.000021   0.000001   0.003755   0.000001   0.000000   0.000501
    11  H    0.000868  -0.000051  -0.007202   0.000005   0.000000   0.018885
    12  H   -0.000029   0.000018  -0.001009  -0.000006   0.000000   0.000423
    13  C   -0.000582   0.003173   0.000008  -0.034519  -0.020609  -0.000001
    14  H    0.000017  -0.000057   0.000001   0.002777   0.000385   0.000000
    15  H    0.000036  -0.000051  -0.000004   0.000651   0.000176   0.000000
    16  H   -0.000136   0.001364   0.000006  -0.008966   0.026405   0.000000
               7          8          9         10         11         12
     1  N    0.005536  -0.102566   0.003902  -0.000021   0.000868  -0.000029
     2  N   -0.102686   0.005507  -0.000690   0.000001  -0.000051   0.000018
     3  C   -0.000523   0.399028  -0.032330   0.003755  -0.007202  -0.001009
     4  C    0.397410  -0.000508   0.000009   0.000001   0.000005  -0.000006
     5  O   -0.078936   0.000007  -0.000001   0.000000   0.000000   0.000000
     6  O    0.000007  -0.079587  -0.011566   0.000501   0.018885   0.000423
     7  O    7.929285  -0.000001   0.000000   0.000000   0.000000   0.000000
     8  O   -0.000001   7.928282   0.251419  -0.022134  -0.027568  -0.024665
     9  C    0.000000   0.251419   4.465926   0.404553   0.401314   0.411941
    10  H    0.000000  -0.022134   0.404553   0.565849  -0.017905  -0.019651
    11  H    0.000000  -0.027568   0.401314  -0.017905   0.579163  -0.025248
    12  H    0.000000  -0.024665   0.411941  -0.019651  -0.025248   0.571083
    13  C    0.252894   0.000000   0.000000   0.000000   0.000000   0.000000
    14  H   -0.024757   0.000000   0.000000   0.000000   0.000000   0.000000
    15  H   -0.023123   0.000000   0.000000   0.000000   0.000000   0.000000
    16  H   -0.027881   0.000000   0.000000   0.000000   0.000000   0.000000
              13         14         15         16
     1  N   -0.000582   0.000017   0.000036  -0.000136
     2  N    0.003173  -0.000057  -0.000051   0.001364
     3  C    0.000008   0.000001  -0.000004   0.000006
     4  C   -0.034519   0.002777   0.000651  -0.008966
     5  O   -0.020609   0.000385   0.000176   0.026405
     6  O   -0.000001   0.000000   0.000000   0.000000
     7  O    0.252894  -0.024757  -0.023123  -0.027881
     8  O    0.000000   0.000000   0.000000   0.000000
     9  C    0.000000   0.000000   0.000000   0.000000
    10  H    0.000000   0.000000   0.000000   0.000000
    11  H    0.000000   0.000000   0.000000   0.000000
    12  H    0.000000   0.000000   0.000000   0.000000
    13  C    4.486538   0.406891   0.408676   0.399597
    14  H    0.406891   0.566747  -0.019521  -0.017835
    15  H    0.408676  -0.019521   0.566047  -0.022290
    16  H    0.399597  -0.017835  -0.022290   0.568623
 Mulliken charges:
               1
     1  N   -0.127118
     2  N   -0.126651
     3  C    0.356824
     4  C    0.356540
     5  O   -0.256806
     6  O   -0.257610
     7  O   -0.327225
     8  O   -0.327213
     9  C    0.105524
    10  H    0.085052
    11  H    0.077739
    12  H    0.087143
    13  C    0.097933
    14  H    0.085351
    15  H    0.089403
    16  H    0.081113
 Sum of Mulliken charges =   0.00000
 Mulliken charges with hydrogens summed into heavy atoms:
               1
     1  N   -0.127118
     2  N   -0.126651
     3  C    0.356824
     4  C    0.356540
     5  O   -0.256806
     6  O   -0.257610
     7  O   -0.327225
     8  O   -0.327213
     9  C    0.355457
    13  C    0.353801
 Electronic spatial extent (au):  <R**2>=           2022.9695
 Charge=              0.0000 electrons
 Dipole moment (field-independent basis, Debye):
    X=             -0.0145    Y=              0.0216    Z=             -0.0013  Tot=              0.0260
 Quadrupole moment (field-independent basis, Debye-Ang):
   XX=            -30.7116   YY=            -65.9471   ZZ=            -55.2171
   XY=            -12.7487   XZ=              0.2854   YZ=              0.1578
 Traceless Quadrupole moment (field-independent basis, Debye-Ang):
   XX=             19.9136   YY=            -15.3219   ZZ=             -4.5918
   XY=            -12.7487   XZ=              0.2854   YZ=              0.1578
 Octapole moment (field-independent basis, Debye-Ang**2):
  XXX=             -0.3177  YYY=              0.5304  ZZZ=              0.4876  XYY=             -0.2643
  XXY=              0.4361  XXZ=             -0.2188  XZZ=              0.1997  YZZ=             -0.4653
  YYZ=             -0.4972  XYZ=              0.0663
 Hexadecapole moment (field-independent basis, Debye-Ang**3):
 XXXX=          -1590.1810 YYYY=           -331.9983 ZZZZ=            -73.0971 XXXY=           -136.3940
 XXXZ=             -4.1966 YYYX=            -36.5557 YYYZ=             -1.6919 ZZZX=             -3.3480
 ZZZY=             -1.3049 XXYY=           -423.6840 XXZZ=           -343.1543 YYZZ=            -61.6855
 XXYZ=              6.5774 YYXZ=              5.7031 ZZXY=             -3.1146
 N-N= 5.246334578306D+02 E-N=-2.373968253159D+03  KE= 5.613850719552D+02
   1 Symmetry operations used in ECPInt.
 ECPInt:  NShTT=    3081 NPrTT=   11473 LenC2=    2857 LenP2D=    7865.
 LDataN:  DoStor=T MaxTD1= 5 Len=  102
 D1PCM: C-PCM CHGder 1st derivatives, ID1Alg=3 FixD1E=F DoIter=F DoCFld=F I1PDM=0.
 Calling FoFJK, ICntrl=      2127 FMM=F ISym2X=0 I1Cent= 0 IOpClX= 0 NMat=1 NMatS=1 NMatT=0.
 ***** Axes restored to original set *****
 -------------------------------------------------------------------
 Center     Atomic                   Forces (Hartrees/Bohr)
 Number     Number              X              Y              Z
 -------------------------------------------------------------------
      1        7           0.000046319    0.000121451   -0.000296948
      2        7          -0.000202253   -0.000170425    0.000294794
      3        6          -0.000640546    0.000230132    0.000950321
      4        6           0.000959525   -0.000698451   -0.000713359
      5        8           0.004023208   -0.002466440    0.000013521
      6        8          -0.002138612    0.001298663    0.000076589
      7        8          -0.000443578   -0.001474211   -0.002912417
      8        8           0.000406742    0.001232304    0.000782937
      9        6           0.002045527   -0.000319973   -0.002455880
     10        1           0.000990068   -0.000853861    0.000781443
     11        1           0.000092012   -0.001389019   -0.000058515
     12        1          -0.001207948   -0.000281399    0.000125855
     13        6          -0.003763814    0.000089717    0.002844126
     14        1          -0.002647206    0.001319842   -0.000456415
     15        1           0.002679326    0.000991871    0.000466940
     16        1          -0.000198771    0.002369799    0.000557006
 -------------------------------------------------------------------
 Cartesian Forces:  Max     0.004023208 RMS     0.001492563

 GradGradGradGradGradGradGradGradGradGradGradGradGradGradGradGradGradGrad
 Berny optimization.
 FormGI is forming the generalized inverse of G from B-inverse, IUseBI=4.
 Internal  Forces:  Max     0.015937859 RMS     0.003240474
 Search for a local minimum.
 Step number   1 out of a maximum of   62
 All quantities printed in internal units (Hartrees-Bohrs-Radians)
 Mixed Optimization -- RFO/linear search
 Second derivative matrix not updated -- first step.
 ITU=  0
     Eigenvalues ---    0.01096   0.01096   0.01265   0.01265   0.02073
     Eigenvalues ---    0.02074   0.02867   0.02867   0.03564   0.10308
     Eigenvalues ---    0.10308   0.10661   0.10661   0.16000   0.16000
     Eigenvalues ---    0.16000   0.16000   0.16000   0.16000   0.24985
     Eigenvalues ---    0.24985   0.25000   0.25000   0.25000   0.25000
     Eigenvalues ---    0.25000   0.25000   0.34026   0.34026   0.34032
     Eigenvalues ---    0.34032   0.34517   0.34517   0.38905   0.38907
     Eigenvalues ---    0.40665   0.40666   0.64195   0.64196   0.91733
     Eigenvalues ---    1.07514   1.07515
 RFO step:  Lambda=-2.54840260D-03 EMin= 1.09627683D-02
 Linear search not attempted -- first point.
 Iteration  1 RMS(Cart)=  0.06299374 RMS(Int)=  0.00165070
 Iteration  2 RMS(Cart)=  0.00267699 RMS(Int)=  0.00007265
 Iteration  3 RMS(Cart)=  0.00000276 RMS(Int)=  0.00007262
 Iteration  4 RMS(Cart)=  0.00000000 RMS(Int)=  0.00007262
 Variable       Old X    -DE/DX   Delta X   Delta X   Delta X     New X
                                 (Linear)    (Quad)   (Total)
    R1        2.32144  -0.00018   0.00000  -0.00019  -0.00019   2.32125
    R2        2.73069  -0.00040   0.00000  -0.00102  -0.00102   2.72967
    R3        2.73066  -0.00056   0.00000  -0.00142  -0.00142   2.72924
    R4        2.25772   0.00035   0.00000   0.00032   0.00032   2.25804
    R5        2.47767   0.00258   0.00000   0.00400   0.00400   2.48167
    R6        2.25772   0.00065   0.00000   0.00060   0.00060   2.25832
    R7        2.47767   0.00503   0.00000   0.00780   0.00780   2.48547
    R8        2.70659   0.00321   0.00000   0.00784   0.00784   2.71443
    R9        2.70658   0.00156   0.00000   0.00380   0.00380   2.71039
   R10        2.06467   0.00063   0.00000   0.00180   0.00180   2.06647
   R11        2.07287  -0.00117   0.00000  -0.00341  -0.00341   2.06946
   R12        2.07277  -0.00008   0.00000  -0.00024  -0.00024   2.07253
   R13        2.06467   0.00146   0.00000   0.00419   0.00419   2.06886
   R14        2.07277  -0.00061   0.00000  -0.00178  -0.00178   2.07098
   R15        2.07286  -0.00217   0.00000  -0.00633  -0.00633   2.06653
    A1        1.97257  -0.00028   0.00000  -0.00111  -0.00111   1.97146
    A2        1.97257  -0.00056   0.00000  -0.00221  -0.00221   1.97035
    A3        2.10743  -0.00184   0.00000  -0.00728  -0.00728   2.10015
    A4        1.94617  -0.00187   0.00000  -0.00738  -0.00738   1.93879
    A5        2.22826   0.00372   0.00000   0.01475   0.01475   2.24301
    A6        2.10746  -0.00346   0.00000  -0.01359  -0.01360   2.09387
    A7        1.94612  -0.00359   0.00000  -0.01408  -0.01409   1.93203
    A8        2.22828   0.00705   0.00000   0.02805   0.02804   2.25632
    A9        2.02486   0.01594   0.00000   0.06311   0.06311   2.08796
   A10        2.02485   0.00830   0.00000   0.03288   0.03288   2.05774
   A11        1.85052   0.00152   0.00000   0.00942   0.00939   1.85991
   A12        1.91772   0.00117   0.00000   0.00832   0.00830   1.92602
   A13        1.91635  -0.00250   0.00000  -0.01659  -0.01659   1.89977
   A14        1.93304  -0.00023   0.00000   0.00123   0.00116   1.93420
   A15        1.93135  -0.00059   0.00000  -0.00610  -0.00610   1.92525
   A16        1.91403   0.00062   0.00000   0.00367   0.00368   1.91771
   A17        1.85052   0.00391   0.00000   0.02461   0.02451   1.87503
   A18        1.91636  -0.00541   0.00000  -0.03559  -0.03554   1.88081
   A19        1.91772   0.00201   0.00000   0.01412   0.01400   1.93172
   A20        1.93134  -0.00104   0.00000  -0.01033  -0.01025   1.92109
   A21        1.93305  -0.00080   0.00000   0.00014  -0.00013   1.93292
   A22        1.91403   0.00132   0.00000   0.00703   0.00705   1.92109
    D1        3.14154  -0.00007   0.00000  -0.00183  -0.00183   3.13971
    D2       -2.08599  -0.00002   0.00000  -0.00572  -0.00572  -2.09171
    D3        1.10672  -0.00017   0.00000  -0.00792  -0.00792   1.09880
    D4        2.08508  -0.00021   0.00000  -0.00589  -0.00584   2.07924
    D5       -1.10776   0.00016   0.00000   0.00239   0.00233  -1.10543
    D6        3.08043  -0.00065   0.00000  -0.01898  -0.01897   3.06146
    D7       -0.00566  -0.00059   0.00000  -0.02051  -0.02051  -0.02617
    D8       -3.08029   0.00058   0.00000   0.01462   0.01457  -3.06572
    D9        0.00565   0.00057   0.00000   0.02195   0.02200   0.02765
   D10        2.28621   0.00217   0.00000   0.06224   0.06252   2.34873
   D11       -1.91004   0.00030   0.00000   0.04513   0.04508  -1.86496
   D12        0.19652  -0.00022   0.00000   0.04019   0.03995   0.23647
   D13       -2.61066  -0.00175   0.00000  -0.06975  -0.06980  -2.68046
   D14       -0.52098  -0.00051   0.00000  -0.05834  -0.05828  -0.57926
   D15        1.58557  -0.00058   0.00000  -0.05905  -0.05906   1.52651
         Item               Value     Threshold  Converged?
 Maximum Force            0.015938     0.000450     NO 
 RMS     Force            0.003240     0.000300     NO 
 Maximum Displacement     0.153820     0.001800     NO 
 RMS     Displacement     0.062859     0.001200     NO 
 Predicted change in Energy=-1.313909D-03
 GradGradGradGradGradGradGradGradGradGradGradGradGradGradGradGradGradGrad

                          Input orientation:                          
 ---------------------------------------------------------------------
 Center     Atomic      Atomic             Coordinates (Angstroms)
 Number     Number       Type             X           Y           Z
 ---------------------------------------------------------------------
      1          7           0        0.291671    0.337723   -0.406048
      2          7           0       -0.295870   -0.378394    0.400688
      3          6           0        1.688664    0.518288   -0.086171
      4          6           0       -1.693039   -0.555988    0.080941
      5          8           0       -2.120380   -1.649794   -0.140692
      6          8           0        2.123408    1.611491    0.122883
      7          8           0       -2.332046    0.592297    0.135731
      8          8           0        2.334707   -0.624239   -0.129326
      9          6           0        3.755365   -0.599727    0.066317
     10          1           0        4.156732   -1.474354   -0.453048
     11          1           0        4.180071    0.323800   -0.341108
     12          1           0        3.966262   -0.664945    1.140606
     13          6           0       -3.755081    0.623071   -0.057433
     14          1           0       -4.177897    1.266191    0.721153
     15          1           0       -3.948984    1.052986   -1.046680
     16          1           0       -4.174824   -0.384947    0.002512
 ---------------------------------------------------------------------
                    Distance matrix (angstroms):
                    1          2          3          4          5
     1  N    0.000000
     2  N    1.228352   0.000000
     3  C    1.444477   2.231467   0.000000
     4  C    2.230460   1.444250   3.552169   0.000000
     5  O    3.136658   2.288752   4.383191   1.195053   0.000000
     6  O    2.292927   3.144793   1.194906   4.389191   5.358655
     7  O    2.691138   2.271224   4.027508   1.315254   2.268961
     8  O    2.275070   2.694677   1.313241   4.033807   4.571617
     9  C    3.619270   4.071031   2.354668   5.448598   5.972425
    10  H    4.269020   4.664296   3.193208   5.945448   6.287327
    11  H    3.888967   4.591011   2.511957   5.953618   6.605370
    12  H    4.110973   4.335361   2.844727   5.758684   6.297527
    13  C    4.071751   3.630282   5.444829   2.379358   2.800910
    14  H    4.702093   4.228179   5.968892   3.147178   3.671393
    15  H    4.348007   4.181981   5.743827   2.991591   3.386684
    16  H    4.542990   3.899343   5.933312   2.488909   2.416835
                    6          7          8          9         10
     6  O    0.000000
     7  O    4.570557   0.000000
     8  O    2.259812   4.829989   0.000000
     9  C    2.748812   6.203411   1.434276   0.000000
    10  H    3.740126   6.835345   2.036484   1.093531   0.000000
    11  H    2.470485   6.535069   2.085425   1.095113   1.801786
    12  H    3.100650   6.500701   2.067935   1.096735   1.797541
    13  C    5.963734   1.436415   6.216628   7.610344   8.194662
    14  H    6.339055   2.050371   6.834548   8.176008   8.851857
    15  H    6.209167   2.055436   6.568058   7.957839   8.511314
    16  H    6.608176   2.090116   6.515262   7.933354   8.414819
                   11         12         13         14         15
    11  H    0.000000
    12  H    1.794104   0.000000
    13  C    7.945859   7.919180   0.000000
    14  H    8.477744   8.380486   1.094793   0.000000
    15  H    8.192135   8.389673   1.095917   1.795296   0.000000
    16  H    8.391941   8.225019   1.093562   1.800752   1.794285
                   16
    16  H    0.000000
 Stoichiometry    C4H6N2O4
 Framework group  C1[X(C4H6N2O4)]
 Deg. of freedom    42
 Full point group                 C1      NOp   1
 Largest Abelian subgroup         C1      NOp   1
 Largest concise Abelian subgroup C1      NOp   1
                         Standard orientation:                         
 ---------------------------------------------------------------------
 Center     Atomic      Atomic             Coordinates (Angstroms)
 Number     Number       Type             X           Y           Z
 ---------------------------------------------------------------------
      1          7           0       -0.292548   -0.337438   -0.413605
      2          7           0        0.296676    0.356731    0.410892
      3          6           0       -1.691415   -0.517443   -0.101706
      4          6           0        1.695703    0.533762    0.099055
      5          8           0        2.129720    1.629941   -0.096327
      6          8           0       -2.132797   -1.612690    0.081094
      7          8           0        2.328181   -0.619039    0.129260
      8          8           0       -2.330994    0.629375   -0.120430
      9          6           0       -3.752311    0.608354    0.070779
     10          1           0       -4.147362    1.496870   -0.429504
     11          1           0       -4.180978   -0.303215   -0.358825
     12          1           0       -3.965870    0.650157    1.145708
     13          6           0        3.751563   -0.653359   -0.060729
     14          1           0        4.168614   -1.316483    0.704064
     15          1           0        3.945867   -1.061608   -1.059034
     16          1           0        4.176714    0.350655    0.023408
 ---------------------------------------------------------------------
 Rotational constants (GHZ):      3.8669854      0.6022948      0.5311159
 Standard basis: def2SVP (5D, 7F)
 There are   180 symmetry adapted cartesian basis functions of A   symmetry.
 There are   170 symmetry adapted basis functions of A   symmetry.
   170 basis functions,   292 primitive gaussians,   180 cartesian basis functions
    38 alpha electrons       38 beta electrons
       nuclear repulsion energy       523.4715402981 Hartrees.
 NAtoms=   16 NActive=   16 NUniq=   16 SFac= 1.00D+00 NAtFMM=   60 NAOKFM=F Big=F
 Integral buffers will be    131072 words long.
 Raffenetti 2 integral format.
 Two-electron integral symmetry is turned on.
 Nuclear repulsion after empirical dispersion term =      523.4711444128 Hartrees.
 ------------------------------------------------------------------------------
 Polarizable Continuum Model (PCM)
 =================================
 Model                : C-PCM.
 Atomic radii         : UFF (Universal Force Field).
 Polarization charges : Total charges.
 Charge compensation  : None.
 Solution method      : On-the-fly selection.
 Cavity type          : Scaled VdW (van der Waals Surface) (Alpha=1.100).
 Cavity algorithm     : GePol (No added spheres)
                        Default sphere list used, NSphG=   16.
                        Lebedev-Laikov grids with approx.  5.0 points / Ang**2.
                        Smoothing algorithm: Karplus/York (Gamma=1.0000).
                        Polarization charges: spherical gaussians, with
                                              point-specific exponents (IZeta= 3).
                        Self-potential: point-specific (ISelfS= 7).
                        Self-field    : sphere-specific E.n sum rule (ISelfD= 2).
 1st derivatives      : Analytical E(r).r(x)/FMM algorithm (CHGder, D1EAlg=3).
                        Cavity 1st derivative terms included.
 Solvent              : Water, Eps=  78.355300 Eps(inf)=   1.777849
 ------------------------------------------------------------------------------
 Spheres list:
 ISph  on   Nord     Re0    Alpha      Xe            Ye            Ze
    1   N      1    1.8300  1.100     -0.292548     -0.337438     -0.413605
    2   N      2    1.8300  1.100      0.296676      0.356731      0.410892
    3   C      3    1.9255  1.100     -1.691415     -0.517443     -0.101706
    4   C      4    1.9255  1.100      1.695703      0.533762      0.099055
    5   O      5    1.7500  1.100      2.129720      1.629941     -0.096327
    6   O      6    1.7500  1.100     -2.132797     -1.612690      0.081094
    7   O      7    1.7500  1.100      2.328181     -0.619039      0.129260
    8   O      8    1.7500  1.100     -2.330994      0.629375     -0.120430
    9   C      9    1.9255  1.100     -3.752311      0.608354      0.070779
   10   H     10    1.4430  1.100     -4.147362      1.496870     -0.429504
   11   H     11    1.4430  1.100     -4.180978     -0.303215     -0.358825
   12   H     12    1.4430  1.100     -3.965870      0.650157      1.145708
   13   C     13    1.9255  1.100      3.751563     -0.653359     -0.060729
   14   H     14    1.4430  1.100      4.168614     -1.316483      0.704064
   15   H     15    1.4430  1.100      3.945867     -1.061608     -1.059034
   16   H     16    1.4430  1.100      4.176714      0.350655      0.023408
 ------------------------------------------------------------------------------
 One-electron integrals computed using PRISM.
   1 Symmetry operations used in ECPInt.
 ECPInt:  NShTT=    3081 NPrTT=   11473 LenC2=    2861 LenP2D=    7861.
 LDataN:  DoStor=T MaxTD1= 4 Len=   56
 NBasis=   170 RedAO= T EigKep=  4.44D-03  NBF=   170
 NBsUse=   170 1.00D-06 EigRej= -1.00D+00 NBFU=   170
 Initial guess from the checkpoint file:  "m062x_dmad_cycloaddition_PM6_toluene_water_1.chk"
 B after Tr=     0.000000    0.000000    0.000000
         Rot=    0.999997   -0.001293   -0.000076   -0.001941 Ang=  -0.27 deg.
 ExpMin= 1.22D-01 ExpMax= 2.27D+03 ExpMxC= 3.41D+02 IAcc=1 IRadAn=         1 AccDes= 0.00D+00
 Harris functional with IExCor= 1009 and IRadAn=       1 diagonalized for initial guess.
 HarFok:  IExCor= 1009 AccDes= 0.00D+00 IRadAn=         1 IDoV= 1 UseB2=F ITyADJ=14
 ICtDFT=  3500011 ScaDFX=  1.000000  1.000000  1.000000  1.000000
 FoFCou: FMM=F IPFlag=           0 FMFlag=      100000 FMFlg1=           0
         NFxFlg=           0 DoJE=T BraDBF=F KetDBF=T FulRan=T
         wScrn=  0.000000 ICntrl=     500 IOpCl=  0 I1Cent=   200000004 NGrid=           0
         NMat0=    1 NMatS0=      1 NMatT0=    0 NMatD0=    1 NMtDS0=    0 NMtDT0=    0
 Petite list used in FoFCou.
 Requested convergence on RMS density matrix=1.00D-08 within 128 cycles.
 Requested convergence on MAX density matrix=1.00D-06.
 Requested convergence on             energy=1.00D-06.
 No special actions if energy rises.
 Inv3:  Mode=1 IEnd=     7207500.
 Iteration    1 A*A^-1 deviation from unit magnitude is 4.44D-15 for   1522.
 Iteration    1 A*A^-1 deviation from orthogonality  is 1.45D-15 for   1520   1070.
 Iteration    1 A^-1*A deviation from unit magnitude is 4.44D-15 for   1522.
 Iteration    1 A^-1*A deviation from orthogonality  is 1.30D-15 for   1230    314.
 Error on total polarization charges =  0.00544
 SCF Done:  E(RM062X) =  -565.734911984     A.U. after   13 cycles
            NFock= 13  Conv=0.28D-08     -V/T= 2.0079
   1 Symmetry operations used in ECPInt.
 ECPInt:  NShTT=    3081 NPrTT=   11473 LenC2=    2861 LenP2D=    7861.
 LDataN:  DoStor=T MaxTD1= 5 Len=  102
 D1PCM: C-PCM CHGder 1st derivatives, ID1Alg=3 FixD1E=F DoIter=F DoCFld=F I1PDM=0.
 Calling FoFJK, ICntrl=      2127 FMM=F ISym2X=0 I1Cent= 0 IOpClX= 0 NMat=1 NMatS=1 NMatT=0.
 ***** Axes restored to original set *****
 -------------------------------------------------------------------
 Center     Atomic                   Forces (Hartrees/Bohr)
 Number     Number              X              Y              Z
 -------------------------------------------------------------------
      1        7           0.000198210   -0.000203902    0.000202106
      2        7           0.000309966    0.000863731    0.000177232
      3        6           0.001281600   -0.001326773    0.000564312
      4        6          -0.002517871    0.001864274   -0.001013282
      5        8          -0.002408608    0.002542102    0.000312705
      6        8           0.001313559   -0.001268525   -0.000090290
      7        8          -0.000271760   -0.002966328    0.001860446
      8        8           0.000343443    0.001426547   -0.001765826
      9        6          -0.001653916    0.000687564    0.001361377
     10        1          -0.000640584   -0.000063158    0.000189662
     11        1          -0.000249592    0.000618832   -0.000547605
     12        1           0.000475321    0.000184475    0.000048452
     13        6           0.002729231   -0.000674376   -0.001813174
     14        1           0.001149503   -0.000043069    0.000004268
     15        1          -0.000541985    0.000027553   -0.000083384
     16        1           0.000483482   -0.001668946    0.000593002
 -------------------------------------------------------------------
 Cartesian Forces:  Max     0.002966328 RMS     0.001221115

 GradGradGradGradGradGradGradGradGradGradGradGradGradGradGradGradGradGrad
 Berny optimization.
 Using GEDIIS/GDIIS optimizer.
 FormGI is forming the generalized inverse of G from B-inverse, IUseBI=4.
 Internal  Forces:  Max     0.007779914 RMS     0.002011923
 Search for a local minimum.
 Step number   2 out of a maximum of   62
 All quantities printed in internal units (Hartrees-Bohrs-Radians)
 Mixed Optimization -- RFO/linear search
 Update second derivatives using D2CorX and points    1    2
 DE= -6.62D-04 DEPred=-1.31D-03 R= 5.04D-01
 TightC=F SS=  1.41D+00  RLast= 1.74D-01 DXNew= 5.0454D-01 5.2312D-01
 Trust test= 5.04D-01 RLast= 1.74D-01 DXMaxT set to 5.05D-01
 ITU=  1  0
 Use linear search instead of GDIIS.
     Eigenvalues ---    0.01096   0.01097   0.01182   0.01265   0.02086
     Eigenvalues ---    0.02100   0.02867   0.02882   0.03565   0.10318
     Eigenvalues ---    0.10367   0.10635   0.10644   0.15815   0.16000
     Eigenvalues ---    0.16000   0.16000   0.16000   0.16421   0.24842
     Eigenvalues ---    0.24986   0.24996   0.25000   0.25000   0.25000
     Eigenvalues ---    0.25000   0.32499   0.34025   0.34030   0.34032
     Eigenvalues ---    0.34421   0.34516   0.34886   0.38905   0.39081
     Eigenvalues ---    0.40666   0.43254   0.64195   0.69219   0.91754
     Eigenvalues ---    1.07514   1.07712
 RFO step:  Lambda=-1.01956878D-04 EMin= 1.09597087D-02
 Quartic linear search produced a step of -0.32328.
 Iteration  1 RMS(Cart)=  0.01941578 RMS(Int)=  0.00015694
 Iteration  2 RMS(Cart)=  0.00028149 RMS(Int)=  0.00002499
 Iteration  3 RMS(Cart)=  0.00000002 RMS(Int)=  0.00002499
 Variable       Old X    -DE/DX   Delta X   Delta X   Delta X     New X
                                 (Linear)    (Quad)   (Total)
    R1        2.32125   0.00053   0.00006   0.00032   0.00038   2.32163
    R2        2.72967   0.00083   0.00033   0.00108   0.00141   2.73107
    R3        2.72924   0.00149   0.00046   0.00207   0.00253   2.73177
    R4        2.25804  -0.00070  -0.00010  -0.00032  -0.00043   2.25762
    R5        2.48167  -0.00331  -0.00129  -0.00204  -0.00333   2.47834
    R6        2.25832  -0.00152  -0.00020  -0.00074  -0.00093   2.25739
    R7        2.48547  -0.00635  -0.00252  -0.00386  -0.00638   2.47909
    R8        2.71443  -0.00366  -0.00253  -0.00325  -0.00578   2.70865
    R9        2.71039  -0.00188  -0.00123  -0.00175  -0.00298   2.70741
   R10        2.06647  -0.00028  -0.00058   0.00010  -0.00048   2.06599
   R11        2.06946   0.00063   0.00110   0.00002   0.00112   2.07058
   R12        2.07253   0.00014   0.00008   0.00019   0.00026   2.07279
   R13        2.06886  -0.00047  -0.00136   0.00058  -0.00077   2.06809
   R14        2.07098   0.00019   0.00058  -0.00026   0.00031   2.07129
   R15        2.06653   0.00138   0.00205   0.00047   0.00252   2.06905
    A1        1.97146   0.00086   0.00036   0.00193   0.00229   1.97375
    A2        1.97035   0.00125   0.00072   0.00260   0.00331   1.97366
    A3        2.10015   0.00132   0.00235   0.00088   0.00323   2.10338
    A4        1.93879   0.00117   0.00239   0.00043   0.00281   1.94160
    A5        2.24301  -0.00249  -0.00477  -0.00156  -0.00633   2.23668
    A6        2.09387   0.00268   0.00440   0.00213   0.00647   2.10034
    A7        1.93203   0.00172   0.00455  -0.00065   0.00385   1.93587
    A8        2.25632  -0.00442  -0.00907  -0.00223  -0.01136   2.24496
    A9        2.08796  -0.00778  -0.02040   0.00150  -0.01890   2.06906
   A10        2.05774  -0.00424  -0.01063   0.00027  -0.01036   2.04737
   A11        1.85991  -0.00086  -0.00303  -0.00052  -0.00355   1.85636
   A12        1.92602  -0.00088  -0.00268  -0.00093  -0.00361   1.92241
   A13        1.89977   0.00105   0.00536  -0.00108   0.00428   1.90405
   A14        1.93420   0.00048  -0.00038   0.00174   0.00138   1.93558
   A15        1.92525   0.00008   0.00197  -0.00151   0.00046   1.92572
   A16        1.91771   0.00011  -0.00119   0.00215   0.00095   1.91866
   A17        1.87503  -0.00158  -0.00792   0.00144  -0.00646   1.86857
   A18        1.88081   0.00152   0.01149  -0.00532   0.00616   1.88697
   A19        1.93172  -0.00171  -0.00453  -0.00258  -0.00708   1.92464
   A20        1.92109   0.00035   0.00331  -0.00154   0.00175   1.92284
   A21        1.93292   0.00081   0.00004   0.00177   0.00187   1.93479
   A22        1.92109   0.00058  -0.00228   0.00588   0.00360   1.92468
    D1        3.13971   0.00038   0.00059   0.00669   0.00728  -3.13619
    D2       -2.09171   0.00001   0.00185   0.00453   0.00638  -2.08533
    D3        1.09880   0.00025   0.00256   0.00954   0.01211   1.11091
    D4        2.07924   0.00027   0.00189   0.00372   0.00566   2.08490
    D5       -1.10543  -0.00042  -0.00075  -0.01291  -0.01371  -1.11915
    D6        3.06146   0.00018   0.00613  -0.00260   0.00355   3.06501
    D7       -0.02617   0.00029   0.00663   0.00283   0.00945  -0.01671
    D8       -3.06572   0.00007  -0.00471   0.00970   0.00495  -3.06078
    D9        0.02765  -0.00046  -0.00711  -0.00878  -0.01584   0.01181
   D10        2.34873  -0.00021  -0.02021   0.02330   0.00302   2.35175
   D11       -1.86496   0.00016  -0.01457   0.01943   0.00487  -1.86009
   D12        0.23647   0.00081  -0.01292   0.02176   0.00889   0.24536
   D13       -2.68046  -0.00019   0.02257  -0.03241  -0.00983  -2.69030
   D14       -0.57926  -0.00063   0.01884  -0.03115  -0.01232  -0.59158
   D15        1.52651  -0.00037   0.01909  -0.02976  -0.01067   1.51585
         Item               Value     Threshold  Converged?
 Maximum Force            0.007780     0.000450     NO 
 RMS     Force            0.002012     0.000300     NO 
 Maximum Displacement     0.050858     0.001800     NO 
 RMS     Displacement     0.019357     0.001200     NO 
 Predicted change in Energy=-2.371509D-04
 GradGradGradGradGradGradGradGradGradGradGradGradGradGradGradGradGradGrad

                          Input orientation:                          
 ---------------------------------------------------------------------
 Center     Atomic      Atomic             Coordinates (Angstroms)
 Number     Number       Type             X           Y           Z
 ---------------------------------------------------------------------
      1          7           0        0.298662    0.346689   -0.404674
      2          7           0       -0.300259   -0.361382    0.401105
      3          6           0        1.697807    0.512661   -0.082937
      4          6           0       -1.698141   -0.533133    0.075281
      5          8           0       -2.138570   -1.622881   -0.137894
      6          8           0        2.146149    1.598998    0.131824
      7          8           0       -2.337123    0.611023    0.135560
      8          8           0        2.336734   -0.631401   -0.136555
      9          6           0        3.754771   -0.602367    0.065828
     10          1           0        4.157812   -1.476476   -0.452577
     11          1           0        4.175465    0.323031   -0.343103
     12          1           0        3.965217   -0.665899    1.140447
     13          6           0       -3.757106    0.613704   -0.059753
     14          1           0       -4.187224    1.250153    0.719740
     15          1           0       -3.964168    1.036291   -1.049673
     16          1           0       -4.151267   -0.405552    0.007706
 ---------------------------------------------------------------------
                    Distance matrix (angstroms):
                    1          2          3          4          5
     1  N    0.000000
     2  N    1.228555   0.000000
     3  C    1.445222   2.233945   0.000000
     4  C    2.234203   1.445591   3.556849   0.000000
     5  O    3.144913   2.293750   4.391053   1.194560   0.000000
     6  O    2.295500   3.146508   1.194681   4.396333   5.367688
     7  O    2.703532   2.272642   4.042038   1.311878   2.259321
     8  O    2.276463   2.704759   1.311480   4.041627   4.583817
     9  C    3.614798   4.075997   2.344465   5.453359   5.984515
    10  H    4.268403   4.674035   3.185110   5.954890   6.305941
    11  H    3.877364   4.588504   2.498487   5.950404   6.610274
    12  H    4.105649   4.339774   2.833164   5.764185   6.309214
    13  C    4.079157   3.621184   5.455897   2.360679   2.761898
    14  H    4.712083   4.219843   5.985130   3.129053   3.631370
    15  H    4.366153   4.181205   5.767731   2.977161   3.351917
    16  H    4.531864   3.871301   5.921401   2.457370   2.356700
                    6          7          8          9         10
     6  O    0.000000
     7  O    4.590843   0.000000
     8  O    2.254558   4.843821   0.000000
     9  C    2.727274   6.211952   1.432700   0.000000
    10  H    3.721136   6.847462   2.032325   1.093276   0.000000
    11  H    2.443720   6.536502   2.081954   1.095705   1.802920
    12  H    3.075075   6.508442   2.069754   1.096874   1.797736
    13  C    5.987982   1.433355   6.220215   7.610709   8.195675
    14  H    6.370162   2.042701   6.843648   8.181364   8.857114
    15  H    6.248884   2.057402   6.581515   7.969413   8.522739
    16  H    6.609922   2.083480   6.493533   7.908700   8.390443
                   11         12         13         14         15
    11  H    0.000000
    12  H    1.795302   0.000000
    13  C    7.942950   7.919099   0.000000
    14  H    8.480788   8.385138   1.094385   0.000000
    15  H    8.201317   8.400548   1.096082   1.796194   0.000000
    16  H    8.365904   8.199279   1.094896   1.802677   1.797768
                   16
    16  H    0.000000
 Stoichiometry    C4H6N2O4
 Framework group  C1[X(C4H6N2O4)]
 Deg. of freedom    42
 Full point group                 C1      NOp   1
 Largest Abelian subgroup         C1      NOp   1
 Largest concise Abelian subgroup C1      NOp   1
                         Standard orientation:                         
 ---------------------------------------------------------------------
 Center     Atomic      Atomic             Coordinates (Angstroms)
 Number     Number       Type             X           Y           Z
 ---------------------------------------------------------------------
      1          7           0       -0.298523   -0.340690   -0.413734
      2          7           0        0.300825    0.343572    0.412048
      3          6           0       -1.699296   -0.509238   -0.100535
      4          6           0        1.700372    0.518008    0.094912
      5          8           0        2.145861    1.611131   -0.088376
      6          8           0       -2.152690   -1.598959    0.084404
      7          8           0        2.334522   -0.629965    0.127082
      8          8           0       -2.333412    0.638468   -0.126050
      9          6           0       -3.752160    0.610011    0.071365
     10          1           0       -4.150083    1.499045   -0.425153
     11          1           0       -4.175366   -0.302623   -0.362876
     12          1           0       -3.965597    0.646273    1.146661
     13          6           0        3.755066   -0.633406   -0.064090
     14          1           0        4.180239   -1.291806    0.699726
     15          1           0        3.963405   -1.030799   -1.064125
     16          1           0        4.153153    0.382098    0.031178
 ---------------------------------------------------------------------
 Rotational constants (GHZ):      3.9281629      0.5994173      0.5300209
 Standard basis: def2SVP (5D, 7F)
 There are   180 symmetry adapted cartesian basis functions of A   symmetry.
 There are   170 symmetry adapted basis functions of A   symmetry.
   170 basis functions,   292 primitive gaussians,   180 cartesian basis functions
    38 alpha electrons       38 beta electrons
       nuclear repulsion energy       523.7505187742 Hartrees.
 NAtoms=   16 NActive=   16 NUniq=   16 SFac= 1.00D+00 NAtFMM=   60 NAOKFM=F Big=F
 Integral buffers will be    131072 words long.
 Raffenetti 2 integral format.
 Two-electron integral symmetry is turned on.
 Nuclear repulsion after empirical dispersion term =      523.7501257836 Hartrees.
 ------------------------------------------------------------------------------
 Polarizable Continuum Model (PCM)
 =================================
 Model                : C-PCM.
 Atomic radii         : UFF (Universal Force Field).
 Polarization charges : Total charges.
 Charge compensation  : None.
 Solution method      : On-the-fly selection.
 Cavity type          : Scaled VdW (van der Waals Surface) (Alpha=1.100).
 Cavity algorithm     : GePol (No added spheres)
                        Default sphere list used, NSphG=   16.
                        Lebedev-Laikov grids with approx.  5.0 points / Ang**2.
                        Smoothing algorithm: Karplus/York (Gamma=1.0000).
                        Polarization charges: spherical gaussians, with
                                              point-specific exponents (IZeta= 3).
                        Self-potential: point-specific (ISelfS= 7).
                        Self-field    : sphere-specific E.n sum rule (ISelfD= 2).
 1st derivatives      : Analytical E(r).r(x)/FMM algorithm (CHGder, D1EAlg=3).
                        Cavity 1st derivative terms included.
 Solvent              : Water, Eps=  78.355300 Eps(inf)=   1.777849
 ------------------------------------------------------------------------------
 Spheres list:
 ISph  on   Nord     Re0    Alpha      Xe            Ye            Ze
    1   N      1    1.8300  1.100     -0.298523     -0.340690     -0.413734
    2   N      2    1.8300  1.100      0.300825      0.343572      0.412048
    3   C      3    1.9255  1.100     -1.699296     -0.509238     -0.100535
    4   C      4    1.9255  1.100      1.700372      0.518008      0.094912
    5   O      5    1.7500  1.100      2.145861      1.611131     -0.088376
    6   O      6    1.7500  1.100     -2.152690     -1.598959      0.084404
    7   O      7    1.7500  1.100      2.334522     -0.629965      0.127082
    8   O      8    1.7500  1.100     -2.333412      0.638468     -0.126050
    9   C      9    1.9255  1.100     -3.752160      0.610011      0.071365
   10   H     10    1.4430  1.100     -4.150083      1.499045     -0.425153
   11   H     11    1.4430  1.100     -4.175366     -0.302623     -0.362876
   12   H     12    1.4430  1.100     -3.965597      0.646273      1.146661
   13   C     13    1.9255  1.100      3.755066     -0.633406     -0.064090
   14   H     14    1.4430  1.100      4.180239     -1.291806      0.699726
   15   H     15    1.4430  1.100      3.963405     -1.030799     -1.064125
   16   H     16    1.4430  1.100      4.153153      0.382098      0.031178
 ------------------------------------------------------------------------------
 One-electron integrals computed using PRISM.
   1 Symmetry operations used in ECPInt.
 ECPInt:  NShTT=    3081 NPrTT=   11473 LenC2=    2861 LenP2D=    7862.
 LDataN:  DoStor=T MaxTD1= 4 Len=   56
 NBasis=   170 RedAO= T EigKep=  4.40D-03  NBF=   170
 NBsUse=   170 1.00D-06 EigRej= -1.00D+00 NBFU=   170
 Initial guess from the checkpoint file:  "m062x_dmad_cycloaddition_PM6_toluene_water_1.chk"
 B after Tr=     0.000000    0.000000    0.000000
         Rot=    0.999999   -0.000960   -0.000016    0.000800 Ang=  -0.14 deg.
 ExpMin= 1.22D-01 ExpMax= 2.27D+03 ExpMxC= 3.41D+02 IAcc=1 IRadAn=         1 AccDes= 0.00D+00
 Harris functional with IExCor= 1009 and IRadAn=       1 diagonalized for initial guess.
 HarFok:  IExCor= 1009 AccDes= 0.00D+00 IRadAn=         1 IDoV= 1 UseB2=F ITyADJ=14
 ICtDFT=  3500011 ScaDFX=  1.000000  1.000000  1.000000  1.000000
 FoFCou: FMM=F IPFlag=           0 FMFlag=      100000 FMFlg1=           0
         NFxFlg=           0 DoJE=T BraDBF=F KetDBF=T FulRan=T
         wScrn=  0.000000 ICntrl=     500 IOpCl=  0 I1Cent=   200000004 NGrid=           0
         NMat0=    1 NMatS0=      1 NMatT0=    0 NMatD0=    1 NMtDS0=    0 NMtDT0=    0
 Petite list used in FoFCou.
 Requested convergence on RMS density matrix=1.00D-08 within 128 cycles.
 Requested convergence on MAX density matrix=1.00D-06.
 Requested convergence on             energy=1.00D-06.
 No special actions if energy rises.
 Inv3:  Mode=1 IEnd=     7226112.
 Iteration    1 A*A^-1 deviation from unit magnitude is 6.33D-15 for   1525.
 Iteration    1 A*A^-1 deviation from orthogonality  is 3.31D-15 for   1539    418.
 Iteration    1 A^-1*A deviation from unit magnitude is 6.33D-15 for   1525.
 Iteration    1 A^-1*A deviation from orthogonality  is 1.40D-15 for   1315   1141.
 Error on total polarization charges =  0.00544
 SCF Done:  E(RM062X) =  -565.735175925     A.U. after   12 cycles
            NFock= 12  Conv=0.50D-08     -V/T= 2.0078
   1 Symmetry operations used in ECPInt.
 ECPInt:  NShTT=    3081 NPrTT=   11473 LenC2=    2861 LenP2D=    7862.
 LDataN:  DoStor=T MaxTD1= 5 Len=  102
 D1PCM: C-PCM CHGder 1st derivatives, ID1Alg=3 FixD1E=F DoIter=F DoCFld=F I1PDM=0.
 Calling FoFJK, ICntrl=      2127 FMM=F ISym2X=0 I1Cent= 0 IOpClX= 0 NMat=1 NMatS=1 NMatT=0.
 ***** Axes restored to original set *****
 -------------------------------------------------------------------
 Center     Atomic                   Forces (Hartrees/Bohr)
 Number     Number              X              Y              Z
 -------------------------------------------------------------------
      1        7           0.000032178   -0.000670943    0.000134656
      2        7           0.000417622    0.000148010   -0.000835870
      3        6           0.000023088   -0.000091259    0.000403385
      4        6          -0.000939130    0.000626078    0.001555346
      5        8          -0.000082204    0.000088021   -0.000811185
      6        8           0.000363865    0.000050504    0.000238912
      7        8           0.000413349   -0.000317962    0.000539483
      8        8          -0.000263762    0.000166460   -0.001100390
      9        6          -0.000368417    0.000170389    0.000404962
     10        1          -0.000130719   -0.000131035    0.000270180
     11        1           0.000018372    0.000020226   -0.000243471
     12        1           0.000183105    0.000268334    0.000009452
     13        6           0.000439163   -0.000317037   -0.000593923
     14        1           0.000216814    0.000195938   -0.000183694
     15        1          -0.000305566   -0.000103775   -0.000045221
     16        1          -0.000017757   -0.000101947    0.000257380
 -------------------------------------------------------------------
 Cartesian Forces:  Max     0.001555346 RMS     0.000445222

 GradGradGradGradGradGradGradGradGradGradGradGradGradGradGradGradGradGrad
 Berny optimization.
 Using GEDIIS/GDIIS optimizer.
 FormGI is forming the generalized inverse of G from B-inverse, IUseBI=4.
 Internal  Forces:  Max     0.001059155 RMS     0.000414581
 Search for a local minimum.
 Step number   3 out of a maximum of   62
 All quantities printed in internal units (Hartrees-Bohrs-Radians)
 Mixed Optimization -- En-DIIS/RFO-DIIS
 Update second derivatives using D2CorX and points    1    2    3
 DE= -2.64D-04 DEPred=-2.37D-04 R= 1.11D+00
 TightC=F SS=  1.41D+00  RLast= 4.84D-02 DXNew= 8.4853D-01 1.4529D-01
 Trust test= 1.11D+00 RLast= 4.84D-02 DXMaxT set to 5.05D-01
 ITU=  1  1  0
 Use linear search instead of GDIIS.
     Eigenvalues ---    0.00932   0.01096   0.01108   0.01266   0.02084
     Eigenvalues ---    0.02560   0.02867   0.02886   0.03776   0.10330
     Eigenvalues ---    0.10338   0.10646   0.10656   0.15974   0.15983
     Eigenvalues ---    0.16000   0.16000   0.16000   0.16247   0.24774
     Eigenvalues ---    0.24972   0.24986   0.24994   0.25000   0.25000
     Eigenvalues ---    0.25000   0.30400   0.34025   0.34031   0.34032
     Eigenvalues ---    0.34269   0.34516   0.34537   0.38887   0.39108
     Eigenvalues ---    0.40659   0.42390   0.64118   0.65493   0.91919
     Eigenvalues ---    1.07502   1.08036
 RFO step:  Lambda=-2.95900754D-04 EMin= 9.32383838D-03
 Quartic linear search produced a step of  0.10381.
 Iteration  1 RMS(Cart)=  0.03303905 RMS(Int)=  0.00065685
 Iteration  2 RMS(Cart)=  0.00097952 RMS(Int)=  0.00017051
 Iteration  3 RMS(Cart)=  0.00000054 RMS(Int)=  0.00017051
 Variable       Old X    -DE/DX   Delta X   Delta X   Delta X     New X
                                 (Linear)    (Quad)   (Total)
    R1        2.32163  -0.00031   0.00004  -0.00016  -0.00012   2.32151
    R2        2.73107  -0.00011   0.00015   0.00048   0.00063   2.73170
    R3        2.73177   0.00011   0.00026   0.00183   0.00209   2.73386
    R4        2.25762   0.00023  -0.00004   0.00000  -0.00004   2.25758
    R5        2.47834  -0.00068  -0.00035  -0.00290  -0.00325   2.47509
    R6        2.25739   0.00010  -0.00010  -0.00044  -0.00054   2.25685
    R7        2.47909  -0.00093  -0.00066  -0.00487  -0.00553   2.47356
    R8        2.70865  -0.00025  -0.00060  -0.00349  -0.00409   2.70456
    R9        2.70741  -0.00022  -0.00031  -0.00209  -0.00240   2.70501
   R10        2.06599  -0.00008  -0.00005  -0.00032  -0.00037   2.06562
   R11        2.07058   0.00011   0.00012   0.00065   0.00077   2.07135
   R12        2.07279   0.00004   0.00003   0.00027   0.00030   2.07309
   R13        2.06809  -0.00011  -0.00008  -0.00029  -0.00037   2.06772
   R14        2.07129   0.00007   0.00003   0.00018   0.00022   2.07151
   R15        2.06905   0.00012   0.00026   0.00119   0.00146   2.07051
    A1        1.97375   0.00000   0.00024   0.00138   0.00161   1.97536
    A2        1.97366   0.00000   0.00034   0.00189   0.00224   1.97590
    A3        2.10338   0.00047   0.00034   0.00356   0.00388   2.10726
    A4        1.94160  -0.00016   0.00029   0.00037   0.00064   1.94224
    A5        2.23668  -0.00030  -0.00066  -0.00329  -0.00397   2.23271
    A6        2.10034   0.00023   0.00067   0.00490   0.00487   2.10521
    A7        1.93587   0.00010   0.00040   0.00254   0.00224   1.93812
    A8        2.24496  -0.00024  -0.00118  -0.00322  -0.00510   2.23986
    A9        2.06906  -0.00106  -0.00196  -0.00870  -0.01066   2.05840
   A10        2.04737  -0.00102  -0.00108  -0.00705  -0.00813   2.03925
   A11        1.85636  -0.00014  -0.00037  -0.00208  -0.00245   1.85391
   A12        1.92241  -0.00011  -0.00037  -0.00209  -0.00247   1.91995
   A13        1.90405   0.00031   0.00044   0.00283   0.00328   1.90732
   A14        1.93558   0.00009   0.00014   0.00166   0.00180   1.93738
   A15        1.92572  -0.00007   0.00005  -0.00100  -0.00095   1.92477
   A16        1.91866  -0.00008   0.00010   0.00062   0.00072   1.91938
   A17        1.86857  -0.00036  -0.00067  -0.00381  -0.00448   1.86408
   A18        1.88697   0.00054   0.00064   0.00332   0.00396   1.89093
   A19        1.92464  -0.00010  -0.00074  -0.00341  -0.00415   1.92049
   A20        1.92284  -0.00015   0.00018  -0.00152  -0.00134   1.92150
   A21        1.93479   0.00009   0.00019   0.00140   0.00158   1.93637
   A22        1.92468  -0.00003   0.00037   0.00382   0.00419   1.92887
    D1       -3.13619  -0.00067   0.00076  -0.01712  -0.01637   3.13063
    D2       -2.08533   0.00016   0.00066   0.01382   0.01450  -2.07083
    D3        1.11091  -0.00010   0.00126   0.00241   0.00365   1.11456
    D4        2.08490  -0.00072   0.00059  -0.03725  -0.03678   2.04812
    D5       -1.11915   0.00068  -0.00142   0.02787   0.02656  -1.09259
    D6        3.06501   0.00016   0.00037   0.00848   0.00883   3.07384
    D7       -0.01671  -0.00015   0.00098  -0.00431  -0.00331  -0.02003
    D8       -3.06078  -0.00081   0.00051  -0.03863  -0.03801  -3.09879
    D9        0.01181   0.00075  -0.00164   0.03372   0.03197   0.04377
   D10        2.35175   0.00038   0.00031   0.04450   0.04482   2.39658
   D11       -1.86009   0.00030   0.00051   0.04240   0.04291  -1.81719
   D12        0.24536   0.00055   0.00092   0.04709   0.04800   0.29336
   D13       -2.69030  -0.00050  -0.00102  -0.05856  -0.05958  -2.74988
   D14       -0.59158  -0.00053  -0.00128  -0.05897  -0.06024  -0.65182
   D15        1.51585  -0.00050  -0.00111  -0.05771  -0.05882   1.45703
         Item               Value     Threshold  Converged?
 Maximum Force            0.001059     0.000450     NO 
 RMS     Force            0.000415     0.000300     NO 
 Maximum Displacement     0.088029     0.001800     NO 
 RMS     Displacement     0.033164     0.001200     NO 
 Predicted change in Energy=-1.557567D-04
 GradGradGradGradGradGradGradGradGradGradGradGradGradGradGradGradGradGrad

                          Input orientation:                          
 ---------------------------------------------------------------------
 Center     Atomic      Atomic             Coordinates (Angstroms)
 Number     Number       Type             X           Y           Z
 ---------------------------------------------------------------------
      1          7           0        0.291848    0.338873   -0.388407
      2          7           0       -0.301878   -0.387021    0.405167
      3          6           0        1.692395    0.503635   -0.070689
      4          6           0       -1.706780   -0.540777    0.096070
      5          8           0       -2.155565   -1.613127   -0.177705
      6          8           0        2.139089    1.583277    0.178407
      7          8           0       -2.331756    0.607238    0.165533
      8          8           0        2.335900   -0.634069   -0.154412
      9          6           0        3.751574   -0.592660    0.053284
     10          1           0        4.158010   -1.481996   -0.435299
     11          1           0        4.168294    0.321484   -0.385057
     12          1           0        3.960750   -0.621111    1.129813
     13          6           0       -3.744787    0.616257   -0.061551
     14          1           0       -4.182216    1.277046    0.692945
     15          1           0       -3.930324    1.015901   -1.065297
     16          1           0       -4.145795   -0.399491    0.027522
 ---------------------------------------------------------------------
                    Distance matrix (angstroms):
                    1          2          3          4          5
     1  N    0.000000
     2  N    1.228492   0.000000
     3  C    1.445553   2.235360   0.000000
     4  C    2.236742   1.446697   3.559915   0.000000
     5  O    3.137599   2.297658   4.393055   1.194276   0.000000
     6  O    2.298286   3.145126   1.194659   4.394211   5.365433
     7  O    2.694840   2.272967   4.032409   1.308953   2.253636
     8  O    2.275856   2.707772   1.309763   4.051506   4.596994
     9  C    3.610062   4.073890   2.336118   5.458768   5.999083
    10  H    4.273755   4.668614   3.186680   5.963557   6.320189
    11  H    3.876487   4.594439   2.502415   5.957472   6.616412
    12  H    4.085022   4.330116   2.802087   5.761595   6.332694
    13  C    4.059334   3.616354   5.438355   2.348839   2.740305
    14  H    4.697525   4.231898   5.974308   3.128662   3.635718
    15  H    4.329351   4.158856   5.732943   2.952316   3.293839
    16  H    4.517837   3.862444   5.908447   2.444065   2.340095
                    6          7          8          9         10
     6  O    0.000000
     7  O    4.576163   0.000000
     8  O    2.250805   4.840476   0.000000
     9  C    2.711173   6.201552   1.431428   0.000000
    10  H    3.721367   6.844192   2.029277   1.093079   0.000000
    11  H    2.455053   6.529583   2.079410   1.096110   1.804209
    12  H    3.013793   6.483387   2.071120   1.097032   1.797111
    13  C    5.967638   1.431190   6.208597   7.594082   8.185142
    14  H    6.349601   2.037403   6.845160   8.176185   8.856897
    15  H    6.221454   2.058488   6.543521   7.927815   8.488672
    16  H    6.591957   2.079252   6.488489   7.899773   8.386847
                   11         12         13         14         15
    11  H    0.000000
    12  H    1.796215   0.000000
    13  C    7.925175   7.894664   0.000000
    14  H    8.473855   8.372679   1.094190   0.000000
    15  H    8.156749   8.352686   1.096196   1.795289   0.000000
    16  H    8.355483   8.184145   1.095667   1.804132   1.801115
                   16
    16  H    0.000000
 Stoichiometry    C4H6N2O4
 Framework group  C1[X(C4H6N2O4)]
 Deg. of freedom    42
 Full point group                 C1      NOp   1
 Largest Abelian subgroup         C1      NOp   1
 Largest concise Abelian subgroup C1      NOp   1
                         Standard orientation:                         
 ---------------------------------------------------------------------
[...]
 ! A10   A(3,8,9)              116.0073         -DE/DX =    0.0                 !
 ! A11   A(8,9,10)             106.0041         -DE/DX =    0.0                 !
 ! A12   A(8,9,11)             109.8886         -DE/DX =    0.0                 !
 ! A13   A(8,9,12)             109.806          -DE/DX =    0.0                 !
 ! A14   A(10,9,11)            110.721          -DE/DX =    0.0                 !
 ! A15   A(10,9,12)            110.6832         -DE/DX =    0.0                 !
 ! A16   A(11,9,12)            109.6786         -DE/DX =    0.0                 !
 ! A17   A(7,13,14)            105.978          -DE/DX =    0.0                 !
 ! A18   A(7,13,15)            109.8159         -DE/DX =    0.0                 !
 ! A19   A(7,13,16)            109.8676         -DE/DX =    0.0                 !
 ! A20   A(14,13,15)           110.5938         -DE/DX =    0.0                 !
 ! A21   A(14,13,16)           110.7824         -DE/DX =    0.0                 !
 ! A22   A(15,13,16)           109.7402         -DE/DX =    0.0                 !
 ! D1    D(3,1,2,4)            179.8767         -DE/DX =    0.0                 !
 ! D2    D(2,1,3,6)           -122.0005         -DE/DX =    0.0                 !
 ! D3    D(2,1,3,8)             60.7449         -DE/DX =    0.0                 !
 ! D4    D(1,2,4,5)            117.2167         -DE/DX =    0.0                 !
 ! D5    D(1,2,4,7)            -65.8823         -DE/DX =    0.0                 !
 ! D6    D(1,3,8,9)            176.8731         -DE/DX =    0.0                 !
 ! D7    D(6,3,8,9)             -0.1435         -DE/DX =    0.0                 !
 ! D8    D(2,4,7,13)          -175.9864         -DE/DX =    0.0                 !
 ! D9    D(5,4,7,13)             0.6503         -DE/DX =    0.0                 !
 ! D10   D(4,7,13,14)          174.1896         -DE/DX =    0.0                 !
 ! D11   D(4,7,13,15)          -66.3332         -DE/DX =    0.0                 !
 ! D12   D(4,7,13,16)           54.4603         -DE/DX =    0.0                 !
 ! D13   D(3,8,9,10)          -178.1863         -DE/DX =    0.0                 !
 ! D14   D(3,8,9,11)           -58.5037         -DE/DX =    0.0                 !
 ! D15   D(3,8,9,12)            62.2204         -DE/DX =    0.0                 !
 --------------------------------------------------------------------------------
 GradGradGradGradGradGradGradGradGradGradGradGradGradGradGradGradGradGrad

 1\1\GINC-D10S0B3\Freq\RM062X\def2SVP\C4H6N2O4\CHMKSH\16-Sep-2020\0\\#N
  Geom=AllCheck Guess=TCheck SCRF=Check GenChk RM062X/def2SVP Freq\\Tit
 le Card Required\\0,1\N,0.3096778431,0.4507301881,-0.3371602713\N,-0.2
 998119367,-0.4307570651,0.263385865\C,1.7058683204,0.5249829704,0.0312
 954518\C,-1.695039613,-0.5025422091,-0.1030365206\O,-2.1431543515,-1.4
 812566197,-0.6212187661\O,2.1664883957,1.5363063785,0.4702761336\O,-2.
 3410666696,0.5766127698,0.266817325\O,2.3373135631,-0.5926392197,-0.23
 53299245\C,3.7447775515,-0.5972173429,0.0292611934\H,4.1058879655,-1.5
 815370099,-0.2781689473\H,4.2359144037,0.1946164276,-0.5496759453\H,3.
 9222351546,-0.4363998819,1.0996036908\C,-3.7542195132,0.5761331688,0.0
 330484102\H,-4.1352870988,1.4915415998,0.491941649\H,-3.9526731024,0.5
 738204784,-1.0458143559\H,-4.2081518323,-0.3089348531,0.4950995023\\Ve
 rsion=ES64L-G09RevD.01\State=1-A\HF=-565.7366004\RMSD=2.382e-09\RMSF=1
 .576e-05\ZeroPoint=0.1163467\Thermal=0.1270887\Dipole=-0.0139173,-0.03
 5643,0.0906737\DipoleDeriv=-0.5906282,-0.0772565,-0.1057401,-0.052248,
 -0.2007711,-0.0474215,-0.0858481,-0.0507876,-0.1346948,-0.6152808,-0.0
 824883,-0.1082577,-0.0367749,-0.1921779,-0.0523049,-0.0962885,-0.06250
 99,-0.1438365,2.3413236,0.1136137,0.149666,-0.4973794,2.2408879,0.5208
 084,0.0549088,0.5970066,0.7409274,2.3751588,0.1008668,0.1223254,-0.497
 3676,2.1397939,0.6481122,-0.0080894,0.7222034,0.842058,-1.043549,-0.35
 90962,-0.1353604,-0.0748868,-1.2174361,-0.3199383,-0.0889802,-0.388206
 5,-0.6139743,-1.0374767,-0.3765547,-0.1204929,-0.0772287,-1.2626659,-0
 .2626351,-0.08919,-0.3327455,-0.5628331,-1.7198793,0.4226806,0.0699412
 ,0.6888388,-1.1206556,-0.2696621,0.1270945,-0.2706539,-0.4608957,-1.69
 15933,0.4360947,0.0075371,0.7025695,-1.1761094,-0.2010201,0.0404725,-0
 .203854,-0.4209466,1.0298392,-0.1892266,0.0424646,-0.0728835,0.3031097
 ,-0.0165113,0.119171,-0.0344439,0.3054443,0.0145391,0.0076852,-0.01135
 97,0.0705187,-0.0206286,-0.0399659,0.0036537,-0.0522316,0.0989477,-0.0
 301836,0.0457779,-0.0058856,-0.0646888,0.0135103,0.0848839,0.0142786,0
 .0743254,0.0360384,-0.0294701,0.0461321,0.0436194,-0.0127432,0.1001947
 ,-0.038179,-0.0534757,0.0041556,-0.0615504,1.0426317,-0.184507,0.01643
 02,-0.0668377,0.2983762,-0.0162184,0.0966291,-0.0237124,0.3011352,0.01
 09227,0.0102237,-0.0096711,0.0691741,-0.0008878,-0.0577963,0.0173156,-
 0.0685778,0.0798891,-0.0318243,0.0390469,0.0471434,-0.0079489,0.102999
 1,-0.0127143,-0.0548568,0.0223289,-0.062856,-0.0245299,0.0470077,-0.00
 23597,-0.0701136,-0.0075395,0.0805626,0.0032047,0.0677033,0.0571472\Po
 lar=99.962337,5.3951743,75.0267444,0.3625559,4.9161138,53.7175558\PG=C
 01 [X(C4H6N2O4)]\NImag=0\\0.54194790,0.27450233,0.50643387,-0.10372700
 ,-0.28602312,0.27832077,-0.24492857,-0.26250438,0.14717130,0.54661388,
 -0.26410290,-0.38953923,0.30855898,0.27546863,0.50219971,0.14611619,0.
 31002004,-0.20625037,-0.10666254,-0.28168353,0.27960168,-0.17193307,-0
 .00632169,-0.02554695,-0.04200474,-0.00607892,0.01010813,0.66750997,0.
 04001591,-0.07367103,0.01773536,-0.04229963,-0.02753565,-0.01865373,0.
 12142710,0.97342573,-0.05090616,0.01788837,-0.09475011,0.04273762,-0.0
 1884585,-0.00405959,0.11041381,0.25105954,0.35131124,-0.04170945,-0.00
 564010,0.00830700,-0.17517507,-0.00707607,-0.02506429,-0.01872759,-0.0
 0769760,-0.00996688,0.66915804,-0.04289437,-0.02708963,-0.01774516,0.0
 3887157,-0.07354906,0.01781615,-0.00773792,0.00924737,0.01641769,0.111
 45150,0.92839761,0.04246103,-0.01876373,-0.00369608,-0.04970645,0.0173
 3150,-0.09343527,-0.01015765,0.01652632,0.01220582,0.11211836,0.303098
 15,0.39963018,-0.00497701,-0.00913921,-0.00609734,-0.02593039,-0.04013
 329,-0.02882961,0.00719511,0.00504007,0.00886837,-0.21645157,-0.225636
 29,-0.13067658,0.21548565,0.00315720,-0.00189348,-0.00208096,-0.030878
 14,-0.00483676,-0.02059297,0.00287035,0.00211707,0.00339615,-0.2239199
 3,-0.57255719,-0.25722053,0.25147046,0.66816652,-0.00809498,-0.0008125
 9,-0.00118565,-0.02098743,-0.02334903,0.00676098,0.00321565,-0.0001193
 9,0.00197446,-0.12198326,-0.25444865,-0.22144049,0.14903223,0.33085834
 ,0.20999698,-0.02653657,-0.04261522,-0.02589444,-0.00602038,-0.0090392
 0,-0.00648553,-0.22160176,-0.23818079,-0.11406377,0.00742393,0.0048844
 9,0.00880764,-0.00228178,-0.00131329,-0.00161742,0.22267647,-0.0316150
 9,-0.00739243,-0.01829635,0.00188748,-0.00180102,-0.00267714,-0.236396
 41,-0.60330294,-0.22304333,0.00308209,0.00209397,0.00348637,-0.0013333
 8,-0.00075065,-0.00091902,0.26710658,0.71027781,-0.01936338,-0.0226635
 1,0.00974283,-0.00855161,-0.00021225,-0.00086937,-0.10541581,-0.219868
 18,-0.18289380,0.00317627,-0.00052019,0.00146719,-0.00159984,-0.000860
 60,-0.00083906,0.13202153,0.28619504,0.16024134,-0.00660196,0.01002114
 ,0.00429115,-0.05037712,0.03866687,0.00597669,0.01304253,-0.00339513,-
 0.00129492,-0.18626606,0.10719132,0.02839401,0.02694618,0.01396352,0.0
 0671496,-0.00636316,-0.00300225,-0.00165031,0.51214050,0.00020147,-0.0
 0018087,-0.00014145,0.01871870,-0.00263480,-0.00016157,-0.00409032,0.0
 0032771,-0.00159301,0.08833846,-0.26212374,-0.06729473,0.01585549,-0.0
 9265140,-0.05467624,0.00185617,0.00085908,0.00072800,-0.13556007,0.428
 24740,-0.00269757,0.00211566,0.00029274,-0.00212148,-0.00034717,0.0119
 4135,-0.00011755,-0.00143158,-0.00121297,0.02123755,-0.06320275,-0.095
 75298,0.00716473,-0.05360444,0.00851815,-0.00032408,-0.00009275,0.0000
 1585,0.01102382,0.12794874,0.14055877,-0.04981866,0.03939133,0.0013336
 9,-0.00693507,0.01025513,0.00436272,-0.18339816,0.10723091,0.01765779,
 0.01289109,-0.00295050,-0.00116285,-0.00613634,-0.00283887,-0.00188845
 ,0.02713444,0.01313185,0.00454622,-0.00424177,0.00181134,0.00048248,0.
 50725625,0.01908250,-0.00352100,0.00106040,-0.00038924,0.00009875,0.00
 002143,0.08897478,-0.27454512,-0.05170094,-0.00416723,0.00029420,-0.00
 169849,0.00184020,0.00079457,0.00078854,0.01478421,-0.10206431,-0.0453
 3646,0.00190800,-0.00075900,0.00000349,-0.13598858,0.45150239,-0.00430
 293,0.00156153,0.01152227,-0.00241558,0.00216406,0.00065648,0.01108941
 ,-0.04669755,-0.08476427,0.00033465,-0.00154718,-0.00121003,-0.0005744
 8,-0.00020606,-0.00009787,0.00487643,-0.04413839,0.01703883,0.00032609
 ,0.00006642,0.00010208,0.03146993,0.10019702,0.12207290,0.00477720,0.0
 0059609,0.00018187,0.00295445,-0.00068132,-0.00061120,-0.04909750,0.04
 235091,0.00537472,-0.00392322,-0.00006635,-0.00034201,0.00164725,0.000
 83933,0.00055030,0.00079165,-0.02026644,-0.00643808,0.00168612,-0.0006
 6467,-0.00012928,-0.21057531,-0.00380822,-0.02784892,0.46858110,0.0005
 7625,-0.00230694,-0.00220677,0.00090467,-0.00058325,-0.00117455,0.0455
 3915,-0.01099775,0.00474846,-0.00020559,0.00088992,0.00055761,0.000338
 11,0.00011987,0.00005967,0.00274455,0.00203279,0.00268508,-0.00022537,
 -0.00000768,-0.00002942,-0.02758265,-0.08082906,-0.00909126,-0.0111796
 5,0.64666192,0.00261751,-0.00446648,0.00673333,-0.00201196,0.00065704,
 -0.00013908,0.00627285,0.00567597,0.00163288,-0.00040494,-0.00069227,-
 0.00047292,-0.00004195,0.00005748,0.00005729,0.00259701,-0.00163840,-0
 .00452771,0.00036257,-0.00003212,0.00001212,-0.03725128,-0.00491588,-0
 .07596752,-0.02959735,0.01091465,0.60967189,-0.00078976,0.00125560,-0.
 00009163,-0.00029195,0.00017852,0.00037261,-0.00497788,-0.00491800,-0.
 00236170,0.00075573,-0.00015378,-0.00006669,-0.00035800,-0.00017734,-0
 .00011131,0.00194751,0.00124265,0.00072532,-0.00024594,0.00011021,0.00
 003068,-0.02667698,0.03702773,0.00862700,-0.07027153,0.07220422,0.0238
 0341,0.09149399,0.00002105,0.00003912,-0.00005275,0.00011988,0.0000388
 0,0.00000208,-0.00218630,0.00153754,0.00007528,-0.00019598,-0.00001732
 ,-0.00003817,0.00007830,0.00004059,0.00002749,0.00100297,-0.00009634,-
 0.00001068,0.00008780,-0.00003439,-0.00000462,-0.00122279,0.00392836,0
 .00130510,0.08610813,-0.29523041,-0.07668630,-0.09052662,0.30412841,0.
 00011982,0.00022010,0.00026675,-0.00012190,0.00003073,0.00007079,-0.00
 210683,-0.00018155,-0.00026088,0.00013086,-0.00007406,-0.00004647,-0.0
 0007484,-0.00003226,-0.00001824,0.00062317,0.00005764,0.00052636,-0.00
 002476,0.00001779,0.00000729,-0.00544711,0.00836136,0.00217228,0.02903
 363,-0.07948095,-0.07673971,-0.02527613,0.08179196,0.07168573,-0.00098
 211,0.00077291,-0.00103034,0.00023087,0.00008269,-0.00002933,0.0027004
 0,-0.01092627,-0.00138491,0.00059990,0.00014731,0.00007978,-0.00020948
 ,-0.00012494,-0.00008088,0.00112782,0.00311660,0.00109834,-0.00028517,
 0.00009202,0.00002220,-0.03560243,-0.01934215,0.01681098,-0.09467101,-
 0.07937554,0.05983120,0.00656864,0.00696061,-0.00661412,0.11643830,-0.
 00005231,-0.00046581,0.00061791,-0.00031402,0.00015044,0.00010304,0.00
 257163,0.00099510,-0.00102761,0.00005483,-0.00005894,-0.00002552,-0.00
 004310,-0.00002320,-0.00001655,-0.00012083,0.00001498,0.00016378,-0.00
 001469,0.00001226,0.00000059,-0.00056096,0.00494120,-0.00471273,-0.088
 05103,-0.20210015,0.11364767,-0.01158390,-0.01420333,0.01550288,0.0948
 8313,0.20598730,-0.00016636,0.00014462,-0.00048250,0.00000898,-0.00011
 578,-0.00004943,0.00091920,0.00049285,0.00114278,0.00016528,0.00007735
 ,0.00009023,-0.00005015,-0.00003310,-0.00002644,-0.00123383,-0.0000023
 7,-0.00031258,-0.00009976,0.00002903,0.00000089,-0.00628943,-0.0081652
 6,0.00734131,0.06628309,0.11317668,-0.13494634,-0.00534078,-0.00764124
 ,0.00635266,-0.06675001,-0.11992106,0.13310725,-0.00043491,-0.00032431
 ,0.00133316,-0.00069798,0.00026814,0.00005546,0.00307547,-0.00838189,-
 0.00463711,0.00078400,-0.00017566,-0.00004937,-0.00038219,-0.00017350,
 -0.00011406,0.00101015,0.00268326,0.00123107,-0.00027233,0.00013018,0.
 00003376,-0.02477663,0.00042024,-0.03839448,-0.05166111,-0.00371727,-0
 .02614074,0.00279683,-0.00023433,0.00975058,0.00404641,0.00322929,0.01
 254216,0.06646405,-0.00004145,0.00008460,-0.00054088,0.00009232,-0.000
 04887,0.00001063,0.00178446,0.00148799,0.00200908,0.00004675,0.0000737
 7,0.00009742,0.00000359,-0.00000357,-0.00000766,-0.00151939,-0.0000240
 3,-0.00034303,-0.00005188,0.00000997,-0.00000580,-0.00049834,0.0001991
 0,0.00115145,-0.00516323,-0.05767351,-0.04251367,-0.00465245,-0.000129
 57,-0.02621109,0.00371531,0.00475063,0.02195488,0.00627918,0.05126892,
 0.00004952,0.00029563,-0.00027185,0.00001758,0.00010970,0.00001397,0.0
 0122797,-0.00397374,0.00000980,0.00019778,0.00001273,0.00000106,-0.000
 07289,-0.00003847,-0.00001837,0.00089891,0.00110100,0.00040172,-0.0000
 7732,0.00002976,0.00000790,-0.00793137,0.00132491,0.00110753,-0.036425
 91,-0.04016049,-0.32530702,-0.00031704,0.00123250,-0.00401750,-0.00196
 263,-0.00433428,-0.01221826,0.04438363,0.04440111,0.34028969,0.0027379
 1,-0.00049498,-0.00059699,0.00473434,0.00045358,0.00028394,-0.00390246
 ,-0.00005045,-0.00040079,-0.05034524,0.04116614,0.01031978,0.00078322,
 -0.01971583,-0.00815950,0.00164961,0.00084794,0.00048701,-0.21107687,-
 0.00410945,-0.02513526,0.00167715,-0.00068410,-0.00004909,-0.00051224,
 -0.00000211,-0.00009765,0.00009542,-0.00002715,0.00001322,0.00008528,0
 .00000378,0.00002769,0.00009504,0.00001282,0.00002463,0.46736068,0.001
 26587,-0.00065253,-0.00102074,0.00049062,-0.00154034,-0.00308041,-0.00
 027637,0.00091918,0.00058460,0.04372996,-0.00916494,0.00331283,0.00230
 746,0.00138810,0.00271097,0.00037813,0.00014294,0.00004291,-0.02681494
 ,-0.08062085,-0.00942138,-0.00019714,-0.00002958,-0.00004478,-0.000004
 52,0.00002058,-0.00000380,-0.00000779,-0.00000089,-0.00000265,-0.00000
 405,0.00000017,0.00000261,-0.00000448,0.00000436,-0.00000114,-0.011003
 43,0.64438349,-0.00202984,0.00045769,-0.00027859,0.00264773,-0.0048788
 9,0.00622258,-0.00033252,-0.00058548,-0.00039735,0.01138239,0.00290856
 ,0.00134693,0.00337489,-0.00059082,-0.00409352,-0.00003494,0.00005910,
 0.00005905,-0.03617754,-0.00545369,-0.07599423,0.00029965,-0.00001018,
 0.00002265,-0.00008950,0.00000205,-0.00001701,0.00001672,-0.00000374,0
 .00000236,0.00001951,0.00000228,0.00000350,0.00001682,-0.00000126,0.00
 000415,-0.02923564,0.01308803,0.61439386,-0.00026877,0.00017136,0.0003
 4053,-0.00082372,0.00128833,-0.00006104,0.00076181,-0.00014948,-0.0000
 5923,-0.00490969,-0.00516282,-0.00239068,0.00198246,0.00126454,0.00081
 356,-0.00036136,-0.00018332,-0.00009638,-0.02763624,0.03482654,0.01411
 773,-0.00025353,0.00011519,0.00002018,0.00009701,-0.00000901,0.0000204
 7,-0.00001518,0.00000508,-0.00000166,-0.00001615,-0.00000098,-0.000005
 71,-0.00001612,-0.00000290,-0.00000434,-0.07329204,0.07130390,0.037676
 93,0.09513380,0.00012804,0.00004671,0.00000695,-0.00002885,0.00005721,
 -0.00011759,-0.00018776,-0.00000838,-0.00003582,-0.00198018,0.00115942
 ,0.00005947,0.00112625,-0.00001443,-0.00006281,0.00007793,0.00003969,0
 .00002409,-0.00147046,0.00355630,0.00214172,0.00008176,-0.00003450,-0.
 00000043,-0.00002585,-0.00000057,-0.00000392,0.00000474,-0.00000138,0.
 00000067,0.00000407,0.00000021,0.00000133,0.00000490,0.00000059,0.0000
 0132,0.08441886,-0.26235507,-0.10608363,-0.08879466,0.26885832,-0.0000
 9456,0.00002169,0.00004965,0.00012699,0.00019940,0.00023522,0.00009382
 ,-0.00006577,-0.00004052,-0.00231510,0.00042568,0.00002891,0.00043693,
 -0.00001953,0.00043268,-0.00005628,-0.00002374,-0.00000993,-0.00521734
 ,0.00770259,0.00378313,-0.00001346,0.00001287,0.00000484,0.00000862,-0
 .00000230,0.00000201,-0.00000092,0.00000047,0.00000002,-0.00000132,0.0
 0000003,-0.00000061,-0.00000125,-0.00000047,-0.00000035,0.04499263,-0.
 10846223,-0.10602887,-0.04244061,0.11301917,0.10218538,-0.00073017,0.0
 0021751,0.00004626,-0.00041962,-0.00036581,0.00137966,0.00080333,-0.00
 018882,-0.00004233,0.00312834,-0.00799989,-0.00531019,0.00107200,0.002
 59221,0.00146568,-0.00039670,-0.00018232,-0.00010148,-0.02587798,0.005
 46932,-0.03776342,-0.00027955,0.00014015,0.00002117,0.00009742,-0.0000
 0474,0.00001974,-0.00001636,0.00000530,-0.00000206,-0.00001544,-0.0000
 0053,-0.00000580,-0.00001681,-0.00000329,-0.00000454,-0.05224947,0.000
 39176,-0.03159525,0.00337173,-0.00170339,0.01032583,0.06748193,0.00009
 000,-0.00004316,0.00001782,-0.00007290,0.00005055,-0.00043260,0.000026
 81,0.00006150,0.00008550,0.00152397,0.00146189,0.00184251,-0.00165231,
 0.00013135,-0.00037362,0.00000713,-0.00000071,-0.00000714,-0.00008016,
 0.00029159,0.00011449,-0.00003712,0.00000601,-0.00000689,0.00000967,0.
 00000357,-0.00000179,-0.00000219,0.00000041,-0.00000051,-0.00000096,-0
 .00000043,-0.00000008,-0.00000247,0.00000016,-0.00000038,0.00039649,-0
 .05104036,-0.00115490,-0.00513076,0.00332447,-0.02496625,0.00037935,0.
 04390387,0.00004680,0.00009317,0.00001215,0.00004601,0.00032454,-0.000
 33108,0.00018109,0.00002167,0.00001539,0.00145331,-0.00332603,-0.00001
 103,0.00051893,0.00100803,0.00044250,-0.00006285,-0.00003383,-0.000014
 64,-0.00732240,0.00084835,0.00264486,-0.00007442,0.00002814,0.00000274
 ,0.00002353,-0.00000080,0.00000417,-0.00000410,0.00000131,-0.00000058,
 -0.00000399,-0.00000003,-0.00000125,-0.00000428,-0.00000045,-0.0000011
 8,-0.04169201,0.00045357,-0.32940582,-0.00124013,0.00235765,-0.0080313
 4,0.04964888,0.00047693,0.34395509,0.00024802,0.00011163,-0.00002026,-
 0.00092891,0.00081562,-0.00091187,0.00055454,0.00012317,0.00006550,0.0
 0276685,-0.01093475,-0.00231815,0.00161488,0.00298424,0.00124490,-0.00
 019989,-0.00011921,-0.00006887,-0.03457072,-0.02298541,0.01417571,-0.0
 0026452,0.00008652,0.00000966,0.00007970,-0.00000502,0.00002110,-0.000
 01454,0.00000405,-0.00000186,-0.00001582,-0.00000033,-0.00000456,-0.00
 001386,-0.00000150,-0.00000397,-0.08784033,-0.08155498,0.04406061,0.00
 624598,0.00834460,-0.00584398,0.00404736,0.00454544,-0.00151438,0.1082
 9129,-0.00033449,0.00015183,0.00011076,-0.00006671,-0.00052648,0.00060
 072,0.00008140,-0.00005834,-0.00001812,0.00265513,0.00094267,-0.001271
 03,-0.00012237,-0.00002739,0.00034055,-0.00005344,-0.00002883,-0.00001
 687,-0.00122371,0.00570843,-0.00418479,-0.00002537,0.00001799,-0.00000
 030,0.00000715,0.00000067,0.00000183,-0.00000158,0.00000041,-0.0000000
 7,-0.00000072,-0.00000044,-0.00000045,-0.00000127,-0.00000054,-0.00000
 016,-0.09121211,-0.24145426,0.10224488,-0.00954102,-0.01462858,0.01215
 840,0.00125320,0.00184929,-0.00225222,0.09858592,0.24805355,-0.0000281
 0,-0.00008907,-0.00002536,-0.00017726,0.00005656,-0.00036886,0.0001553
 9,0.00006526,0.00008713,0.00123101,0.00079997,0.00129494,-0.00137841,-
 0.00004026,-0.00046341,-0.00005155,-0.00003383,-0.00002609,-0.00522493
 ,-0.00801787,0.00507504,-0.00009410,0.00002906,-0.00000421,0.00002649,
 0.00000234,0.00000361,-0.00000541,0.00000132,-0.00000085,-0.00000448,-
 0.00000041,-0.00000119,-0.00000536,-0.00000026,-0.00000129,0.04921804,
 0.10184161,-0.10583968,-0.00668960,-0.01130817,0.00738979,0.01191785,0
 .02440689,-0.00927998,-0.04888957,-0.10771313,0.10216041\\0.00001134,0
 .00001045,0.00001318,0.00003079,-0.00002285,-0.00000128,-0.00001030,-0
 .00001956,-0.00000484,-0.00003823,0.00004258,-0.00002239,0.00000528,0.
 00000721,-0.00002203,-0.00000125,0.00000713,0.00003638,0.00001167,-0.0
 0001598,-0.00000156,-0.00000530,-0.00000449,0.00000456,0.00000164,-0.0
 0001678,0.00000455,-0.00000223,-0.00000939,-0.00001146,0.00000362,-0.0
 0000784,0.00001606,-0.00000729,-0.00002822,0.00000358,-0.00000732,0.00
 001365,0.00000047,0.00000034,0.00000797,0.00000647,0.00000832,0.000028
 22,-0.00000315,-0.00000107,0.00000791,-0.00001856\\\@


 EVERY WORD THAT YOU WRITE IS A BLOW THAT SMITES THE DEVIL.
     -- ST. BERNARD OF CLAIRVAUX
 Job cpu time:       0 days  0 hours  8 minutes 57.5 seconds.
 File lengths (MBytes):  RWF=     85 Int=      0 D2E=      0 Chk=      8 Scr=      1
 Normal termination of Gaussian 09 at Wed Sep 16 18:05:38 2020.
