 Entering Gaussian System, Link 0=g09
 Input=product_step1_cycloaddition_m062x_toluene_3_radical_2_water.com
 Output=product_step1_cycloaddition_m062x_toluene_3_radical_2_water.log
 Initial command:
 /apps/applications/gaussian/G09.D01/2/default/g09/l1.exe "/local/2608490.1.40core-192G.q/Gau-336137.inp" -scrdir="/local/2608490.1.40core-192G.q/"
 Entering Link 1 = /apps/applications/gaussian/G09.D01/2/default/g09/l1.exe PID=    336138.
  
 Copyright (c) 1988,1990,1992,1993,1995,1998,2003,2009,2013,
            Gaussian, Inc.  All Rights Reserved.
  
 This is part of the Gaussian(R) 09 program.  It is based on
 the Gaussian(R) 03 system (copyright 2003, Gaussian, Inc.),
 the Gaussian(R) 98 system (copyright 1998, Gaussian, Inc.),
 the Gaussian(R) 94 system (copyright 1995, Gaussian, Inc.),
 the Gaussian 92(TM) system (copyright 1992, Gaussian, Inc.),
 the Gaussian 90(TM) system (copyright 1990, Gaussian, Inc.),
 the Gaussian 88(TM) system (copyright 1988, Gaussian, Inc.),
 the Gaussian 86(TM) system (copyright 1986, Carnegie Mellon
 University), and the Gaussian 82(TM) system (copyright 1983,
 Carnegie Mellon University). Gaussian is a federally registered
 trademark of Gaussian, Inc.
  
 This software contains proprietary and confidential information,
 including trade secrets, belonging to Gaussian, Inc.
  
 This software is provided under written license and may be
 used, copied, transmitted, or stored only in accord with that
 written license.
  
 The following legend is applicable only to US Government
 contracts under FAR:
  
                    RESTRICTED RIGHTS LEGEND
  
 Use, reproduction and disclosure by the US Government is
 subject to restrictions as set forth in subparagraphs (a)
 and (c) of the Commercial Computer Software - Restricted
 Rights clause in FAR 52.227-19.
  
 Gaussian, Inc.
 340 Quinnipiac St., Bldg. 40, Wallingford CT 06492
  
  
 ---------------------------------------------------------------
 Warning -- This program may not be used in any manner that
 competes with the business of Gaussian, Inc. or will provide
 assistance to any competitor of Gaussian, Inc.  The licensee
 of this program is prohibited from giving any competitor of
 Gaussian, Inc. access to this program.  By using this program,
 the user acknowledges that Gaussian, Inc. is engaged in the
 business of creating and licensing software in the field of
 computational chemistry and represents and warrants to the
 licensee that it is not a competitor of Gaussian, Inc. and that
 it will not use this program in any manner prohibited above.
 ---------------------------------------------------------------
  

 Cite this work as:
 Gaussian 09, Revision D.01,
 M. J. Frisch, G. W. Trucks, H. B. Schlegel, G. E. Scuseria, 
 M. A. Robb, J. R. Cheeseman, G. Scalmani, V. Barone, B. Mennucci, 
 G. A. Petersson, H. Nakatsuji, M. Caricato, X. Li, H. P. Hratchian, 
 A. F. Izmaylov, J. Bloino, G. Zheng, J. L. Sonnenberg, M. Hada, 
 M. Ehara, K. Toyota, R. Fukuda, J. Hasegawa, M. Ishida, T. Nakajima, 
 Y. Honda, O. Kitao, H. Nakai, T. Vreven, J. A. Montgomery, Jr., 
 J. E. Peralta, F. Ogliaro, M. Bearpark, J. J. Heyd, E. Brothers, 
 K. N. Kudin, V. N. Staroverov, T. Keith, R. Kobayashi, J. Normand, 
 K. Raghavachari, A. Rendell, J. C. Burant, S. S. Iyengar, J. Tomasi, 
 M. Cossi, N. Rega, J. M. Millam, M. Klene, J. E. Knox, J. B. Cross, 
 V. Bakken, C. Adamo, J. Jaramillo, R. Gomperts, R. E. Stratmann, 
 O. Yazyev, A. J. Austin, R. Cammi, C. Pomelli, J. W. Ochterski, 
 R. L. Martin, K. Morokuma, V. G. Zakrzewski, G. A. Voth, 
 P. Salvador, J. J. Dannenberg, S. Dapprich, A. D. Daniels, 
 O. Farkas, J. B. Foresman, J. V. Ortiz, J. Cioslowski, 
 and D. J. Fox, Gaussian, Inc., Wallingford CT, 2013.
 
 ******************************************
 Gaussian 09:  ES64L-G09RevD.01 24-Apr-2013
                12-Jul-2021 
 ******************************************
 %nprocshared=4
 Will use up to    4 processors via shared memory.
 %chk=product_cycloaddition_m062x_toluene_2.chk
 ----------------------------------------------------------------------
 # opt freq scrf=(cpcm,solvent=water) geom=connectivity def2svp m062x e
 mpiricaldispersion=gd3
 ----------------------------------------------------------------------
 1/14=-1,18=20,19=15,26=3,38=1,57=2/1,3;
 2/9=110,12=2,17=6,18=5,40=1/2;
 3/5=43,7=101,11=2,16=1,25=1,30=1,70=2101,71=1,72=1,74=-55,124=31/1,2,3;
 4//1;
 5/5=2,38=5,53=1/2;
 6/7=2,8=2,9=2,10=2,28=1/1;
 7//1,2,3,16;
 1/14=-1,18=20,19=15,26=3/3(2);
 2/9=110/2;
 99//99;
 2/9=110/2;
 3/5=43,7=101,11=2,16=1,25=1,30=1,70=2105,71=1,72=1,74=-55,124=31/1,2,3;
 4/5=5,16=3,69=1/1;
 5/5=2,38=5,53=1/2;
 7//1,2,3,16;
 1/14=-1,18=20,19=15,26=3/3(-5);
 2/9=110/2;
 6/7=2,8=2,9=2,10=2,19=2,28=1/1;
 99/9=1/99;
 -------------------
 Title Card Required
 -------------------
 Symbolic Z-matrix:
 Charge =  0 Multiplicity = 3
 C                     0.35107   0.71581  -0.57151 
 C                     0.69112   1.8769    0.41036 
 C                    -1.60656   1.73729   0.46248 
 C                    -1.10666   1.08109  -0.79405 
 H                     0.94211   0.78555  -1.4903 
 H                    -1.75078   0.54617  -1.48626 
 C                    -0.44864   1.74402   1.45519 
 H                    -0.47742   2.61099   2.13011 
 H                    -0.3963    0.82169   2.05287 
 C                     0.21248   3.048    -0.40648 
 H                     0.54887   4.0787   -0.30835 
 C                    -1.16043   2.60102  -0.71621 
 H                    -1.87668   3.15979  -1.31518 
 H                     1.7197    1.89121   0.78286 
 H                    -2.65077   1.66232   0.76289 
 N                    -0.19923  -1.28586   0.80199 
 N                     0.62437  -0.61249   0.02562 
 C                    -1.55098  -1.36351   0.48933 
 C                     1.97348  -1.04316   0.12496 
 O                     2.31946  -2.03825   0.688 
 O                    -2.42832  -1.23745   1.30202 
 O                     2.78081  -0.19828  -0.51018 
 O                    -1.75074  -1.74194  -0.78121 
 C                    -3.10907  -1.94557  -1.14702 
 H                    -3.09884  -2.29174  -2.18487 
 H                    -3.57417  -2.69598  -0.49487 
 H                    -3.67363  -1.00571  -1.06197 
 C                     4.15931  -0.55724  -0.51079 
 H                     4.67449   0.2216   -1.07959 
 H                     4.54028  -0.59928   0.51751 
 H                     4.29674  -1.53741  -0.98482 
 

 GradGradGradGradGradGradGradGradGradGradGradGradGradGradGradGradGradGrad
 Berny optimization.
 Initialization pass.
                           ----------------------------
                           !    Initial Parameters    !
                           ! (Angstroms and Degrees)  !
 --------------------------                            --------------------------
 ! Name  Definition              Value          Derivative Info.                !
 --------------------------------------------------------------------------------
 ! R1    R(1,2)                  1.5582         estimate D2E/DX2                !
 ! R2    R(1,4)                  1.5192         estimate D2E/DX2                !
 ! R3    R(1,5)                  1.0947         estimate D2E/DX2                !
 ! R4    R(1,17)                 1.4818         estimate D2E/DX2                !
 ! R5    R(2,7)                  1.5519         estimate D2E/DX2                !
 ! R6    R(2,10)                 1.5059         estimate D2E/DX2                !
 ! R7    R(2,14)                 1.094          estimate D2E/DX2                !
 ! R8    R(3,4)                  1.5031         estimate D2E/DX2                !
 ! R9    R(3,7)                  1.5252         estimate D2E/DX2                !
 ! R10   R(3,12)                 1.5279         estimate D2E/DX2                !
 ! R11   R(3,15)                 1.0892         estimate D2E/DX2                !
 ! R12   R(4,6)                  1.0864         estimate D2E/DX2                !
 ! R13   R(4,12)                 1.5229         estimate D2E/DX2                !
 ! R14   R(7,8)                  1.0991         estimate D2E/DX2                !
 ! R15   R(7,9)                  1.1003         estimate D2E/DX2                !
 ! R16   R(10,11)                1.0886         estimate D2E/DX2                !
 ! R17   R(10,12)                1.4767         estimate D2E/DX2                !
 ! R18   R(12,13)                1.0881         estimate D2E/DX2                !
 ! R19   R(16,17)                1.317          estimate D2E/DX2                !
 ! R20   R(16,18)                1.3896         estimate D2E/DX2                !
 ! R21   R(17,19)                1.4197         estimate D2E/DX2                !
 ! R22   R(18,21)                1.2025         estimate D2E/DX2                !
 ! R23   R(18,23)                1.3407         estimate D2E/DX2                !
 ! R24   R(19,20)                1.1945         estimate D2E/DX2                !
 ! R25   R(19,22)                1.33           estimate D2E/DX2                !
 ! R26   R(22,28)                1.4245         estimate D2E/DX2                !
 ! R27   R(23,24)                1.4214         estimate D2E/DX2                !
 ! R28   R(24,25)                1.0941         estimate D2E/DX2                !
 ! R29   R(24,26)                1.0976         estimate D2E/DX2                !
 ! R30   R(24,27)                1.0997         estimate D2E/DX2                !
 ! R31   R(28,29)                1.0934         estimate D2E/DX2                !
 ! R32   R(28,30)                1.0974         estimate D2E/DX2                !
 ! R33   R(28,31)                1.0974         estimate D2E/DX2                !
 ! A1    A(2,1,4)               97.0392         estimate D2E/DX2                !
 ! A2    A(2,1,5)              111.3208         estimate D2E/DX2                !
 ! A3    A(2,1,17)             111.9503         estimate D2E/DX2                !
 ! A4    A(4,1,5)              112.3212         estimate D2E/DX2                !
 ! A5    A(4,1,17)             116.8435         estimate D2E/DX2                !
 ! A6    A(5,1,17)             107.2027         estimate D2E/DX2                !
 ! A7    A(1,2,7)              101.5469         estimate D2E/DX2                !
 ! A8    A(1,2,10)              99.6904         estimate D2E/DX2                !
 ! A9    A(1,2,14)             115.4345         estimate D2E/DX2                !
 ! A10   A(7,2,10)             101.4402         estimate D2E/DX2                !
 ! A11   A(7,2,14)             117.5405         estimate D2E/DX2                !
 ! A12   A(10,2,14)            118.2505         estimate D2E/DX2                !
 ! A13   A(4,3,7)              107.0697         estimate D2E/DX2                !
 ! A14   A(4,3,15)             121.2896         estimate D2E/DX2                !
 ! A15   A(7,3,12)             106.1379         estimate D2E/DX2                !
 ! A16   A(7,3,15)             123.2741         estimate D2E/DX2                !
 ! A17   A(12,3,15)            122.1166         estimate D2E/DX2                !
 ! A18   A(1,4,3)              107.5553         estimate D2E/DX2                !
 ! A19   A(1,4,6)              122.9477         estimate D2E/DX2                !
 ! A20   A(1,4,12)             105.4484         estimate D2E/DX2                !
 ! A21   A(3,4,6)              123.3962         estimate D2E/DX2                !
 ! A22   A(6,4,12)             120.2042         estimate D2E/DX2                !
 ! A23   A(2,7,3)               96.8773         estimate D2E/DX2                !
 ! A24   A(2,7,8)              111.4149         estimate D2E/DX2                !
 ! A25   A(2,7,9)              113.7377         estimate D2E/DX2                !
 ! A26   A(3,7,8)              112.5372         estimate D2E/DX2                !
 ! A27   A(3,7,9)              112.7036         estimate D2E/DX2                !
 ! A28   A(8,7,9)              109.2026         estimate D2E/DX2                !
 ! A29   A(2,10,11)            126.0982         estimate D2E/DX2                !
 ! A30   A(2,10,12)            100.0134         estimate D2E/DX2                !
 ! A31   A(11,10,12)           126.3545         estimate D2E/DX2                !
 ! A32   A(3,12,10)            106.3065         estimate D2E/DX2                !
 ! A33   A(3,12,13)            121.5175         estimate D2E/DX2                !
 ! A34   A(4,12,10)            106.2605         estimate D2E/DX2                !
 ! A35   A(4,12,13)            120.5062         estimate D2E/DX2                !
 ! A36   A(10,12,13)           124.8902         estimate D2E/DX2                !
 ! A37   A(17,16,18)           120.2818         estimate D2E/DX2                !
 ! A38   A(1,17,16)            125.4892         estimate D2E/DX2                !
 ! A39   A(1,17,19)            118.3864         estimate D2E/DX2                !
 ! A40   A(16,17,19)           113.4485         estimate D2E/DX2                !
 ! A41   A(16,18,21)           123.49           estimate D2E/DX2                !
 ! A42   A(16,18,23)           111.9589         estimate D2E/DX2                !
 ! A43   A(21,18,23)           124.1488         estimate D2E/DX2                !
 ! A44   A(17,19,20)           124.1201         estimate D2E/DX2                !
 ! A45   A(17,19,22)           110.531          estimate D2E/DX2                !
 ! A46   A(20,19,22)           125.3413         estimate D2E/DX2                !
 ! A47   A(19,22,28)           115.3114         estimate D2E/DX2                !
 ! A48   A(18,23,24)           115.2599         estimate D2E/DX2                !
 ! A49   A(23,24,25)           106.2913         estimate D2E/DX2                !
 ! A50   A(23,24,26)           110.4861         estimate D2E/DX2                !
 ! A51   A(23,24,27)           110.3807         estimate D2E/DX2                !
 ! A52   A(25,24,26)           110.5645         estimate D2E/DX2                !
 ! A53   A(25,24,27)           110.3997         estimate D2E/DX2                !
 ! A54   A(26,24,27)           108.7131         estimate D2E/DX2                !
 ! A55   A(22,28,29)           106.0622         estimate D2E/DX2                !
 ! A56   A(22,28,30)           110.1942         estimate D2E/DX2                !
 ! A57   A(22,28,31)           110.2698         estimate D2E/DX2                !
 ! A58   A(29,28,30)           110.5588         estimate D2E/DX2                !
 ! A59   A(29,28,31)           110.6401         estimate D2E/DX2                !
 ! A60   A(30,28,31)           109.091          estimate D2E/DX2                !
 ! D1    D(4,1,2,7)             51.1438         estimate D2E/DX2                !
 ! D2    D(4,1,2,10)           -52.758          estimate D2E/DX2                !
 ! D3    D(4,1,2,14)           179.4409         estimate D2E/DX2                !
 ! D4    D(5,1,2,7)            168.4659         estimate D2E/DX2                !
 ! D5    D(5,1,2,10)            64.5641         estimate D2E/DX2                !
 ! D6    D(5,1,2,14)           -63.237          estimate D2E/DX2                !
 ! D7    D(17,1,2,7)           -71.5609         estimate D2E/DX2                !
 ! D8    D(17,1,2,10)         -175.4627         estimate D2E/DX2                !
 ! D9    D(17,1,2,14)           56.7362         estimate D2E/DX2                !
 ! D10   D(2,1,4,3)            -30.3609         estimate D2E/DX2                !
 ! D11   D(2,1,4,6)            176.3869         estimate D2E/DX2                !
 ! D12   D(2,1,4,12)            33.1532         estimate D2E/DX2                !
 ! D13   D(5,1,4,3)           -146.8944         estimate D2E/DX2                !
 ! D14   D(5,1,4,6)             59.8534         estimate D2E/DX2                !
 ! D15   D(5,1,4,12)           -83.3804         estimate D2E/DX2                !
 ! D16   D(17,1,4,3)            88.6267         estimate D2E/DX2                !
 ! D17   D(17,1,4,6)           -64.6255         estimate D2E/DX2                !
 ! D18   D(17,1,4,12)          152.1407         estimate D2E/DX2                !
 ! D19   D(2,1,17,16)           84.6046         estimate D2E/DX2                !
 ! D20   D(2,1,17,19)          -75.584          estimate D2E/DX2                !
 ! D21   D(4,1,17,16)          -26.0079         estimate D2E/DX2                !
 ! D22   D(4,1,17,19)          173.8035         estimate D2E/DX2                !
 ! D23   D(5,1,17,16)         -153.0419         estimate D2E/DX2                !
 ! D24   D(5,1,17,19)           46.7694         estimate D2E/DX2                !
 ! D25   D(1,2,7,3)            -51.6839         estimate D2E/DX2                !
 ! D26   D(1,2,7,8)           -169.1997         estimate D2E/DX2                !
 ! D27   D(1,2,7,9)             66.8534         estimate D2E/DX2                !
 ! D28   D(10,2,7,3)            50.8272         estimate D2E/DX2                !
 ! D29   D(10,2,7,8)           -66.6886         estimate D2E/DX2                !
 ! D30   D(10,2,7,9)           169.3644         estimate D2E/DX2                !
 ! D31   D(14,2,7,3)          -178.6188         estimate D2E/DX2                !
 ! D32   D(14,2,7,8)            63.8653         estimate D2E/DX2                !
 ! D33   D(14,2,7,9)           -60.0816         estimate D2E/DX2                !
 ! D34   D(1,2,10,11)         -156.5287         estimate D2E/DX2                !
 ! D35   D(1,2,10,12)           52.5768         estimate D2E/DX2                !
 ! D36   D(7,2,10,11)           99.4821         estimate D2E/DX2                !
 ! D37   D(7,2,10,12)          -51.4124         estimate D2E/DX2                !
 ! D38   D(14,2,10,11)         -30.6293         estimate D2E/DX2                !
 ! D39   D(14,2,10,12)         178.4763         estimate D2E/DX2                !
 ! D40   D(7,3,4,1)             -0.9871         estimate D2E/DX2                !
 ! D41   D(7,3,4,6)            152.1169         estimate D2E/DX2                !
 ! D42   D(15,3,4,1)          -150.1056         estimate D2E/DX2                !
 ! D43   D(15,3,4,6)             2.9984         estimate D2E/DX2                !
 ! D44   D(4,3,7,2)             32.003          estimate D2E/DX2                !
 ! D45   D(4,3,7,8)            148.6329         estimate D2E/DX2                !
 ! D46   D(4,3,7,9)            -87.3367         estimate D2E/DX2                !
 ! D47   D(12,3,7,2)           -31.2249         estimate D2E/DX2                !
 ! D48   D(12,3,7,8)            85.4049         estimate D2E/DX2                !
 ! D49   D(12,3,7,9)          -150.5646         estimate D2E/DX2                !
 ! D50   D(15,3,7,2)          -179.6396         estimate D2E/DX2                !
 ! D51   D(15,3,7,8)           -63.0098         estimate D2E/DX2                !
 ! D52   D(15,3,7,9)            61.0206         estimate D2E/DX2                !
 ! D53   D(7,3,12,10)            1.286          estimate D2E/DX2                !
 ! D54   D(7,3,12,13)         -150.1768         estimate D2E/DX2                !
 ! D55   D(15,3,12,10)         150.1535         estimate D2E/DX2                !
 ! D56   D(15,3,12,13)          -1.3093         estimate D2E/DX2                !
 ! D57   D(1,4,12,10)           -2.1878         estimate D2E/DX2                !
 ! D58   D(1,4,12,13)          147.5152         estimate D2E/DX2                !
 ! D59   D(6,4,12,10)         -146.6536         estimate D2E/DX2                !
 ! D60   D(6,4,12,13)            3.0494         estimate D2E/DX2                !
 ! D61   D(2,10,12,3)           30.5329         estimate D2E/DX2                !
 ! D62   D(2,10,12,4)          -31.2346         estimate D2E/DX2                !
 ! D63   D(2,10,12,13)        -179.236          estimate D2E/DX2                !
 ! D64   D(11,10,12,3)        -120.2569         estimate D2E/DX2                !
 ! D65   D(11,10,12,4)         177.9757         estimate D2E/DX2                !
 ! D66   D(11,10,12,13)         29.9743         estimate D2E/DX2                !
 ! D67   D(18,16,17,1)          43.1782         estimate D2E/DX2                !
 ! D68   D(18,16,17,19)       -155.7882         estimate D2E/DX2                !
 ! D69   D(17,16,18,21)       -136.5458         estimate D2E/DX2                !
 ! D70   D(17,16,18,23)         50.4733         estimate D2E/DX2                !
 ! D71   D(1,17,19,20)         173.3666         estimate D2E/DX2                !
 ! D72   D(1,17,19,22)          -7.5951         estimate D2E/DX2                !
 ! D73   D(16,17,19,20)         10.8724         estimate D2E/DX2                !
 ! D74   D(16,17,19,22)       -170.0893         estimate D2E/DX2                !
 ! D75   D(16,18,23,24)        175.2927         estimate D2E/DX2                !
 ! D76   D(21,18,23,24)          2.3664         estimate D2E/DX2                !
 ! D77   D(17,19,22,28)       -178.0893         estimate D2E/DX2                !
 ! D78   D(20,19,22,28)          0.9348         estimate D2E/DX2                !
 ! D79   D(19,22,28,29)        179.1066         estimate D2E/DX2                !
 ! D80   D(19,22,28,30)        -61.2058         estimate D2E/DX2                !
 ! D81   D(19,22,28,31)         59.2808         estimate D2E/DX2                !
 ! D82   D(18,23,24,25)       -177.4009         estimate D2E/DX2                !
 ! D83   D(18,23,24,26)        -57.4107         estimate D2E/DX2                !
 ! D84   D(18,23,24,27)         62.865          estimate D2E/DX2                !
 --------------------------------------------------------------------------------
 Trust Radius=3.00D-01 FncErr=1.00D-07 GrdErr=1.00D-06
 Number of steps in this run=    186 maximum allowed number of steps=    186.
 GradGradGradGradGradGradGradGradGradGradGradGradGradGradGradGradGradGrad

                          Input orientation:                          
 ---------------------------------------------------------------------
 Center     Atomic      Atomic             Coordinates (Angstroms)
 Number     Number       Type             X           Y           Z
 ---------------------------------------------------------------------
      1          6           0        0.351069    0.715809   -0.571509
      2          6           0        0.691118    1.876900    0.410363
      3          6           0       -1.606556    1.737294    0.462483
      4          6           0       -1.106662    1.081090   -0.794054
      5          1           0        0.942105    0.785550   -1.490298
      6          1           0       -1.750778    0.546171   -1.486256
      7          6           0       -0.448641    1.744021    1.455191
      8          1           0       -0.477416    2.610987    2.130107
      9          1           0       -0.396301    0.821691    2.052867
     10          6           0        0.212479    3.048003   -0.406476
     11          1           0        0.548873    4.078699   -0.308350
     12          6           0       -1.160430    2.601019   -0.716210
     13          1           0       -1.876682    3.159791   -1.315178
     14          1           0        1.719701    1.891211    0.782860
     15          1           0       -2.650773    1.662317    0.762888
     16          7           0       -0.199232   -1.285861    0.801992
     17          7           0        0.624370   -0.612490    0.025615
     18          6           0       -1.550978   -1.363508    0.489333
     19          6           0        1.973483   -1.043157    0.124961
     20          8           0        2.319458   -2.038247    0.688001
     21          8           0       -2.428322   -1.237454    1.302017
     22          8           0        2.780813   -0.198281   -0.510179
     23          8           0       -1.750736   -1.741939   -0.781208
     24          6           0       -3.109073   -1.945574   -1.147017
     25          1           0       -3.098845   -2.291736   -2.184867
     26          1           0       -3.574171   -2.695975   -0.494874
     27          1           0       -3.673628   -1.005705   -1.061972
     28          6           0        4.159314   -0.557244   -0.510788
     29          1           0        4.674488    0.221601   -1.079594
     30          1           0        4.540285   -0.599277    0.517512
     31          1           0        4.296736   -1.537410   -0.984820
 ---------------------------------------------------------------------
                    Distance matrix (angstroms):
                    1          2          3          4          5
     1  C    0.000000
     2  C    1.558152   0.000000
     3  C    2.438210   2.302501   0.000000
     4  C    1.519189   2.305634   1.503124   0.000000
     5  H    1.094697   2.206026   3.348857   2.183929   0.000000
     6  H    2.298543   3.366134   2.288484   1.086355   2.703505
     7  C    2.409205   1.551893   1.525215   2.435482   3.395401
     8  H    3.402472   2.204966   2.195283   3.359651   4.295881
     9  H    2.730773   2.234673   2.198265   2.945651   3.787698
    10  C    2.342130   1.505923   2.404566   2.399812   2.612607
    11  H    3.378966   2.320496   3.274482   3.458665   3.520861
    12  C    2.420658   2.285114   1.527863   1.522871   2.883712
    13  H    3.389538   3.349164   2.292716   2.277169   3.689613
    14  H    2.255890   1.094048   3.345193   3.336358   2.644691
    15  H    3.418706   3.367277   1.089153   2.268518   4.330628
    16  N    2.489180   3.308951   3.351909   2.995538   3.293628
    17  N    1.481765   2.519831   3.269460   2.556666   2.086496
    18  C    3.011101   3.941253   3.101416   2.796526   3.840944
    19  C    2.492240   3.201976   4.545493   3.852831   2.648957
    20  O    3.611889   4.249347   5.451528   4.864674   3.823077
    21  O    3.879478   4.497238   3.198319   3.393515   4.821758
    22  O    2.596724   3.085547   4.893008   4.102418   2.304214
    23  O    3.240692   4.525316   3.697650   2.895598   3.760638
    24  C    4.403039   5.610543   4.290870   3.646221   4.897849
    25  H    4.852850   6.202948   5.046630   4.156815   5.126538
    26  H    5.201313   6.318491   4.943877   4.521541   5.788664
    27  H    4.404810   5.433985   3.757764   3.319007   4.969613
    28  C    4.015854   4.336123   6.281514   5.522217   3.621183
    29  H    4.381135   4.563685   6.642804   5.851662   3.797025
    30  H    4.523820   4.578102   6.576188   6.035880   4.346947
    31  H    4.562468   5.157958   6.904146   6.007466   4.111593
                    6          7          8          9         10
     6  H    0.000000
     7  C    3.432567   0.000000
     8  H    4.354652   1.099077   0.000000
     9  H    3.799462   1.100295   1.792798   0.000000
    10  C    3.358492   2.367119   2.664806   3.372751   0.000000
    11  H    4.376598   3.091251   3.025479   4.132409   1.088634
    12  C    2.272418   2.440506   2.927136   3.379007   1.476689
    13  H    2.622237   3.423251   3.758872   4.359125   2.280971
    14  H    4.359156   2.274951   2.675906   2.689657   2.241519
    15  H    2.667287   2.309836   2.737288   2.730081   3.389063
    16  N    3.316582   3.109511   4.126342   2.458719   4.517995
    17  N    3.044598   2.957733   4.004201   2.684845   3.708850
    18  C    2.754949   3.435806   4.431849   2.924553   4.834634
    19  C    4.357993   3.924864   4.835316   3.579156   4.485661
    20  O    5.288991   4.749369   5.614049   4.173422   5.613126
    21  O    3.378587   3.582149   4.393434   2.988806   5.315818
    22  O    4.694918   4.250246   5.047688   4.207565   4.140707
    23  O    2.394272   4.341526   5.389347   4.054463   5.190201
    24  C    2.858119   5.240467   6.198984   5.025549   6.042923
    25  H    3.218549   6.046564   7.037584   5.912323   6.529958
    26  H    3.849560   5.769338   6.681636   5.381804   6.880394
    27  H    2.507127   4.929264   5.786674   4.876727   5.653676
    28  C    6.090833   5.513088   6.205746   5.406239   5.346606
    29  H    6.446298   5.915179   6.523301   5.990436   5.324581
    30  H    6.701090   5.591035   6.171190   5.361562   5.734659
    31  H    6.416009   6.264188   7.050142   6.067742   6.167791
                   11         12         13         14         15
    11  H    0.000000
    12  C    2.295998   0.000000
    13  H    2.782339   1.088120   0.000000
    14  H    2.710476   3.323581   4.352589   0.000000
    15  H    4.150203   2.300003   2.675818   4.376509   0.000000
    16  N    5.529107   4.282134   5.201929   3.711665   3.834493
    17  N    4.703667   3.749994   4.720497   2.835787   4.055229
    18  C    5.887554   4.162131   4.880838   4.623494   3.231099
    19  C    5.333918   4.879446   5.878992   3.017905   5.395395
    20  O    6.445519   5.966927   6.974232   3.976097   6.197014
    21  O    6.302258   4.518259   5.146822   5.221510   2.957840
    22  O    4.828545   4.838587   5.798011   2.676544   5.880872
    23  O    6.276275   4.383374   4.932336   5.262131   3.844900
    24  C    7.097591   4.965311   5.254695   6.462384   4.107877
    25  H    7.576913   5.463832   5.654130   7.037246   4.952228
    26  H    7.932874   5.825228   6.151777   7.120390   4.629183
    27  H    6.651964   4.409555   4.543620   6.394023   3.390382
    28  C    5.879476   6.190032   7.134188   3.690551   7.275025
    29  H    5.700239   6.311889   7.183752   3.871317   7.689594
    30  H    6.204585   6.652978   7.659426   3.772086   7.542303
    31  H    6.785630   6.854153   7.764272   4.639099   7.846057
                   16         17         18         19         20
    16  N    0.000000
    17  N    1.317008   0.000000
    18  C    1.389605   2.347595   0.000000
    19  C    2.288660   1.419665   3.557698   0.000000
    20  O    2.631136   2.311896   3.933830   1.194536   0.000000
    21  O    2.284997   3.367300   1.202530   4.560603   4.853834
    22  O    3.432971   2.260286   4.595780   1.330038   2.243649
    23  O    2.263116   2.750954   1.340667   3.896055   4.337379
    24  C    3.563851   4.134099   2.333260   5.316452   5.731041
    25  H    4.282624   4.644182   3.226274   5.711634   6.138048
    26  H    3.880786   4.715884   2.614850   5.821724   6.047037
    27  H    3.952756   4.450871   2.653340   5.770622   6.328162
    28  C    4.609902   3.575837   5.853011   2.327691   2.648686
    29  H    5.437458   4.280263   6.612906   3.216519   3.711802
    30  H    4.797431   3.946711   6.139082   2.634312   2.651749
    31  H    4.844554   3.919532   6.033169   2.621718   2.637953
                   21         22         23         24         25
    21  O    0.000000
    22  O    5.612399   0.000000
    23  O    2.247989   4.794922   0.000000
    24  C    2.638678   6.176516   1.421395   0.000000
    25  H    3.703981   6.462005   2.022358   1.094105   0.000000
    26  H    2.582454   6.828216   2.077760   1.097592   1.801505
    27  H    2.681965   6.528110   2.078072   1.099686   1.801428
    28  C    6.866287   1.424472   6.033682   7.427092   7.647998
    29  H    7.632223   2.021519   6.725179   8.079914   8.243979
    30  H    7.041605   2.076701   6.524515   7.943290   8.277897
    31  H    7.109571   2.077636   6.054354   7.418822   7.530188
                   26         27         28         29         30
    26  H    0.000000
    27  H    1.785638   0.000000
    28  C    8.023790   7.865107   0.000000
    29  H    8.768952   8.437869   1.093409   0.000000
    30  H    8.441887   8.374265   1.097409   1.800722   0.000000
    31  H    7.970790   7.988452   1.097414   1.801610   1.787851
                   31
    31  H    0.000000
 Stoichiometry    C11H14N2O4(3)
 Framework group  C1[X(C11H14N2O4)]
 Deg. of freedom    87
 Full point group                 C1      NOp   1
 Largest Abelian subgroup         C1      NOp   1
 Largest concise Abelian subgroup C1      NOp   1
                         Standard orientation:                         
 ---------------------------------------------------------------------
 Center     Atomic      Atomic             Coordinates (Angstroms)
 Number     Number       Type             X           Y           Z
 ---------------------------------------------------------------------
      1          6           0        0.351069    0.715809   -0.571509
      2          6           0        0.691118    1.876900    0.410363
      3          6           0       -1.606556    1.737294    0.462483
      4          6           0       -1.106662    1.081090   -0.794054
      5          1           0        0.942105    0.785550   -1.490298
      6          1           0       -1.750778    0.546171   -1.486256
      7          6           0       -0.448641    1.744021    1.455191
      8          1           0       -0.477416    2.610987    2.130107
      9          1           0       -0.396301    0.821691    2.052867
     10          6           0        0.212479    3.048003   -0.406476
     11          1           0        0.548872    4.078699   -0.308350
     12          6           0       -1.160430    2.601019   -0.716210
     13          1           0       -1.876682    3.159791   -1.315178
     14          1           0        1.719701    1.891211    0.782860
     15          1           0       -2.650773    1.662317    0.762888
     16          7           0       -0.199232   -1.285861    0.801992
     17          7           0        0.624370   -0.612490    0.025615
     18          6           0       -1.550978   -1.363508    0.489333
     19          6           0        1.973483   -1.043157    0.124961
     20          8           0        2.319458   -2.038247    0.688001
     21          8           0       -2.428322   -1.237454    1.302017
     22          8           0        2.780813   -0.198281   -0.510179
     23          8           0       -1.750736   -1.741939   -0.781208
     24          6           0       -3.109073   -1.945574   -1.147017
     25          1           0       -3.098845   -2.291736   -2.184867
     26          1           0       -3.574171   -2.695976   -0.494874
     27          1           0       -3.673628   -1.005706   -1.061972
     28          6           0        4.159314   -0.557244   -0.510788
     29          1           0        4.674488    0.221602   -1.079594
     30          1           0        4.540285   -0.599276    0.517512
     31          1           0        4.296736   -1.537410   -0.984820
 ---------------------------------------------------------------------
 Rotational constants (GHZ):      0.6375418      0.4593998      0.3188173
 Standard basis: def2SVP (5D, 7F)
 There are   325 symmetry adapted cartesian basis functions of A   symmetry.
 There are   308 symmetry adapted basis functions of A   symmetry.
   308 basis functions,   523 primitive gaussians,   325 cartesian basis functions
    64 alpha electrons       62 beta electrons
       nuclear repulsion energy      1322.2557970247 Hartrees.
 NAtoms=   31 NActive=   31 NUniq=   31 SFac= 1.00D+00 NAtFMM=   60 NAOKFM=F Big=F
 Integral buffers will be    131072 words long.
 Raffenetti 2 integral format.
 Two-electron integral symmetry is turned on.
 Nuclear repulsion after empirical dispersion term =     1322.2540716153 Hartrees.
 ------------------------------------------------------------------------------
 Polarizable Continuum Model (PCM)
 =================================
 Model                : C-PCM.
 Atomic radii         : UFF (Universal Force Field).
 Polarization charges : Total charges.
 Charge compensation  : None.
 Solution method      : On-the-fly selection.
 Cavity type          : Scaled VdW (van der Waals Surface) (Alpha=1.100).
 Cavity algorithm     : GePol (No added spheres)
                        Default sphere list used, NSphG=   31.
                        Lebedev-Laikov grids with approx.  5.0 points / Ang**2.
                        Smoothing algorithm: Karplus/York (Gamma=1.0000).
                        Polarization charges: spherical gaussians, with
                                              point-specific exponents (IZeta= 3).
                        Self-potential: point-specific (ISelfS= 7).
                        Self-field    : sphere-specific E.n sum rule (ISelfD= 2).
 1st derivatives      : Analytical E(r).r(x)/FMM algorithm (CHGder, D1EAlg=3).
                        Cavity 1st derivative terms included.
 Solvent              : Water, Eps=  78.355300 Eps(inf)=   1.777849
 ------------------------------------------------------------------------------
 One-electron integrals computed using PRISM.
   1 Symmetry operations used in ECPInt.
 ECPInt:  NShTT=   10440 NPrTT=   37938 LenC2=    9930 LenP2D=   26190.
 LDataN:  DoStor=T MaxTD1= 4 Len=   56
 NBasis=   308 RedAO= T EigKep=  4.42D-04  NBF=   308
 NBsUse=   308 1.00D-06 EigRej= -1.00D+00 NBFU=   308
 ExpMin= 1.22D-01 ExpMax= 2.27D+03 ExpMxC= 3.41D+02 IAcc=1 IRadAn=         1 AccDes= 0.00D+00
 Harris functional with IExCor= 1009 and IRadAn=       1 diagonalized for initial guess.
 HarFok:  IExCor= 1009 AccDes= 0.00D+00 IRadAn=         1 IDoV= 1 UseB2=F ITyADJ=14
 ICtDFT=  3500011 ScaDFX=  1.000000  1.000000  1.000000  1.000000
 FoFCou: FMM=F IPFlag=           0 FMFlag=      100000 FMFlg1=           0
         NFxFlg=           0 DoJE=T BraDBF=F KetDBF=T FulRan=T
         wScrn=  0.000000 ICntrl=     500 IOpCl=  0 I1Cent=   200000004 NGrid=           0
         NMat0=    1 NMatS0=      1 NMatT0=    0 NMatD0=    1 NMtDS0=    0 NMtDT0=    0
 Petite list used in FoFCou.
 Initial guess <Sx>= 0.0000 <Sy>= 0.0000 <Sz>= 1.0000 <S**2>= 2.0000 S= 1.0000
 Requested convergence on RMS density matrix=1.00D-08 within 128 cycles.
 Requested convergence on MAX density matrix=1.00D-06.
 Requested convergence on             energy=1.00D-06.
 No special actions if energy rises.
 Inv3:  Mode=1 IEnd=    14999088.
 Iteration    1 A*A^-1 deviation from unit magnitude is 5.55D-15 for   2215.
 Iteration    1 A*A^-1 deviation from orthogonality  is 3.29D-15 for   1525   1211.
 Iteration    1 A^-1*A deviation from unit magnitude is 5.55D-15 for   2215.
 Iteration    1 A^-1*A deviation from orthogonality  is 2.26D-15 for   1594    550.
 Error on total polarization charges =  0.00879
 SCF Done:  E(UM062X) =  -836.907086617     A.U. after   18 cycles
            NFock= 18  Conv=0.43D-08     -V/T= 2.0093
 <Sx>= 0.0000 <Sy>= 0.0000 <Sz>= 1.0000 <S**2>= 2.0088 S= 1.0029
 <L.S>= 0.000000000000E+00
 Annihilation of the first spin contaminant:
 S**2 before annihilation     2.0088,   after     2.0000

 **********************************************************************

            Population analysis using the SCF density.

 **********************************************************************

 Orbital symmetries:
 Alpha Orbitals:
       Occupied  (A) (A) (A) (A) (A) (A) (A) (A) (A) (A) (A) (A)
                 (A) (A) (A) (A) (A) (A) (A) (A) (A) (A) (A) (A)
                 (A) (A) (A) (A) (A) (A) (A) (A) (A) (A) (A) (A)
                 (A) (A) (A) (A) (A) (A) (A) (A) (A) (A) (A) (A)
                 (A) (A) (A) (A) (A) (A) (A) (A) (A) (A) (A) (A)
                 (A) (A) (A) (A)
       Virtual   (A) (A) (A) (A) (A) (A) (A) (A) (A) (A) (A) (A)
                 (A) (A) (A) (A) (A) (A) (A) (A) (A) (A) (A) (A)
                 (A) (A) (A) (A) (A) (A) (A) (A) (A) (A) (A) (A)
                 (A) (A) (A) (A) (A) (A) (A) (A) (A) (A) (A) (A)
                 (A) (A) (A) (A) (A) (A) (A) (A) (A) (A) (A) (A)
                 (A) (A) (A) (A) (A) (A) (A) (A) (A) (A) (A) (A)
                 (A) (A) (A) (A) (A) (A) (A) (A) (A) (A) (A) (A)
                 (A) (A) (A) (A) (A) (A) (A) (A) (A) (A) (A) (A)
                 (A) (A) (A) (A) (A) (A) (A) (A) (A) (A) (A) (A)
                 (A) (A) (A) (A) (A) (A) (A) (A) (A) (A) (A) (A)
                 (A) (A) (A) (A) (A) (A) (A) (A) (A) (A) (A) (A)
                 (A) (A) (A) (A) (A) (A) (A) (A) (A) (A) (A) (A)
                 (A) (A) (A) (A) (A) (A) (A) (A) (A) (A) (A) (A)
                 (A) (A) (A) (A) (A) (A) (A) (A) (A) (A) (A) (A)
                 (A) (A) (A) (A) (A) (A) (A) (A) (A) (A) (A) (A)
                 (A) (A) (A) (A) (A) (A) (A) (A) (A) (A) (A) (A)
                 (A) (A) (A) (A) (A) (A) (A) (A) (A) (A) (A) (A)
                 (A) (A) (A) (A) (A) (A) (A) (A) (A) (A) (A) (A)
                 (A) (A) (A) (A) (A) (A) (A) (A) (A) (A) (A) (A)
                 (A) (A) (A) (A) (A) (A) (A) (A) (A) (A) (A) (A)
                 (A) (A) (A) (A)
 Beta  Orbitals:
       Occupied  (A) (A) (A) (A) (A) (A) (A) (A) (A) (A) (A) (A)
                 (A) (A) (A) (A) (A) (A) (A) (A) (A) (A) (A) (A)
                 (A) (A) (A) (A) (A) (A) (A) (A) (A) (A) (A) (A)
                 (A) (A) (A) (A) (A) (A) (A) (A) (A) (A) (A) (A)
                 (A) (A) (A) (A) (A) (A) (A) (A) (A) (A) (A) (A)
                 (A) (A)
       Virtual   (A) (A) (A) (A) (A) (A) (A) (A) (A) (A) (A) (A)
                 (A) (A) (A) (A) (A) (A) (A) (A) (A) (A) (A) (A)
                 (A) (A) (A) (A) (A) (A) (A) (A) (A) (A) (A) (A)
                 (A) (A) (A) (A) (A) (A) (A) (A) (A) (A) (A) (A)
                 (A) (A) (A) (A) (A) (A) (A) (A) (A) (A) (A) (A)
                 (A) (A) (A) (A) (A) (A) (A) (A) (A) (A) (A) (A)
                 (A) (A) (A) (A) (A) (A) (A) (A) (A) (A) (A) (A)
                 (A) (A) (A) (A) (A) (A) (A) (A) (A) (A) (A) (A)
                 (A) (A) (A) (A) (A) (A) (A) (A) (A) (A) (A) (A)
                 (A) (A) (A) (A) (A) (A) (A) (A) (A) (A) (A) (A)
                 (A) (A) (A) (A) (A) (A) (A) (A) (A) (A) (A) (A)
                 (A) (A) (A) (A) (A) (A) (A) (A) (A) (A) (A) (A)
                 (A) (A) (A) (A) (A) (A) (A) (A) (A) (A) (A) (A)
                 (A) (A) (A) (A) (A) (A) (A) (A) (A) (A) (A) (A)
                 (A) (A) (A) (A) (A) (A) (A) (A) (A) (A) (A) (A)
                 (A) (A) (A) (A) (A) (A) (A) (A) (A) (A) (A) (A)
                 (A) (A) (A) (A) (A) (A) (A) (A) (A) (A) (A) (A)
                 (A) (A) (A) (A) (A) (A) (A) (A) (A) (A) (A) (A)
                 (A) (A) (A) (A) (A) (A) (A) (A) (A) (A) (A) (A)
                 (A) (A) (A) (A) (A) (A) (A) (A) (A) (A) (A) (A)
                 (A) (A) (A) (A) (A) (A)
 The electronic state is 3-A.
 Alpha  occ. eigenvalues --  -19.69697 -19.68519 -19.63914 -19.62821 -14.87073
 Alpha  occ. eigenvalues --  -14.81317 -10.73007 -10.71674 -10.61521 -10.61434
 Alpha  occ. eigenvalues --  -10.61044 -10.57256 -10.57131 -10.57014 -10.56897
 Alpha  occ. eigenvalues --  -10.56677 -10.55982  -1.26041  -1.24220  -1.16426
 Alpha  occ. eigenvalues --   -1.14287  -1.13773  -1.03918  -0.94851  -0.85817
 Alpha  occ. eigenvalues --   -0.83418  -0.83126  -0.80350  -0.79118  -0.70128
 Alpha  occ. eigenvalues --   -0.68576  -0.65195  -0.64761  -0.64221  -0.62732
 Alpha  occ. eigenvalues --   -0.62481  -0.60443  -0.58979  -0.57708  -0.57284
 Alpha  occ. eigenvalues --   -0.57125  -0.54907  -0.52404  -0.51939  -0.50970
 Alpha  occ. eigenvalues --   -0.50064  -0.48937  -0.47277  -0.46217  -0.45110
 Alpha  occ. eigenvalues --   -0.44320  -0.44029  -0.43346  -0.41917  -0.41438
 Alpha  occ. eigenvalues --   -0.39488  -0.39299  -0.38628  -0.38475  -0.36572
 Alpha  occ. eigenvalues --   -0.36097  -0.35018  -0.28852  -0.24656
 Alpha virt. eigenvalues --    0.05860   0.06962   0.09300   0.10522   0.12758
 Alpha virt. eigenvalues --    0.13836   0.14835   0.15341   0.15555   0.16125
 Alpha virt. eigenvalues --    0.16472   0.16955   0.17257   0.17552   0.17920
 Alpha virt. eigenvalues --    0.18423   0.18781   0.19470   0.19884   0.21148
 Alpha virt. eigenvalues --    0.21507   0.23454   0.24785   0.25610   0.26691
 Alpha virt. eigenvalues --    0.27863   0.30554   0.30988   0.32124   0.33662
 Alpha virt. eigenvalues --    0.34656   0.38180   0.38536   0.42731   0.43175
 Alpha virt. eigenvalues --    0.43988   0.45770   0.46993   0.48070   0.48800
 Alpha virt. eigenvalues --    0.49412   0.50392   0.50598   0.51528   0.52407
 Alpha virt. eigenvalues --    0.53435   0.55339   0.55845   0.58190   0.59074
 Alpha virt. eigenvalues --    0.60374   0.60418   0.62070   0.62774   0.64383
 Alpha virt. eigenvalues --    0.65330   0.66633   0.67337   0.67793   0.68553
 Alpha virt. eigenvalues --    0.68752   0.69099   0.69845   0.70382   0.70476
 Alpha virt. eigenvalues --    0.71133   0.71580   0.71742   0.72107   0.72233
 Alpha virt. eigenvalues --    0.73046   0.73379   0.74445   0.75102   0.75275
 Alpha virt. eigenvalues --    0.76070   0.76685   0.77236   0.79235   0.79624
 Alpha virt. eigenvalues --    0.80591   0.83115   0.83376   0.85166   0.85974
 Alpha virt. eigenvalues --    0.87533   0.90861   0.93065   0.94214   0.97068
 Alpha virt. eigenvalues --    0.99434   1.01001   1.04640   1.05083   1.06032
 Alpha virt. eigenvalues --    1.07975   1.09539   1.10393   1.12255   1.13334
 Alpha virt. eigenvalues --    1.14975   1.19363   1.19882   1.20866   1.22561
 Alpha virt. eigenvalues --    1.23588   1.25926   1.27829   1.28822   1.30779
 Alpha virt. eigenvalues --    1.32677   1.34742   1.36972   1.39937   1.40873
 Alpha virt. eigenvalues --    1.43155   1.45811   1.48167   1.50389   1.52200
 Alpha virt. eigenvalues --    1.54830   1.55965   1.55978   1.57725   1.59280
 Alpha virt. eigenvalues --    1.60980   1.62700   1.63035   1.63991   1.65530
 Alpha virt. eigenvalues --    1.65822   1.67192   1.68929   1.69835   1.72227
 Alpha virt. eigenvalues --    1.73325   1.74087   1.76071   1.77374   1.77783
 Alpha virt. eigenvalues --    1.78579   1.80081   1.81082   1.82106   1.82885
 Alpha virt. eigenvalues --    1.82994   1.84830   1.85811   1.86746   1.88694
 Alpha virt. eigenvalues --    1.88979   1.89472   1.91237   1.92261   1.93224
 Alpha virt. eigenvalues --    1.94031   1.94410   1.95084   1.95481   1.97452
 Alpha virt. eigenvalues --    1.97922   1.99950   2.00928   2.03345   2.03643
 Alpha virt. eigenvalues --    2.04865   2.05845   2.06374   2.07394   2.08745
 Alpha virt. eigenvalues --    2.11014   2.13757   2.14357   2.15340   2.17003
 Alpha virt. eigenvalues --    2.17293   2.18022   2.21374   2.22574   2.25683
 Alpha virt. eigenvalues --    2.27188   2.28894   2.30573   2.33376   2.34429
 Alpha virt. eigenvalues --    2.35194   2.36838   2.37864   2.40753   2.41576
 Alpha virt. eigenvalues --    2.42600   2.44660   2.45282   2.50532   2.53801
 Alpha virt. eigenvalues --    2.55798   2.58020   2.61120   2.61332   2.65020
 Alpha virt. eigenvalues --    2.67496   2.68408   2.68654   2.69117   2.69805
 Alpha virt. eigenvalues --    2.71014   2.73187   2.74533   2.75359   2.77739
 Alpha virt. eigenvalues --    2.81693   2.83040   2.84007   2.84992   2.86705
 Alpha virt. eigenvalues --    2.88824   2.89602   2.90650   2.91838   2.92707
 Alpha virt. eigenvalues --    2.93517   2.95611   2.96107   2.99620   3.01420
 Alpha virt. eigenvalues --    3.03621   3.04542   3.08490   3.09558   3.09747
 Alpha virt. eigenvalues --    3.15195   3.18245   3.22062   3.24202   3.27924
 Alpha virt. eigenvalues --    3.30203   3.31678   3.37345   3.48919   3.49438
 Alpha virt. eigenvalues --    3.68063   3.71063   3.73483   3.76237
  Beta  occ. eigenvalues --  -19.69658 -19.68448 -19.63808 -19.62740 -14.86611
  Beta  occ. eigenvalues --  -14.80427 -10.73031 -10.71701 -10.61522 -10.61401
  Beta  occ. eigenvalues --  -10.61039 -10.57203 -10.57158 -10.56973 -10.56907
  Beta  occ. eigenvalues --  -10.55922 -10.55913  -1.25686  -1.23904  -1.15710
  Beta  occ. eigenvalues --   -1.13704  -1.12833  -1.03188  -0.93025  -0.85270
  Beta  occ. eigenvalues --   -0.83149  -0.82537  -0.78763  -0.78263  -0.69262
  Beta  occ. eigenvalues --   -0.67727  -0.64951  -0.64297  -0.63657  -0.62248
  Beta  occ. eigenvalues --   -0.61572  -0.59290  -0.58345  -0.57098  -0.56972
  Beta  occ. eigenvalues --   -0.56761  -0.53857  -0.52115  -0.51487  -0.49755
  Beta  occ. eigenvalues --   -0.49473  -0.48137  -0.46383  -0.44986  -0.44159
  Beta  occ. eigenvalues --   -0.44093  -0.43777  -0.42367  -0.41097  -0.39519
  Beta  occ. eigenvalues --   -0.38943  -0.38506  -0.38208  -0.37615  -0.35447
  Beta  occ. eigenvalues --   -0.34734  -0.34030
  Beta virt. eigenvalues --   -0.07274  -0.00835   0.06530   0.08370   0.09569
  Beta virt. eigenvalues --    0.10546   0.12785   0.13830   0.14881   0.15350
  Beta virt. eigenvalues --    0.15625   0.16295   0.16619   0.17183   0.17503
  Beta virt. eigenvalues --    0.17599   0.18158   0.18582   0.18921   0.19677
  Beta virt. eigenvalues --    0.20351   0.21577   0.22116   0.23935   0.25140
  Beta virt. eigenvalues --    0.25792   0.27517   0.28841   0.31185   0.31437
  Beta virt. eigenvalues --    0.32685   0.34454   0.35281   0.38566   0.39106
  Beta virt. eigenvalues --    0.43173   0.43577   0.44607   0.45966   0.47438
  Beta virt. eigenvalues --    0.48379   0.48931   0.49604   0.50768   0.51114
  Beta virt. eigenvalues --    0.52088   0.52925   0.53928   0.56088   0.56489
  Beta virt. eigenvalues --    0.59243   0.59761   0.60822   0.61064   0.62720
  Beta virt. eigenvalues --    0.63066   0.64933   0.65770   0.66874   0.67621
  Beta virt. eigenvalues --    0.68042   0.68718   0.68959   0.69322   0.69909
  Beta virt. eigenvalues --    0.70469   0.70611   0.71364   0.72013   0.72144
  Beta virt. eigenvalues --    0.72405   0.72877   0.73308   0.73480   0.74738
  Beta virt. eigenvalues --    0.75442   0.75815   0.76508   0.77481   0.77737
  Beta virt. eigenvalues --    0.79452   0.80526   0.81248   0.83401   0.83602
  Beta virt. eigenvalues --    0.85325   0.86066   0.88243   0.91801   0.93587
  Beta virt. eigenvalues --    0.94862   0.97527   1.00620   1.01322   1.05022
  Beta virt. eigenvalues --    1.05362   1.06780   1.08881   1.09724   1.10843
  Beta virt. eigenvalues --    1.12467   1.13695   1.15447   1.19816   1.20416
  Beta virt. eigenvalues --    1.21152   1.23169   1.23899   1.26579   1.28223
  Beta virt. eigenvalues --    1.29145   1.31154   1.32963   1.34902   1.37435
  Beta virt. eigenvalues --    1.40799   1.41522   1.43570   1.46074   1.48347
  Beta virt. eigenvalues --    1.51431   1.52649   1.55519   1.55969   1.56524
  Beta virt. eigenvalues --    1.58215   1.59708   1.61310   1.62980   1.63886
  Beta virt. eigenvalues --    1.64198   1.65705   1.66426   1.67814   1.69261
  Beta virt. eigenvalues --    1.70369   1.72859   1.73842   1.74527   1.76482
  Beta virt. eigenvalues --    1.77583   1.78120   1.78902   1.80666   1.81685
  Beta virt. eigenvalues --    1.82446   1.83068   1.83211   1.85385   1.86177
  Beta virt. eigenvalues --    1.87188   1.89042   1.89531   1.89756   1.91754
  Beta virt. eigenvalues --    1.92604   1.93917   1.94366   1.94696   1.95312
  Beta virt. eigenvalues --    1.96102   1.98064   1.98285   2.01142   2.01589
  Beta virt. eigenvalues --    2.03897   2.04036   2.05326   2.06471   2.07142
  Beta virt. eigenvalues --    2.08435   2.09559   2.11986   2.14550   2.15011
  Beta virt. eigenvalues --    2.16047   2.17462   2.17551   2.18652   2.21973
  Beta virt. eigenvalues --    2.23369   2.26278   2.28381   2.29844   2.31347
  Beta virt. eigenvalues --    2.33826   2.34678   2.35671   2.37714   2.38648
  Beta virt. eigenvalues --    2.41162   2.42375   2.44489   2.45560   2.46044
  Beta virt. eigenvalues --    2.51817   2.54624   2.56770   2.58972   2.61843
  Beta virt. eigenvalues --    2.62315   2.66344   2.68185   2.68556   2.69243
  Beta virt. eigenvalues --    2.69604   2.70533   2.71519   2.73703   2.75007
  Beta virt. eigenvalues --    2.75959   2.78192   2.82139   2.83622   2.84380
  Beta virt. eigenvalues --    2.85712   2.87391   2.89873   2.90214   2.92319
  Beta virt. eigenvalues --    2.93083   2.93332   2.95095   2.95979   2.96641
  Beta virt. eigenvalues --    3.00254   3.01589   3.03942   3.04944   3.08829
  Beta virt. eigenvalues --    3.09873   3.10451   3.15554   3.18573   3.22456
  Beta virt. eigenvalues --    3.26858   3.28190   3.30544   3.32266   3.37954
  Beta virt. eigenvalues --    3.49121   3.49656   3.68359   3.71163   3.73748
  Beta virt. eigenvalues --    3.76527
          Condensed to atoms (all electrons):
               1          2          3          4          5          6
     1  C    5.133667   0.288881  -0.019206   0.243667   0.367226  -0.022853
     2  C    0.288881   5.399735  -0.117518  -0.116304  -0.034155   0.006090
     3  C   -0.019206  -0.117518   5.444351   0.098997   0.010110  -0.027325
     4  C    0.243667  -0.116304   0.098997   5.655063  -0.012772   0.399449
     5  H    0.367226  -0.034155   0.010110  -0.012772   0.607587  -0.004004
     6  H   -0.022853   0.006090  -0.027325   0.399449  -0.004004   0.584766
     7  C   -0.115965   0.303567   0.373587  -0.058643   0.011001   0.005196
     8  H    0.007558  -0.023212  -0.013631   0.013797  -0.000268  -0.000244
     9  H    0.009560  -0.016410  -0.023478  -0.023396  -0.000530   0.000330
    10  C   -0.057448   0.193364  -0.031509  -0.024982   0.021650   0.001590
    11  H    0.004883  -0.044975   0.001269   0.010231  -0.000031  -0.000085
    12  C   -0.084699   0.088676   0.084302  -0.004120  -0.019846  -0.002977
    13  H    0.005728   0.002597  -0.020031  -0.016819   0.000259  -0.005238
    14  H   -0.015953   0.383480   0.005522   0.007472  -0.004289  -0.000173
    15  H    0.003875   0.005534   0.401601  -0.021870  -0.000232  -0.004228
    16  N   -0.043757  -0.005172  -0.005210  -0.005241   0.004202  -0.002052
    17  N    0.185118  -0.053983  -0.009880  -0.036015  -0.018055   0.000486
    18  C   -0.002625  -0.002286   0.009390   0.004660   0.000052   0.003085
    19  C   -0.060009  -0.004781  -0.000514   0.005913  -0.006072  -0.000274
    20  O    0.000755  -0.000002  -0.000003  -0.000087   0.000272  -0.000002
    21  O    0.002023   0.000238   0.006431  -0.012673  -0.000020  -0.000570
    22  O   -0.002655  -0.002157  -0.000099   0.000826   0.010915   0.000006
    23  O   -0.005355   0.000646  -0.006184   0.003010  -0.000150   0.005773
    24  C    0.000275  -0.000019   0.000022  -0.002877   0.000009   0.000908
    25  H   -0.000015   0.000000  -0.000034   0.000063  -0.000002  -0.000435
    26  H   -0.000072   0.000003  -0.000067   0.000264   0.000001   0.000254
    27  H    0.000591  -0.000045   0.001908  -0.002016   0.000009   0.001272
    28  C    0.000319  -0.000124   0.000000   0.000015   0.000050   0.000000
    29  H   -0.000119   0.000059   0.000001  -0.000008  -0.000215   0.000000
    30  H   -0.000112   0.000054  -0.000001   0.000006   0.000165   0.000000
    31  H    0.000107  -0.000021   0.000000   0.000009  -0.000108   0.000000
               7          8          9         10         11         12
     1  C   -0.115965   0.007558   0.009560  -0.057448   0.004883  -0.084699
     2  C    0.303567  -0.023212  -0.016410   0.193364  -0.044975   0.088676
     3  C    0.373587  -0.013631  -0.023478  -0.031509   0.001269   0.084302
     4  C   -0.058643   0.013797  -0.023396  -0.024982   0.010231  -0.004120
     5  H    0.011001  -0.000268  -0.000530   0.021650  -0.000031  -0.019846
     6  H    0.005196  -0.000244   0.000330   0.001590  -0.000085  -0.002977
     7  C    4.767021   0.373568   0.367657  -0.066290   0.000662  -0.089597
     8  H    0.373568   0.620188  -0.023339   0.012083   0.001229  -0.021035
     9  H    0.367657  -0.023339   0.631643   0.004439  -0.000169   0.015661
    10  C   -0.066290   0.012083   0.004439   5.297162   0.441006   0.176510
    11  H    0.000662   0.001229  -0.000169   0.441006   0.607117  -0.061674
    12  C   -0.089597  -0.021035   0.015661   0.176510  -0.061674   5.558077
    13  H    0.004761   0.000246  -0.000188  -0.028589  -0.003535   0.411899
    14  H   -0.021277  -0.002336  -0.001645  -0.020192  -0.003520   0.008399
    15  H   -0.023784  -0.001608  -0.001576   0.003217   0.000055  -0.011089
    16  N    0.008104   0.000142   0.008422   0.000184   0.000004  -0.000674
    17  N    0.001533  -0.000263  -0.005389   0.006993  -0.000171   0.011034
    18  C   -0.002172   0.000101   0.002089   0.000054  -0.000002  -0.000732
    19  C    0.001396  -0.000023  -0.001474  -0.000279  -0.000015   0.000192
    20  O    0.000013   0.000000  -0.000082  -0.000006   0.000000   0.000002
    21  O   -0.004513  -0.000012   0.005938  -0.000024   0.000000   0.000395
    22  O    0.000242  -0.000008   0.000082  -0.000435  -0.000007   0.000095
    23  O    0.000131   0.000000   0.000465  -0.000062   0.000000   0.001113
    24  C    0.000013  -0.000001  -0.000014   0.000001   0.000000  -0.000094
    25  H    0.000001   0.000000   0.000000   0.000000   0.000000  -0.000003
    26  H    0.000007   0.000000  -0.000010   0.000000   0.000000   0.000011
    27  H   -0.000084   0.000002   0.000011   0.000016   0.000000  -0.000517
    28  C    0.000010   0.000000  -0.000002   0.000009   0.000000  -0.000001
    29  H   -0.000003   0.000000   0.000000   0.000007   0.000000   0.000000
    30  H    0.000003   0.000000  -0.000003  -0.000011   0.000000   0.000001
    31  H    0.000001   0.000000   0.000000   0.000002   0.000000   0.000000
              13         14         15         16         17         18
     1  C    0.005728  -0.015953   0.003875  -0.043757   0.185118  -0.002625
     2  C    0.002597   0.383480   0.005534  -0.005172  -0.053983  -0.002286
     3  C   -0.020031   0.005522   0.401601  -0.005210  -0.009880   0.009390
     4  C   -0.016819   0.007472  -0.021870  -0.005241  -0.036015   0.004660
     5  H    0.000259  -0.004289  -0.000232   0.004202  -0.018055   0.000052
     6  H   -0.005238  -0.000173  -0.004228  -0.002052   0.000486   0.003085
     7  C    0.004761  -0.021277  -0.023784   0.008104   0.001533  -0.002172
     8  H    0.000246  -0.002336  -0.001608   0.000142  -0.000263   0.000101
     9  H   -0.000188  -0.001645  -0.001576   0.008422  -0.005389   0.002089
    10  C   -0.028589  -0.020192   0.003217   0.000184   0.006993   0.000054
    11  H   -0.003535  -0.003520   0.000055   0.000004  -0.000171  -0.000002
    12  C    0.411899   0.008399  -0.011089  -0.000674   0.011034  -0.000732
    13  H    0.598085  -0.000177  -0.004725  -0.000007  -0.000104   0.000034
    14  H   -0.000177   0.604210  -0.000186  -0.000289  -0.004659  -0.000004
    15  H   -0.004725  -0.000186   0.593094   0.000081   0.000285   0.000749
    16  N   -0.000007  -0.000289   0.000081   6.904290   0.205035   0.323306
    17  N   -0.000104  -0.004659   0.000285   0.205035   6.925141  -0.037870
    18  C    0.000034  -0.000004   0.000749   0.323306  -0.037870   4.387069
    19  C    0.000001   0.003964   0.000007  -0.040351   0.244691   0.003825
    20  O    0.000000  -0.000141   0.000000   0.001234  -0.094373   0.000198
    21  O   -0.000002  -0.000001   0.003400  -0.092262   0.002538   0.696121
    22  O    0.000000   0.005930   0.000000   0.002475  -0.106485  -0.000074
    23  O   -0.000007   0.000001  -0.000105  -0.112474   0.007478   0.351596
    24  C    0.000004   0.000000  -0.000018   0.005369  -0.000190  -0.029763
    25  H    0.000000   0.000000   0.000001  -0.000011  -0.000021   0.004389
    26  H    0.000000   0.000000  -0.000025   0.000307   0.000016  -0.006222
    27  H    0.000012   0.000000   0.000503   0.000214  -0.000133   0.000791
    28  C    0.000000  -0.000271   0.000000  -0.000142   0.004375   0.000004
    29  H    0.000000  -0.000114   0.000000   0.000004   0.000057   0.000000
    30  H    0.000000  -0.000156   0.000000   0.000006   0.000154   0.000001
    31  H    0.000000   0.000091   0.000000  -0.000019   0.000317  -0.000002
              19         20         21         22         23         24
     1  C   -0.060009   0.000755   0.002023  -0.002655  -0.005355   0.000275
     2  C   -0.004781  -0.000002   0.000238  -0.002157   0.000646  -0.000019
     3  C   -0.000514  -0.000003   0.006431  -0.000099  -0.006184   0.000022
     4  C    0.005913  -0.000087  -0.012673   0.000826   0.003010  -0.002877
     5  H   -0.006072   0.000272  -0.000020   0.010915  -0.000150   0.000009
     6  H   -0.000274  -0.000002  -0.000570   0.000006   0.005773   0.000908
     7  C    0.001396   0.000013  -0.004513   0.000242   0.000131   0.000013
     8  H   -0.000023   0.000000  -0.000012  -0.000008   0.000000  -0.000001
     9  H   -0.001474  -0.000082   0.005938   0.000082   0.000465  -0.000014
    10  C   -0.000279  -0.000006  -0.000024  -0.000435  -0.000062   0.000001
    11  H   -0.000015   0.000000   0.000000  -0.000007   0.000000   0.000000
    12  C    0.000192   0.000002   0.000395   0.000095   0.001113  -0.000094
    13  H    0.000001   0.000000  -0.000002   0.000000  -0.000007   0.000004
    14  H    0.003964  -0.000141  -0.000001   0.005930   0.000001   0.000000
    15  H    0.000007   0.000000   0.003400   0.000000  -0.000105  -0.000018
    16  N   -0.040351   0.001234  -0.092262   0.002475  -0.112474   0.005369
    17  N    0.244691  -0.094373   0.002538  -0.106485   0.007478  -0.000190
    18  C    0.003825   0.000198   0.696121  -0.000074   0.351596  -0.029763
    19  C    4.378835   0.733376  -0.000204   0.370128  -0.000168   0.000017
    20  O    0.733376   7.697760   0.000000  -0.080596  -0.000007   0.000000
    21  O   -0.000204   0.000000   7.755861   0.000000  -0.088483  -0.001872
    22  O    0.370128  -0.080596   0.000000   7.984025   0.000001   0.000000
    23  O   -0.000168  -0.000007  -0.088483   0.000001   8.023685   0.256561
    24  C    0.000017   0.000000  -0.001872   0.000000   0.256561   4.435876
    25  H    0.000002   0.000000   0.000765   0.000000  -0.021192   0.402400
    26  H    0.000003   0.000000   0.008067   0.000000  -0.025828   0.410076
    27  H    0.000002   0.000000   0.005271   0.000000  -0.033322   0.403859
    28  C   -0.027946  -0.002931   0.000000   0.257018   0.000000   0.000000
    29  H    0.004897   0.000744   0.000000  -0.022050   0.000000   0.000000
    30  H   -0.003589   0.005729   0.000000  -0.026951   0.000000   0.000000
    31  H   -0.004113   0.005537   0.000000  -0.025941   0.000000   0.000000
              25         26         27         28         29         30
     1  C   -0.000015  -0.000072   0.000591   0.000319  -0.000119  -0.000112
     2  C    0.000000   0.000003  -0.000045  -0.000124   0.000059   0.000054
     3  C   -0.000034  -0.000067   0.001908   0.000000   0.000001  -0.000001
     4  C    0.000063   0.000264  -0.002016   0.000015  -0.000008   0.000006
     5  H   -0.000002   0.000001   0.000009   0.000050  -0.000215   0.000165
     6  H   -0.000435   0.000254   0.001272   0.000000   0.000000   0.000000
     7  C    0.000001   0.000007  -0.000084   0.000010  -0.000003   0.000003
     8  H    0.000000   0.000000   0.000002   0.000000   0.000000   0.000000
     9  H    0.000000  -0.000010   0.000011  -0.000002   0.000000  -0.000003
    10  C    0.000000   0.000000   0.000016   0.000009   0.000007  -0.000011
    11  H    0.000000   0.000000   0.000000   0.000000   0.000000   0.000000
    12  C   -0.000003   0.000011  -0.000517  -0.000001   0.000000   0.000001
    13  H    0.000000   0.000000   0.000012   0.000000   0.000000   0.000000
    14  H    0.000000   0.000000   0.000000  -0.000271  -0.000114  -0.000156
    15  H    0.000001  -0.000025   0.000503   0.000000   0.000000   0.000000
    16  N   -0.000011   0.000307   0.000214  -0.000142   0.000004   0.000006
    17  N   -0.000021   0.000016  -0.000133   0.004375   0.000057   0.000154
    18  C    0.004389  -0.006222   0.000791   0.000004   0.000000   0.000001
    19  C    0.000002   0.000003   0.000002  -0.027946   0.004897  -0.003589
    20  O    0.000000   0.000000   0.000000  -0.002931   0.000744   0.005729
    21  O    0.000765   0.008067   0.005271   0.000000   0.000000   0.000000
    22  O    0.000000   0.000000   0.000000   0.257018  -0.022050  -0.026951
    23  O   -0.021192  -0.025828  -0.033322   0.000000   0.000000   0.000000
    24  C    0.402400   0.410076   0.403859   0.000000   0.000000   0.000000
    25  H    0.580152  -0.020149  -0.021793   0.000000   0.000000   0.000000
    26  H   -0.020149   0.597340  -0.031617   0.000000   0.000000   0.000000
    27  H   -0.021793  -0.031617   0.612046   0.000000   0.000000   0.000000
    28  C    0.000000   0.000000   0.000000   4.419465   0.403141   0.408406
    29  H    0.000000   0.000000   0.000000   0.403141   0.575672  -0.020729
    30  H    0.000000   0.000000   0.000000   0.408406  -0.020729   0.596109
    31  H    0.000000   0.000000   0.000000   0.408376  -0.020755  -0.029119
              31
     1  C    0.000107
     2  C   -0.000021
     3  C    0.000000
     4  C    0.000009
     5  H   -0.000108
     6  H    0.000000
     7  C    0.000001
     8  H    0.000000
     9  H    0.000000
    10  C    0.000002
    11  H    0.000000
    12  C    0.000000
    13  H    0.000000
    14  H    0.000091
    15  H    0.000000
    16  N   -0.000019
    17  N    0.000317
    18  C   -0.000002
    19  C   -0.004113
    20  O    0.005537
    21  O    0.000000
    22  O   -0.025941
    23  O    0.000000
    24  C    0.000000
    25  H    0.000000
    26  H    0.000000
    27  H    0.000000
    28  C    0.408376
    29  H   -0.020755
    30  H   -0.029119
    31  H    0.595893
          Atomic-Atomic Spin Densities.
               1          2          3          4          5          6
     1  C    0.040363   0.005487  -0.002109   0.009825  -0.001841   0.000481
     2  C    0.005487  -0.024093  -0.016434   0.014333  -0.003815   0.000107
     3  C   -0.002109  -0.016434   0.218457  -0.102920   0.002129   0.001076
     4  C    0.009825   0.014333  -0.102920   0.152085  -0.005175  -0.003480
     5  H   -0.001841  -0.003815   0.002129  -0.005175  -0.002090   0.000359
     6  H    0.000481   0.000107   0.001076  -0.003480   0.000359  -0.000761
     7  C   -0.012872   0.002965   0.017323  -0.017494   0.001248   0.000423
     8  H    0.000578   0.000445  -0.005176   0.001429  -0.000065  -0.000001
     9  H    0.002042   0.002336   0.002191   0.001441  -0.000122  -0.000017
    10  C   -0.019110  -0.045409  -0.033626  -0.028789   0.010866   0.000433
    11  H    0.000415   0.002080  -0.003350   0.002205  -0.000340  -0.000003
    12  C    0.004771  -0.003674   0.021160   0.013530  -0.000442   0.000327
    13  H   -0.000157   0.000183  -0.003772   0.003076  -0.000047  -0.000074
    14  H    0.001788   0.004532  -0.000329   0.000169  -0.000243   0.000001
    15  H   -0.000118   0.000010  -0.007690   0.004746  -0.000035  -0.000272
    16  N    0.004692   0.004942  -0.006165  -0.000228  -0.000568   0.000084
    17  N   -0.013192  -0.009307   0.005354  -0.004330   0.001135   0.000372
    18  C    0.001054  -0.000159   0.000502   0.000487   0.000159  -0.000026
    19  C   -0.001366   0.001644  -0.000142  -0.000404  -0.000937   0.000046
    20  O    0.000158   0.000029  -0.000002   0.000002  -0.000009   0.000000
    21  O   -0.000201  -0.000086   0.001146  -0.000287   0.000009  -0.000087
    22  O   -0.000918   0.000231  -0.000001   0.000023   0.000679  -0.000002
    23  O   -0.000118   0.000042  -0.000124  -0.000494  -0.000070  -0.000328
    24  C    0.000017  -0.000009   0.000101  -0.000016   0.000010  -0.000119
    25  H   -0.000002   0.000001  -0.000011   0.000008  -0.000001   0.000049
    26  H    0.000003   0.000000   0.000009  -0.000016   0.000000  -0.000015
    27  H   -0.000003   0.000004  -0.000117   0.000073  -0.000002   0.000166
    28  C    0.000010  -0.000001   0.000000  -0.000001   0.000013   0.000000
    29  H   -0.000012  -0.000003   0.000000   0.000000   0.000010   0.000000
    30  H    0.000009  -0.000012   0.000000   0.000000   0.000002   0.000000
    31  H   -0.000017   0.000006   0.000000   0.000000   0.000002   0.000000
               7          8          9         10         11         12
     1  C   -0.012872   0.000578   0.002042  -0.019110   0.000415   0.004771
     2  C    0.002965   0.000445   0.002336  -0.045409   0.002080  -0.003674
     3  C    0.017323  -0.005176   0.002191  -0.033626  -0.003350   0.021160
     4  C   -0.017494   0.001429   0.001441  -0.028789   0.002205   0.013530
     5  H    0.001248  -0.000065  -0.000122   0.010866  -0.000340  -0.000442
     6  H    0.000423  -0.000001  -0.000017   0.000433  -0.000003   0.000327
     7  C    0.104793  -0.004611  -0.007568  -0.043326  -0.001780   0.005288
     8  H   -0.004611   0.000042   0.002323   0.003973   0.000430  -0.000145
     9  H   -0.007568   0.002323  -0.005645   0.001529   0.000105  -0.000885
    10  C   -0.043326   0.003973   0.001529   1.263930  -0.002196  -0.059515
    11  H   -0.001780   0.000430   0.000105  -0.002196  -0.035599  -0.000446
    12  C    0.005288  -0.000145  -0.000885  -0.059515  -0.000446  -0.088127
    13  H   -0.000335   0.000032   0.000006  -0.002363   0.000229   0.002857
    14  H   -0.002812   0.000193   0.000164  -0.003306   0.000312   0.000208
    15  H   -0.000031   0.000351   0.000425   0.001627   0.000058  -0.000528
    16  N   -0.002456   0.000335   0.003267  -0.000524   0.000006   0.000285
    17  N    0.000844  -0.000420  -0.002998   0.002711  -0.000037  -0.000340
    18  C   -0.000053   0.000022  -0.000435   0.000042  -0.000001  -0.000011
    19  C    0.000147  -0.000003  -0.000040  -0.000151   0.000002   0.000035
    20  O   -0.000012   0.000001   0.000041  -0.000001   0.000000   0.000000
    21  O    0.000182  -0.000035  -0.000603   0.000007   0.000000  -0.000027
    22  O    0.000061   0.000001   0.000005   0.000069   0.000000  -0.000002
    23  O   -0.000014   0.000001   0.000027  -0.000004   0.000000  -0.000022
    24  C    0.000000   0.000000  -0.000003   0.000001   0.000000  -0.000009
    25  H    0.000000   0.000000   0.000000   0.000000   0.000000   0.000001
    26  H   -0.000001   0.000000   0.000000   0.000000   0.000000   0.000000
    27  H    0.000007   0.000000   0.000001  -0.000001   0.000000   0.000025
    28  C    0.000000   0.000000  -0.000001   0.000000   0.000000   0.000000
    29  H    0.000000   0.000000   0.000000   0.000004   0.000000   0.000000
    30  H    0.000000   0.000000   0.000000   0.000001   0.000000   0.000000
    31  H    0.000000   0.000000   0.000000   0.000000   0.000000   0.000000
              13         14         15         16         17         18
     1  C   -0.000157   0.001788  -0.000118   0.004692  -0.013192   0.001054
     2  C    0.000183   0.004532   0.000010   0.004942  -0.009307  -0.000159
     3  C   -0.003772  -0.000329  -0.007690  -0.006165   0.005354   0.000502
     4  C    0.003076   0.000169   0.004746  -0.000228  -0.004330   0.000487
     5  H   -0.000047  -0.000243  -0.000035  -0.000568   0.001135   0.000159
     6  H   -0.000074   0.000001  -0.000272   0.000084   0.000372  -0.000026
     7  C   -0.000335  -0.002812  -0.000031  -0.002456   0.000844  -0.000053
     8  H    0.000032   0.000193   0.000351   0.000335  -0.000420   0.000022
     9  H    0.000006   0.000164   0.000425   0.003267  -0.002998  -0.000435
    10  C   -0.002363  -0.003306   0.001627  -0.000524   0.002711   0.000042
    11  H    0.000229   0.000312   0.000058   0.000006  -0.000037  -0.000001
    12  C    0.002857   0.000208  -0.000528   0.000285  -0.000340  -0.000011
    13  H    0.001652   0.000002   0.000253   0.000000  -0.000004   0.000000
    14  H    0.000002  -0.000680   0.000010   0.000044  -0.000364  -0.000003
    15  H    0.000253   0.000010   0.000084  -0.000042  -0.000018  -0.000004
    16  N    0.000000   0.000044  -0.000042   0.812637  -0.173787   0.013985
    17  N   -0.000004  -0.000364  -0.000018  -0.173787   0.418918  -0.002815
    18  C    0.000000  -0.000003  -0.000004   0.013985  -0.002815  -0.006491
    19  C    0.000000   0.000092  -0.000002  -0.005599   0.021044  -0.001402
    20  O    0.000000   0.000011   0.000000   0.003138  -0.004189   0.000055
    21  O    0.000000   0.000000  -0.000108  -0.010305   0.000723  -0.002461
    22  O    0.000000  -0.000079   0.000000   0.000160  -0.002827   0.000020
    23  O    0.000000   0.000000   0.000016  -0.012861   0.003713  -0.015139
    24  C    0.000000   0.000000  -0.000005   0.000218  -0.000200   0.001607
    25  H    0.000000   0.000000  -0.000001  -0.000051   0.000032  -0.000252
    26  H    0.000000   0.000000   0.000003   0.000026  -0.000006   0.000087
    27  H   -0.000001   0.000000  -0.000019   0.000009   0.000018  -0.000169
    28  C    0.000000  -0.000006   0.000000  -0.000006  -0.000090   0.000000
    29  H    0.000000  -0.000002   0.000000   0.000000   0.000003   0.000000
    30  H    0.000000   0.000007   0.000000  -0.000004   0.000040   0.000000
    31  H    0.000000  -0.000002   0.000000  -0.000001   0.000010   0.000000
              19         20         21         22         23         24
     1  C   -0.001366   0.000158  -0.000201  -0.000918  -0.000118   0.000017
     2  C    0.001644   0.000029  -0.000086   0.000231   0.000042  -0.000009
     3  C   -0.000142  -0.000002   0.001146  -0.000001  -0.000124   0.000101
     4  C   -0.000404   0.000002  -0.000287   0.000023  -0.000494  -0.000016
     5  H   -0.000937  -0.000009   0.000009   0.000679  -0.000070   0.000010
     6  H    0.000046   0.000000  -0.000087  -0.000002  -0.000328  -0.000119
     7  C    0.000147  -0.000012   0.000182   0.000061  -0.000014   0.000000
     8  H   -0.000003   0.000001  -0.000035   0.000001   0.000001   0.000000
     9  H   -0.000040   0.000041  -0.000603   0.000005   0.000027  -0.000003
    10  C   -0.000151  -0.000001   0.000007   0.000069  -0.000004   0.000001
    11  H    0.000002   0.000000   0.000000   0.000000   0.000000   0.000000
    12  C    0.000035   0.000000  -0.000027  -0.000002  -0.000022  -0.000009
    13  H    0.000000   0.000000   0.000000   0.000000   0.000000   0.000000
    14  H    0.000092   0.000011   0.000000  -0.000079   0.000000   0.000000
    15  H   -0.000002   0.000000  -0.000108   0.000000   0.000016  -0.000005
    16  N   -0.005599   0.003138  -0.010305   0.000160  -0.012861   0.000218
    17  N    0.021044  -0.004189   0.000723  -0.002827   0.003713  -0.000200
    18  C   -0.001402   0.000055  -0.002461   0.000020  -0.015139   0.001607
    19  C   -0.003911  -0.011310  -0.000027  -0.002537   0.000292  -0.000009
    20  O   -0.011310   0.063632   0.000000   0.001358  -0.000007   0.000000
    21  O   -0.000027   0.000000   0.046541   0.000000  -0.001300   0.000157
    22  O   -0.002537   0.001358   0.000000   0.017410  -0.000001   0.000000
    23  O    0.000292  -0.000007  -0.001300  -0.000001   0.045972  -0.001751
    24  C   -0.000009   0.000000   0.000157   0.000000  -0.001751   0.002457
    25  H    0.000002   0.000000  -0.000008   0.000000   0.000078  -0.000349
    26  H   -0.000001   0.000000  -0.000259   0.000000  -0.000263   0.000635
    27  H    0.000001   0.000000  -0.000100   0.000000   0.000298  -0.000176
    28  C    0.000199  -0.000062   0.000000  -0.000435   0.000000   0.000000
    29  H   -0.000008  -0.000003   0.000000   0.000001   0.000000   0.000000
    30  H    0.000001  -0.000174   0.000000  -0.000037   0.000000   0.000000
    31  H    0.000080  -0.000201   0.000000  -0.000096   0.000000   0.000000
              25         26         27         28         29         30
     1  C   -0.000002   0.000003  -0.000003   0.000010  -0.000012   0.000009
     2  C    0.000001   0.000000   0.000004  -0.000001  -0.000003  -0.000012
     3  C   -0.000011   0.000009  -0.000117   0.000000   0.000000   0.000000
     4  C    0.000008  -0.000016   0.000073  -0.000001   0.000000   0.000000
     5  H   -0.000001   0.000000  -0.000002   0.000013   0.000010   0.000002
     6  H    0.000049  -0.000015   0.000166   0.000000   0.000000   0.000000
     7  C    0.000000  -0.000001   0.000007   0.000000   0.000000   0.000000
     8  H    0.000000   0.000000   0.000000   0.000000   0.000000   0.000000
     9  H    0.000000   0.000000   0.000001  -0.000001   0.000000   0.000000
    10  C    0.000000   0.000000  -0.000001   0.000000   0.000004   0.000001
    11  H    0.000000   0.000000   0.000000   0.000000   0.000000   0.000000
    12  C    0.000001   0.000000   0.000025   0.000000   0.000000   0.000000
    13  H    0.000000   0.000000  -0.000001   0.000000   0.000000   0.000000
    14  H    0.000000   0.000000   0.000000  -0.000006  -0.000002   0.000007
    15  H   -0.000001   0.000003  -0.000019   0.000000   0.000000   0.000000
    16  N   -0.000051   0.000026   0.000009  -0.000006   0.000000  -0.000004
    17  N    0.000032  -0.000006   0.000018  -0.000090   0.000003   0.000040
    18  C   -0.000252   0.000087  -0.000169   0.000000   0.000000   0.000000
    19  C    0.000002  -0.000001   0.000001   0.000199  -0.000008   0.000001
    20  O    0.000000   0.000000   0.000000  -0.000062  -0.000003  -0.000174
    21  O   -0.000008  -0.000259  -0.000100   0.000000   0.000000   0.000000
    22  O    0.000000   0.000000   0.000000  -0.000435   0.000001  -0.000037
    23  O    0.000078  -0.000263   0.000298   0.000000   0.000000   0.000000
    24  C   -0.000349   0.000635  -0.000176   0.000000   0.000000   0.000000
    25  H    0.001545  -0.000358   0.000390   0.000000   0.000000   0.000000
    26  H   -0.000358   0.000647  -0.000010   0.000000   0.000000   0.000000
    27  H    0.000390  -0.000010   0.000131   0.000000   0.000000   0.000000
    28  C    0.000000   0.000000   0.000000  -0.001928   0.000067   0.000248
    29  H    0.000000   0.000000   0.000000   0.000067  -0.000015   0.000018
    30  H    0.000000   0.000000   0.000000   0.000248   0.000018   0.000775
    31  H    0.000000   0.000000   0.000000   0.000225  -0.000037   0.000005
              31
     1  C   -0.000017
     2  C    0.000006
     3  C    0.000000
     4  C    0.000000
     5  H    0.000002
     6  H    0.000000
     7  C    0.000000
     8  H    0.000000
     9  H    0.000000
    10  C    0.000000
    11  H    0.000000
    12  C    0.000000
    13  H    0.000000
    14  H   -0.000002
    15  H    0.000000
    16  N   -0.000001
    17  N    0.000010
    18  C    0.000000
    19  C    0.000080
    20  O   -0.000201
    21  O    0.000000
    22  O   -0.000096
    23  O    0.000000
    24  C    0.000000
    25  H    0.000000
    26  H    0.000000
    27  H    0.000000
    28  C    0.000225
    29  H   -0.000037
    30  H    0.000005
    31  H    0.001051
 Mulliken charges and spin densities:
               1          2
     1  C    0.176611   0.019658
     2  C   -0.251764  -0.063627
     3  C   -0.162800   0.087483
     4  C   -0.105617   0.039797
     5  H    0.067238   0.000819
     6  H    0.061257  -0.001259
     7  C    0.163854   0.039916
     8  H    0.057069  -0.000302
     9  H    0.051407  -0.002414
    10  C    0.071541   1.046870
    11  H    0.047727  -0.037911
    12  C   -0.059307  -0.105687
    13  H    0.055794   0.001538
    14  H    0.056312  -0.000293
    15  H    0.057046  -0.001290
    16  N   -0.155719   0.631232
    17  N   -0.227660   0.239994
    18  C    0.294238  -0.011400
    19  C    0.402561  -0.004266
    20  O   -0.267392   0.052454
    21  O   -0.286415   0.032871
    22  O   -0.364285   0.013083
    23  O   -0.357124   0.017944
    24  C    0.119457   0.002558
    25  H    0.075881   0.001072
    26  H    0.067644   0.000481
    27  H    0.063021   0.000524
    28  C    0.130232  -0.001768
    29  H    0.079412   0.000022
    30  H    0.070036   0.000876
    31  H    0.069745   0.001025
 Sum of Mulliken charges =   0.00000   2.00000
 Mulliken charges and spin densities with hydrogens summed into heavy atoms:
               1          2
     1  C    0.243849   0.020477
     2  C   -0.195452  -0.063920
     3  C   -0.105754   0.086193
     4  C   -0.044361   0.038538
     7  C    0.272329   0.037200
    10  C    0.119268   1.008960
    12  C   -0.003513  -0.104150
    16  N   -0.155719   0.631232
    17  N   -0.227660   0.239994
    18  C    0.294238  -0.011400
    19  C    0.402561  -0.004266
    20  O   -0.267392   0.052454
    21  O   -0.286415   0.032871
    22  O   -0.364285   0.013083
    23  O   -0.357124   0.017944
    24  C    0.326003   0.004634
    28  C    0.349425   0.000156
 Electronic spatial extent (au):  <R**2>=           3665.3536
 Charge=              0.0000 electrons
 Dipole moment (field-independent basis, Debye):
[...]
 0.00000094,-0.00001241,0.00000209,-0.00003677,-0.00003455,0.00002271,0
 .00000109,-0.00001360,-0.00000114,-0.00000479,0.00000036,-0.00000369,-
 0.00000801,0.00000727,-0.00000112,-0.00052871,-0.00005599,-0.00067647,
 -0.00030640,-0.00001607,0.00009486,0.00037888,0.00079864,0.00322432,0.
 00055387,-0.00017557,0.00003473,-0.00015996,0.00013398,-0.00005910,-0.
 00054796,-0.00042440,-0.00066829,-0.00020726,-0.00006113,0.00007148,-0
 .00398134,-0.00268113,-0.00790715,0.01048766,-0.07947268,-0.31704325,-
 0.00606608,0.08697459,0.33369942,0.00008675,0.00036604,-0.00005365,0.0
 0004679,0.00000119,0.00006621,-0.00000556,0.00013977,0.00003425,0.0000
 8874,-0.00034123,0.00005019,0.00000831,-0.00004737,0.00001541,-0.00021
 819,-0.00001581,-0.00009708,0.00000572,0.00000141,-0.00001987,0.000000
 21,-0.00001904,-0.00000474,0.00000607,0.00001368,0.00003037,0.00001740
 ,-0.00003638,-0.00001121,-0.00000691,-0.00001503,-0.00000070,-0.000059
 29,-0.00005342,0.00005245,0.00000108,-0.00002489,-0.00000805,-0.000004
 80,0.00000240,-0.00000342,-0.00001546,-0.00001135,-0.00001622,-0.00110
 039,0.00047902,-0.00091944,-0.00000041,0.00004591,-0.00020183,0.000633
 09,0.00160968,0.00968126,0.00073472,-0.00020428,0.00002846,-0.00024197
 ,0.00017503,-0.00005972,0.00178902,-0.00001967,-0.00231794,-0.00028653
 ,-0.00008334,0.00009732,-0.03112676,-0.02836583,0.00929658,-0.08769362
 ,-0.07189747,0.06041956,0.00110148,0.00039595,0.00013362,0.10776843,0.
 00006523,-0.00004587,-0.00005614,-0.00003315,0.00001368,-0.00000471,-0
 .00000664,0.00005946,0.00001083,-0.00003985,0.00012264,0.00006182,-0.0
 0000026,0.00000311,-0.00000045,0.00022371,0.00021701,-0.00011788,0.000
 01050,-0.00002396,0.00000121,-0.00000765,-0.00000287,-0.00000812,-0.00
 001007,0.00000020,-0.00000392,0.00001387,-0.00000927,-0.00000148,-0.00
 000686,-0.00000466,-0.00000485,-0.00004339,-0.00000221,-0.00000063,-0.
 00000002,-0.00000650,-0.00000159,-0.00000326,-0.00001053,-0.00000859,-
 0.00000306,0.00000701,0.00000212,-0.00008760,-0.00025347,-0.00026963,0
 .00007076,-0.00001167,-0.00009190,-0.00149772,0.00128759,0.00431233,0.
 00008380,0.00000923,0.00002318,-0.00003119,0.00001881,-0.00001101,0.00
 236889,0.00030450,-0.00040186,-0.00002595,-0.00000302,0.00000562,-0.00
 597626,0.00023941,-0.00371145,-0.07719371,-0.19133629,0.11616903,0.005
 31952,0.00885923,-0.00617392,0.08734344,0.19629920,0.00005142,0.000011
 54,0.00002351,-0.00000990,0.00002001,0.00000243,0.00000646,0.00002497,
 -0.00000601,-0.00003477,-0.00003466,0.00002281,0.00000944,-0.00001285,
 0.00000436,0.00003000,0.00000118,-0.00002283,0.00000434,0.00000648,0.0
 0000129,0.00000353,0.00000109,-0.00000117,-0.00001896,-0.00000228,-0.0
 0000654,0.00000549,0.00000319,-0.00000498,-0.00000056,-0.00000104,0.00
 000189,0.00001516,0.00000602,0.00002726,0.00000310,-0.00000360,-0.0000
 0482,-0.00000018,-0.00000388,-0.00000171,0.00001013,-0.00000747,-0.000
 00078,-0.00024334,0.00086617,-0.00058849,0.00020643,0.00005691,0.00003
 062,-0.00193806,-0.00138025,0.00262497,0.00008475,-0.00002303,-0.00004
 640,-0.00003555,0.00001889,0.00000520,0.00022372,-0.00020871,-0.000935
 57,-0.00002450,-0.00001564,0.00001203,-0.00690666,-0.01166137,0.007629
 94,0.06717729,0.12113560,-0.14803141,0.01007220,0.02097795,-0.01176238
 ,-0.06726927,-0.12539113,0.14835679,-0.00016045,0.00039315,-0.00012777
 ,0.00012023,-0.00004405,0.00014679,0.00005291,-0.00006407,-0.00009043,
 -0.00002127,-0.00008951,-0.00012270,0.00004179,-0.00005828,0.00002299,
 -0.00079177,-0.00050836,0.00018032,-0.00003924,0.00005244,-0.00002253,
 0.00003267,-0.00001066,0.00001752,0.00001758,0.00001406,0.00004655,-0.
 00005186,0.00002102,-0.00004109,0.00002771,-0.00000818,0.00002318,0.00
 015435,-0.00003252,0.00004623,0.00000656,-0.00000432,-0.00001023,0.000
 00424,0.00001865,0.00001071,0.00001556,-0.00002431,-0.00001629,-0.0009
 5737,-0.00080609,-0.00090028,-0.00058801,0.00001813,0.00008001,0.00072
 608,0.00372450,0.00935944,0.00092374,-0.00028179,0.00007666,-0.0002295
 3,0.00020807,-0.00010286,0.00173847,-0.00063602,-0.00218094,-0.0003069
 0,-0.00011309,0.00011357,-0.03462103,0.02388792,-0.00727833,-0.1090762
 0,0.11071813,0.01396281,0.00142927,-0.00034213,0.00029432,0.00842183,-
 0.01054056,-0.00142867,0.13308105,-0.00006424,-0.00003349,-0.00002929,
 -0.00001561,0.00001392,0.00001321,0.00002780,-0.00013859,-0.00004310,-
 0.00029836,0.00036596,-0.00024488,0.00003235,-0.00001102,0.00000984,-0
 .00002856,0.00012928,0.00029423,-0.00002016,0.00004809,-0.00001230,0.0
 0002162,0.00000452,0.00001298,0.00000285,0.00000199,0.00000812,-0.0000
 3302,0.00005147,-0.00000288,0.00002149,0.00000229,0.00000800,0.0001827
 7,0.00002667,0.00001821,0.00000978,0.00000810,-0.00000377,0.00000253,-
 0.00000534,0.00000083,0.00010058,0.00003725,-0.00000077,-0.00030284,-0
 .00046440,0.00027214,-0.00016736,-0.00009389,0.00003342,0.00030966,0.0
 0066178,-0.00213134,0.00001922,-0.00002166,0.00000610,0.00000610,0.000
 00241,-0.00000399,-0.00122317,0.00013821,0.00004811,-0.00000025,-0.000
 00335,0.00000145,-0.00313556,0.01234957,0.00217194,0.11754950,-0.26091
 814,-0.02539906,0.00191722,-0.00446827,0.00121258,0.01057120,-0.015730
 56,-0.00438404,-0.12548210,0.26804792,-0.00001685,0.00000126,-0.000064
 30,-0.00000446,0.00000484,0.00002806,-0.00003264,0.00000520,-0.0000498
 2,0.00009785,0.00013065,0.00014305,0.00001215,-0.00001232,0.00000685,0
 .00012632,0.00007846,-0.00000654,-0.00000715,0.00000204,-0.00002140,0.
 00000550,-0.00000247,-0.00000136,-0.00000249,0.00000587,0.00000863,0.0
 0000885,0.00000294,-0.00002125,0.00000055,-0.00000543,0.00000244,-0.00
 000320,0.00001113,-0.00000188,0.00000243,-0.00000056,-0.00000402,-0.00
 000115,-0.00000627,-0.00000755,0.00006512,-0.00008758,-0.00004190,-0.0
 0033621,-0.00052342,-0.00031925,-0.00018236,-0.00003101,0.00009289,-0.
 00213110,0.00225059,0.00338900,0.00027143,-0.00007620,0.00002910,-0.00
 006526,0.00006832,-0.00003592,0.00145546,0.00011001,-0.00026860,-0.000
 08326,-0.00002657,0.00002742,-0.00937130,0.00843574,-0.00124725,0.0169
 9864,-0.02945490,-0.05406307,0.01416090,-0.02469831,0.00106871,-0.0089
 2261,0.01567569,0.00266968,-0.01206057,0.02814384,0.04869046,-0.000349
 57,0.00153540,-0.00076861,-0.00018272,0.00000937,0.00026099,0.00030436
 ,0.00023331,-0.00000460,-0.00010468,-0.00034871,-0.00050358,-0.0005183
 5,0.00026120,-0.00083431,0.00019599,-0.00001815,-0.00007061,0.00002324
 ,-0.00014463,-0.00000337,0.00011318,-0.00014985,-0.00005844,0.00000127
 ,0.00000955,0.00018672,0.00000410,0.00007728,-0.00018254,0.00008570,-0
 .00015969,0.00001263,0.00011542,-0.00016387,0.00030913,0.00008065,-0.0
 0008951,-0.00003419,0.00017497,0.00063722,0.00050255,0.00006727,-0.000
 07536,-0.00002676,0.00317592,-0.00052401,0.00024421,0.00829235,-0.0006
 7005,0.00084827,-0.00453205,-0.00060851,-0.00123335,-0.06192428,-0.023
 30919,0.02405382,0.00207649,0.01580323,-0.01098827,0.00207407,0.000294
 60,-0.00058995,-0.21256785,0.03556198,0.00039678,0.00135449,0.00052017
 ,0.00135158,-0.00060655,-0.00016143,-0.00018640,0.00008989,0.00001951,
 0.00007007,0.00009578,0.00001290,0.00001131,0.00009791,-0.00000383,0.0
 0002968,0.48651734,0.00017089,-0.00075966,0.00072357,0.00000626,0.0000
 8395,0.00002086,0.00009396,-0.00003224,-0.00002924,0.00004934,0.000233
 92,-0.00014907,0.00038112,-0.00012646,-0.00023648,0.00001145,-0.000015
 48,0.00000679,0.00002120,-0.00002425,0.00001318,-0.00000007,0.00001591
 ,-0.00000514,0.00000241,-0.00000998,-0.00003695,0.00002743,0.00003023,
 0.00000098,-0.00000907,0.00001376,-0.00000443,-0.00006904,0.00003599,-
 0.00002916,-0.00000311,0.00002046,0.00001094,0.00007843,-0.00005379,-0
 .00002345,0.00000123,-0.00001572,-0.00000569,-0.00219706,0.00035230,0.
 00049650,-0.00215233,-0.00173161,0.00408368,0.00078441,0.00006347,0.00
 023809,-0.02686404,0.00847311,-0.00178469,-0.00412740,-0.00324339,0.00
 021269,-0.00046478,-0.00003332,0.00013970,0.05986358,-0.09408936,0.008
 01877,-0.00026865,-0.00009614,-0.00023353,0.00010921,0.00001433,0.0000
 2041,-0.00001994,-0.00000414,-0.00001276,-0.00001926,-0.00000145,-0.00
 000083,-0.00001825,-0.00000065,-0.00000432,0.04593168,0.62701001,-0.00
 040578,0.00028000,-0.00060964,-0.00001383,-0.00011759,-0.00012138,-0.0
 0012997,-0.00002103,0.00000184,-0.00006704,-0.00003020,0.00032743,-0.0
 0012140,-0.00018867,0.00049013,-0.00002150,0.00001349,-0.00000561,-0.0
 0000306,0.00002319,0.00000757,-0.00001270,0.00000467,0.00001555,0.0000
 0077,-0.00000703,0.00000019,0.00001096,0.00000532,-0.00000496,-0.00000
 954,0.00001381,0.00000505,0.00003467,-0.00001897,-0.00003534,-0.000006
 31,0.00001124,0.00000494,0.00007880,-0.00005757,-0.00001047,-0.0000061
 0,0.00003652,0.00001816,0.00071924,0.00048805,0.00114767,0.00089527,0.
 00405559,0.00116735,0.00021304,-0.00012301,-0.00036062,0.02623749,-0.0
 0211178,-0.00394560,0.00185362,-0.00315862,-0.00239107,0.00014251,0.00
 001472,-0.00001415,-0.01446230,0.01200457,-0.06970858,-0.00007381,-0.0
 0001752,0.00001368,0.00000669,0.00001013,-0.00000820,-0.00000364,0.000
 00002,-0.00000069,0.00000027,-0.00000252,0.00000037,-0.00000012,-0.000
 00001,-0.00000270,-0.00966931,-0.01733889,0.62075182,0.00008540,-0.000
 36099,0.00021734,-0.00000581,0.00001239,-0.00004740,-0.00000321,-0.000
 03452,-0.00000962,0.00002931,0.00007677,0.00001452,0.00004440,-0.00000
 475,0.00003249,-0.00001787,-0.00000243,0.00001136,0.00000400,0.0000039
 2,0.00002015,-0.00001039,0.00001989,0.00000184,0.00000169,-0.00000039,
 -0.00003169,0.00000690,0.00000724,0.00001762,-0.00000927,0.00001714,-0
 .00000267,-0.00001957,0.00002770,-0.00003752,-0.00000669,0.00001363,0.
 00000577,-0.00001578,-0.00004342,-0.00002711,-0.00000497,0.00000460,0.
 00000228,-0.00094721,0.00010475,-0.00015021,-0.00101772,-0.00108767,0.
 00088212,0.00069921,0.00011448,0.00026725,-0.00315807,0.00572628,-0.00
 291935,0.00151045,-0.00128427,0.00065305,-0.00037526,-0.00004980,0.000
 10085,-0.03135278,-0.02509139,0.02099352,-0.00021302,-0.00007960,-0.00
 021554,0.00009373,0.00002219,0.00002588,-0.00001457,-0.00000326,-0.000
 01088,-0.00001509,-0.00000142,-0.00000133,-0.00001564,0.00000004,-0.00
 000408,-0.09917649,-0.08629679,0.06341374,0.12375430,-0.00003885,0.000
 01873,-0.00003775,0.00000603,-0.00000354,0.00000005,-0.00001288,-0.000
 00506,0.00000230,0.00000047,-0.00000095,0.00001987,-0.00001722,0.00000
 384,0.00004517,-0.00000396,0.00000071,0.00000095,-0.00000244,0.0000038
 3,-0.00000298,-0.00000220,0.00000218,0.00000144,-0.00000002,-0.0000000
 3,-0.00000193,-0.00000437,-0.00000216,0.00000316,-0.00000165,0.0000023
 0,0.00000025,0.00000041,0.00000231,-0.00000618,-0.00000154,0.00000124,
 0.00000029,-0.00001206,-0.00001325,-0.00001999,-0.00000208,0.00000295,
 0.00000089,0.00008902,0.00003897,0.00003483,0.00004458,0.00040496,-0.0
 0019224,0.00008198,0.00000754,-0.00002461,0.00324592,-0.00079973,0.000
 15688,-0.00142180,0.00064704,0.00012841,-0.00000728,-0.00000260,0.0000
 0681,0.00936057,0.00918014,-0.00728682,-0.00002237,-0.00000770,-0.0000
 1849,0.00000730,0.00000211,0.00000192,-0.00000119,-0.00000028,-0.00000
 077,-0.00000111,-0.00000043,-0.00000024,-0.00000100,0.00000009,-0.0000
 0046,-0.09875112,-0.20603356,0.11532638,0.09739047,0.20821764,0.000019
 63,0.00004543,-0.00000110,0.00000133,0.00000598,0.00001359,0.00000720,
 0.00000846,0.00000089,-0.00000120,-0.00001417,-0.00002205,-0.00000760,
 0.00000858,-0.00004506,0.00000375,-0.00000012,-0.00000222,-0.00000274,
 -0.00000144,-0.00000334,0.00000231,-0.00000393,-0.00000112,-0.00000037
 ,0.00000099,0.00000577,-0.00000041,-0.00000117,-0.00000180,0.00000202,
 -0.00000347,0.00000009,0.00000048,-0.00000419,0.00000963,0.00000123,-0
 .00000312,-0.00000130,0.00001076,0.00000102,-0.00000110,0.00000141,-0.
 00000323,-0.00000181,0.00005185,-0.00002445,0.00006950,0.00018408,0.00
 002779,0.00015638,-0.00013444,-0.00003898,-0.00004998,-0.00156194,-0.0
 0029316,0.00059355,0.00068809,0.00010645,0.00033067,0.00006362,0.00001
 170,-0.00001703,-0.00104964,-0.00188705,0.00150174,0.00003330,0.000014
 45,0.00003718,-0.00001601,-0.00000440,-0.00000583,0.00000216,0.0000004
 8,0.00000177,0.00000261,0.00000034,0.00000044,0.00000261,0.00000005,0.
 00000075,0.07154802,0.11340901,-0.13615911,-0.07562457,-0.12112023,0.1
 3494944,0.00006426,-0.00028569,-0.00004657,-0.00001479,-0.00004404,-0.
 00009626,-0.00006434,-0.00004491,-0.00000618,-0.00000245,0.00003987,0.
 00015401,0.00007259,-0.00009383,0.00023906,-0.00002949,0.00000504,0.00
 001039,0.00000279,0.00002284,0.00002285,-0.00001820,0.00002285,0.00001
 019,0.00000104,-0.00000271,-0.00003095,0.00001113,0.00000706,0.0000236
 3,-0.00001283,0.00002447,-0.00000003,0.00000115,0.00001547,-0.00004824
 ,-0.00000974,0.00001678,0.00000636,-0.00001642,-0.00005429,-0.00004735
 ,-0.00000759,0.00002015,0.00001030,-0.00048399,0.00019522,0.00011841,-
 0.00114894,0.00035827,0.00071893,0.00075726,0.00005793,0.00016548,0.00
 455101,0.00697768,-0.00705679,0.00082267,-0.00247661,0.00171370,-0.000
 31484,-0.00004219,0.00008781,-0.03241790,0.00074309,-0.02976236,-0.000
 22785,-0.00008220,-0.00020880,0.00009636,0.00002825,0.00002570,-0.0000
 1508,-0.00000304,-0.00001115,-0.00001468,-0.00000216,-0.00000135,-0.00
 001588,-0.00000003,-0.00000527,-0.07410860,-0.00044973,-0.07645154,0.0
 0695022,0.00133243,0.01333775,0.09270819,0.00004660,0.00009698,0.00000
 551,0.00003003,0.00002110,0.00003902,0.00002189,0.00001479,0.00000201,
 -0.00000355,-0.00004027,-0.00004673,-0.00001338,0.00001976,-0.00006990
 ,0.00001018,-0.00000012,-0.00000366,-0.00000424,-0.00000664,-0.0000098
 6,0.00000589,-0.00000752,-0.00000391,-0.00000055,0.00000261,0.00001071
 ,-0.00000706,-0.00000996,-0.00000552,0.00000465,-0.00000883,-0.0000001
 7,0.00000282,-0.00000642,0.00001705,0.00000306,-0.00000783,-0.00000380
 ,-0.00000248,0.00001483,0.00000772,0.00000274,-0.00000790,-0.00000444,
 0.00017742,-0.00005259,-0.00001166,0.00034807,-0.00017403,0.00012420,-
 0.00026341,-0.00004084,-0.00006194,-0.00252726,0.00031609,-0.00016084,
 0.00105464,-0.00000210,-0.00022241,0.00011868,0.00001469,-0.00003546,0
 .00805821,0.00026819,0.00856530,0.00007826,0.00003106,0.00007501,-0.00
 003492,-0.00000732,-0.00001059,0.00000527,0.00000122,0.00000398,0.0000
 0571,0.00000083,0.00000062,0.00000522,-0.00000027,0.00000158,-0.000675
 26,-0.05049587,0.00106950,0.00832483,0.00214254,0.02004478,-0.00540414
 ,0.04545694,0.00003825,-0.00003248,-0.00006344,0.00003269,0.00000720,0
 .00000777,-0.00001252,-0.00000396,0.00000003,0.00000292,0.00000063,0.0
 0002082,0.00000702,-0.00000655,0.00004610,-0.00000640,0.00000152,0.000
 00157,0.00000067,0.00001007,-0.00001186,-0.00000321,0.00000169,0.00000
 387,-0.00000102,-0.00000298,0.00000097,0.00000050,-0.00001123,0.000009
 37,-0.00000245,0.00000452,0.,-0.00000261,-0.00000221,-0.00000327,-0.00
 000320,0.00000034,-0.00000011,-0.00003315,-0.00002317,-0.00002948,-0.0
 0000265,0.00000193,0.00000059,-0.00006340,-0.00006487,0.00001469,0.000
 11129,-0.00048210,-0.00041588,-0.00000084,0.00001693,0.00002062,0.0017
 0920,0.00202636,0.00026304,0.00084213,-0.00062028,0.00028631,-0.000023
 48,-0.00000204,0.00000776,-0.00211924,0.00128367,0.00886217,-0.0000034
 6,-0.00000470,-0.00000434,0.00000613,-0.00000059,0.00000341,-0.0000004
 0,-0.00000024,-0.00000038,-0.00000137,-0.00000021,-0.00000011,0.000000
 40,0.00000008,0.00000005,-0.08684657,0.00162578,-0.30645693,-0.0045976
 0,-0.00242012,-0.01057090,0.09391561,-0.00364928,0.31734096,0.00019729
 ,-0.00024284,0.00010412,0.00005081,0.00001794,-0.00002002,-0.00006571,
 -0.00003861,0.00000668,0.00001671,0.00001253,0.00008804,0.00000164,0.0
 0001651,0.00015766,-0.00003676,0.00000395,0.00001448,-0.00000771,0.000
 02685,-0.00000509,-0.00002060,0.00002692,0.00000882,0.00000020,0.00000
 209,-0.00003269,-0.00001543,-0.00002241,0.00003960,-0.00001366,0.00002
 682,-0.00000232,-0.00001057,0.00003238,-0.00005272,-0.00001445,0.00001
 082,0.00000327,-0.00006181,-0.00013104,-0.00011309,-0.00001211,0.00001
 345,0.00000338,-0.00038012,0.00004896,-0.00031495,-0.00146455,-0.00052
 175,-0.00054871,0.00076742,0.00012506,0.00029641,0.00491218,0.00834261
 ,-0.00362688,0.00017334,-0.00250846,0.00126838,-0.00037079,-0.00005829
 ,0.00009173,-0.02349912,0.03310262,0.01908125,-0.00021851,-0.00008487,
 -0.00023441,0.00010263,0.00002994,0.00003336,-0.00001442,-0.00000312,-
 0.00001196,-0.00001575,-0.00000185,-0.00000167,-0.00001678,0.00000037,
 -0.00000489,-0.05086930,0.01542693,0.00785084,0.00319979,-0.01125402,-
 0.00756528,0.00288493,-0.00936791,-0.00294323,0.06480123,-0.00007113,0
 .00005977,-0.00006671,-0.00001150,0.00001157,0.00001706,0.00003136,0.0
 0001723,-0.00000461,-0.00001472,-0.00000915,-0.00003717,-0.00003082,0.
 00002330,-0.00007922,0.00001857,-0.00000476,-0.00000426,0.00000368,-0.
 00001514,0.00001402,0.00000927,-0.00000764,-0.00000568,-0.00000024,0.0
 0000247,0.00000655,0.00000364,0.00000846,-0.00001636,0.00000591,-0.000
 01081,0.00000195,0.00000546,-0.00001123,0.00002452,0.00000680,-0.00000
 593,-0.00000295,0.00001683,0.00006469,0.00005442,0.00000572,-0.0000070
 7,-0.00000190,0.00025895,0.00002983,0.00004517,0.00018454,-0.00018679,
 -0.00045635,-0.00020876,-0.00003495,-0.00007560,-0.00295103,-0.0012230
 4,0.00278940,-0.00054986,0.00082684,-0.00046956,0.00010860,0.00001370,
 -0.00003174,0.00963099,-0.00226122,-0.00120213,0.00005721,0.00002758,0
 .00006085,-0.00002965,-0.00000873,-0.00001044,0.00000440,0.00000092,0.
 00000370,0.00000504,0.00000082,0.00000039,0.00000400,0.00000010,0.0000
 0169,0.02494575,-0.27958034,-0.11016378,0.00247439,-0.01380984,-0.0102
 8240,-0.00088183,0.00246688,0.00234628,-0.03303158,0.29362245,-0.00009
 466,-0.00001553,-0.00000931,-0.00000706,0.00001547,-0.00000577,0.00000
 058,-0.00000388,-0.00000179,-0.00000198,0.00002222,-0.00000731,-0.0000
 1147,0.00002140,0.00000544,-0.00000209,-0.00000068,0.00000082,-0.00000
 041,-0.00000114,0.00000350,-0.00000009,0.00000173,0.00000119,-0.000000
 32,-0.00000044,-0.00000188,-0.00000044,0.00000140,0.00000004,-0.000000
 46,0.00000210,0.00000031,-0.00000453,0.00000464,-0.00000499,-0.0000011
 7,0.00000248,0.00000132,-0.00000096,-0.00000763,-0.00000322,-0.0000008
 9,0.00000037,0.00000062,-0.00000390,0.00003538,-0.00002474,-0.00007765
 ,0.00023324,-0.00019857,0.00006564,0.00001767,0.00000266,0.00063013,-0
 .00280669,0.00175422,-0.00138358,0.00086673,-0.00030237,-0.00002565,-0
 .00000283,0.00001007,0.00209954,0.00346824,0.00217724,-0.00002073,-0.0
 0000935,-0.00001922,0.00000870,0.00000049,0.00000297,-0.00000124,-0.00
 000044,-0.00000085,-0.00000145,-0.00000015,-0.00000038,-0.00000131,0.0
 0000030,-0.00000028,0.01217509,-0.10912632,-0.10411667,-0.00298019,0.0
 1540321,0.00921236,0.00321266,-0.02566683,-0.00933338,-0.01357011,0.11
 754487,0.10085798\\-0.00000520,0.00001042,-0.00000302,0.00000041,-0.00
 000105,-0.00000017,-0.00000366,0.00000062,0.00000762,0.00000228,-0.000
 00480,-0.00000050,-0.00000243,0.00000298,0.00000214,-0.00000376,0.0000
 0005,0.00000243,-0.00000434,-0.00000533,0.00000618,-0.00000137,-0.0000
 0349,0.00000239,0.00000041,-0.00000508,0.00000121,-0.00001089,-0.00000
 556,0.00000576,-0.00000678,0.00000182,0.00000704,-0.00000189,0.0000053
 4,-0.00000026,-0.00000909,-0.00000578,0.00000671,-0.00000391,0.0000038
 2,0.00000155,-0.00000332,-0.00000750,0.00000192,0.00000453,-0.00000206
 ,0.00000244,-0.00000151,0.00000185,-0.00000757,0.00001076,-0.00000772,
 -0.00002394,0.00001853,0.00000344,-0.00000366,0.00000163,0.00000499,-0
 .00000484,-0.00000500,-0.00001037,0.00000875,-0.00001251,0.00000419,0.
 00000177,0.00000964,0.00000511,0.00001090,-0.00000254,-0.00000768,-0.0
 0000876,0.00000531,-0.00000283,0.00000179,0.00000545,-0.00000676,-0.00
 000017,0.00000325,-0.00000584,-0.00000027,0.00001519,0.00000869,-0.000
 00685,-0.00000288,0.00000939,-0.00000172,0.00000147,0.00000926,-0.0000
 0342,0.00000223,0.00000989,-0.00000546\\\@


 ERROR IS A HARDY PLANT... IT FLOURISHETH IN EVERY SOIL.
            MARTIN FARQUHAR TUPPER
 Job cpu time:       0 days  1 hours 53 minutes 28.0 seconds.
 File lengths (MBytes):  RWF=    689 Int=      0 D2E=      0 Chk=     23 Scr=      1
 Normal termination of Gaussian 09 at Mon Jul 12 14:46:12 2021.
