 *******************************************************************************
 ** Site#: 37381        For non-commercial use only           Version 21.125L **
 *******************************************************************************
 ** Cite this program as: MOPAC2016, Version: 21.125L, James J. P. Stewart,   **
 ** Stewart Computational Chemistry, web: HTTP://OpenMOPAC.net. Days left: 189**
 *******************************************************************************
 **                                                                           **
 **                                MOPAC2016                                  **
 **                                                                           **
 *******************************************************************************

                              PM6-D3H4 CALCULATION RESULTS

 *******************************************************************************
 *  CALCULATION DONE:                                Thu Oct 28 21:33:44 2021  *
 *  PM6-D3H4   - CORRECT DISPERSION AND HYDROGEN BOND TERMS USING THE D3H4 METHOD
 *  EPS=2.38   - USE ANDREAS KLAMT'S COSMO IMPLICIT SOLVATION MODEL
 *  RSOLV=  3.480
 *  FORCE      - FORCE CALCULATION SPECIFIED
 *  T=         - A TIME OF 172800.0 SECONDS REQUESTED
 *  DUMP=N     - RESTART FILE WRITTEN EVERY 7200.0 SECONDS REQUESTED
 *  AUX        - OUTPUT AUXILIARY INFORMATION
 *  LARGE      - EXPANDED OUTPUT TO BE PRINTED
 *  THERMO     - THERMODYNAMIC QUANTITIES TO BE CALCULATED
 *******************************************************************************
 AUX LARGE FORCE THERMO PM6-D3H4 EPS=2.38 RSOLV=3.48
 DA_P_4H2O_PM6_D3H4_THERMO

   ATOM   CHEMICAL          X               Y               Z
  NUMBER   SYMBOL      (ANGSTROMS)     (ANGSTROMS)     (ANGSTROMS)
 
     1       C         -0.42030000  *   0.96513000  *  -0.75897000  *
     2       C          0.05892000  *  -0.19453000  *   0.12003000  *
     3       C          0.69794000  *   0.47155000  *   1.36631000  *
     4       C          0.52079000  *   1.97609000  *   1.15411000  *
     5       H         -0.86185000  *  -0.75317000  *   0.44592000  *
     6       H          0.07004000  *   0.19573000  *   2.27610000  *
     7       C         -0.51702000  *   3.52353000  *  -0.59924000  *
     8       H          0.36892000  *   4.20592000  *  -0.53254000  *
     9       H         -0.82158000  *   3.40428000  *  -1.67316000  *
    10       H         -1.37436000  *   3.94705000  *  -0.01212000  *
    11       N         -0.15955000  *   2.19283000  *  -0.05857000  *
    12       O          0.88761000  *   2.87534000  *   1.89591000  *
    13       O         -0.94641000  *   0.93086000  *  -1.84344000  *
    14       C          2.17746000  *   0.16524000  *   1.66488000  *
    15       H          2.64119000  *   1.10069000  *   2.09537000  *
    16       C          0.94144000  *  -1.16012000  *  -0.70645000  *
    17       H          0.62941000  *  -1.05457000  *  -1.78513000  *
    18       C          2.40623000  *  -0.83181000  *  -0.61086000  *
    19       H          3.00347000  *  -1.13490000  *  -1.47306000  *
    20       C          2.95834000  *  -0.23389000  *   0.44496000  *
    21       H          4.02724000  *  -0.02195000  *   0.49779000  *
    22       C          0.70298000  *  -2.62031000  *  -0.29312000  *
    23       H         -0.33152000  *  -2.93323000  *  -0.56025000  *
    24       H          1.42113000  *  -3.28367000  *  -0.82788000  *
    25       H          0.85015000  *  -2.74890000  *   0.80042000  *
    26       C          2.29287000  *  -0.93534000  *   2.73772000  *
    27       H          1.65520000  *  -0.73374000  *   3.62584000  *
    28       H          2.14689000  *  -1.95722000  *   2.32043000  *
    29       C          4.18179000  *  -0.09034000  *   4.03080000  *
    30       C          5.60135000  *  -0.36502000  *   4.35025000  *
    31       H          6.16064000  *   0.60617000  *   4.45600000  *
    32       H          5.66439000  *  -0.90947000  *   5.32976000  *
    33       H          6.08923000  *  -0.99160000  *   3.56336000  *
    34       O          3.48523000  *   0.83088000  *   4.43109000  *
    35       O          3.68392000  *  -1.03347000  *   3.17910000  *
    36       O          1.01014000  *   2.18748000  *   4.63013000  *
    37       H          1.06754000  *   2.65095000  *   3.75845000  *
    38       H          1.84427000  *   1.69356000  *   4.79507000  *
    39       O          5.33398000  *   2.58951000  *   5.59567000  *
    40       H          5.21993000  *   3.54943000  *   5.62348000  *
    41       H          4.48363000  *   2.14413000  *   5.38017000  *
    42       O         -0.44279000  *   5.36019000  *   2.09294000  *
    43       H          0.18581000  *   5.91820000  *   2.57323000  *
    44       H         -0.06223000  *   4.46886000  *   1.93633000  *
    45       O         -0.83309000  *   0.34422000  *   3.97480000  *
    46       H         -0.27477000  *   1.01212000  *   4.47596000  *
    47       H         -1.76269000  *   0.61347000  *   3.98797000  *
 


          CARTESIAN COORDINATES 

    NO.       ATOM           X           Y           Z

     1         C         -0.4203      0.9651     -0.7590
     2         C          0.0589     -0.1945      0.1200
     3         C          0.6979      0.4716      1.3663
     4         C          0.5208      1.9761      1.1541
     5         H         -0.8619     -0.7532      0.4459
     6         H          0.0700      0.1957      2.2761
     7         C         -0.5170      3.5235     -0.5992
     8         H          0.3689      4.2059     -0.5325
     9         H         -0.8216      3.4043     -1.6732
    10         H         -1.3744      3.9470     -0.0121
    11         N         -0.1596      2.1928     -0.0586
    12         O          0.8876      2.8753      1.8959
    13         O         -0.9464      0.9309     -1.8434
    14         C          2.1775      0.1652      1.6649
    15         H          2.6412      1.1007      2.0954
    16         C          0.9414     -1.1601     -0.7065
    17         H          0.6294     -1.0546     -1.7851
    18         C          2.4062     -0.8318     -0.6109
    19         H          3.0035     -1.1349     -1.4731
    20         C          2.9583     -0.2339      0.4450
    21         H          4.0272     -0.0220      0.4978
    22         C          0.7030     -2.6203     -0.2931
    23         H         -0.3315     -2.9332     -0.5603
    24         H          1.4211     -3.2837     -0.8279
    25         H          0.8502     -2.7489      0.8004
    26         C          2.2929     -0.9353      2.7377
    27         H          1.6552     -0.7337      3.6258
    28         H          2.1469     -1.9572      2.3204
    29         C          4.1818     -0.0903      4.0308
    30         C          5.6014     -0.3650      4.3502
    31         H          6.1606      0.6062      4.4560
    32         H          5.6644     -0.9095      5.3298
    33         H          6.0892     -0.9916      3.5634
    34         O          3.4852      0.8309      4.4311
    35         O          3.6839     -1.0335      3.1791
    36         O          1.0101      2.1875      4.6301
    37         H          1.0675      2.6509      3.7584
    38         H          1.8443      1.6936      4.7951
    39         O          5.3340      2.5895      5.5957
    40         H          5.2199      3.5494      5.6235
    41         H          4.4836      2.1441      5.3802
    42         O         -0.4428      5.3602      2.0929
    43         H          0.1858      5.9182      2.5732
    44         H         -0.0622      4.4689      1.9363
    45         O         -0.8331      0.3442      3.9748
    46         H         -0.2748      1.0121      4.4760
    47         H         -1.7627      0.6135      3.9880

 General Reference for PM6:
 "Optimization of Parameters for Semiempirical Methods V: Modification of NDDO Approximations
 and Application to 70 Elements", J. J. P. Stewart, J. Mol. Mod., 13, 1173-1213 (2007)
 URL: https://link.springer.com/article/10.1007/s00894-007-0233-4

           Empirical Formula: C13 H25 N O8  =    47 atoms



      MOLECULAR POINT GROUP   :   C1  


      RHF CALCULATION, NO. OF DOUBLY OCCUPIED LEVELS = 65



          HEAT OF FORMATION =    -413.864054 KCALS/MOLE


          CARTESIAN COORDINATE DERIVATIVES

   NUMBER  ATOM         X            Y            Z

     1       C     -0.311065    -0.375445     0.126164
     2       C      0.006661    -0.025437    -0.038329
     3       C      0.006312     0.160068    -0.166568
     4       C     -0.222759    -0.252775     0.149999
     5       H      0.038826     0.097393     0.054939
     6       H     -0.046509    -0.321987     0.110308
     7       C     -0.127794     0.041597     0.168491
     8       H      0.003168     0.004696    -0.094037
     9       H     -0.049786    -0.074692    -0.051781
    10       H     -0.072442     0.042561     0.286475
    11       N      0.257362     0.158331     0.256748
    12       O     -0.208362     0.423964    -0.045460
    13       O     -0.021327     0.176883    -0.183535
    14       C     -0.045588     0.089390    -0.312292
    15       H     -0.068065     0.212921    -0.167044
    16       C      0.220137     0.064310     0.015697
    17       H      0.213920     0.312284    -0.108954
    18       C      0.348383    -0.351823     0.031215
    19       H      0.357089     0.087024     0.029870
    20       C      0.141890     0.031190    -0.012014
    21       H     -0.034110    -0.047400     0.178009
    22       C      0.048562     0.062806    -0.019602
    23       H      0.128720    -0.031533    -0.246292
    24       H     -0.051255    -0.016927     0.250079
    25       H     -0.062228     0.140681    -0.313355
    26       C     -0.149047    -0.208395    -0.125053
    27       H      0.121586    -0.162965    -0.264787
    28       H     -0.045075    -0.193365    -0.017959
    29       C      0.078325    -0.103426    -0.049802
    30       C     -0.020686    -0.006335    -0.055497
    31       H     -0.214685     0.018366     0.030931
    32       H      0.039205    -0.186090    -0.031632
    33       H      0.086665     0.199173    -0.009228
    34       O     -0.408404    -0.463126     0.329660
    35       O     -0.218180     0.000997    -0.072790
    36       O      0.318911    -0.160986    -0.630266
    37       H      0.415138     0.228832     0.309911
    38       H     -0.227764     0.140038     0.340338
    39       O     -0.005182    -0.056215     0.173863
    40       H     -0.015846     0.053349    -0.152310
    41       H      0.197921    -0.165373    -0.039633
    42       O     -0.120465    -0.245784    -0.145225
    43       H     -0.089627     0.641081    -0.005033
    44       H      0.197014    -0.195159     0.042887
    45       O     -0.179546     0.567351     0.105819
    46       H     -0.163509    -0.405636     0.278474
    47       H     -0.046376     0.095773     0.088724
 
 DIPOLE           X         Y         Z       TOTAL
 POINT-CHG.     3.567    -3.106    -2.890     5.543
 HYBRID        -0.728     0.598     0.043     0.943
 SUM            2.839    -2.509    -2.847     4.739


          GRADIENT NORM =   2.37114


                              **** WARNING ****

           GRADIENT IS VERY LARGE FOR A THERMO CALCULATION
           RESULTS ARE LIKELY TO BE INACCURATE IF THERE ARE
           ANY LOW-LYING VIBRATIONS (LESS THAN ABOUT 400CM-1)
           GRADIENT NORM SHOULD BE LESS THAN ABOUT 1.4 FOR THERMO
           TO GIVE ACCURATE RESULTS


          TIME FOR SCF CALCULATION =    0.07

          TIME FOR DERIVATIVES     =    0.03

          MOLECULAR WEIGHT =  323.34



          ROTATIONAL CONSTANTS IN CM(-1)

          A =    0.01002077   B =    0.00635756   C =    0.00468756



           PRINCIPAL MOMENTS OF INERTIA IN UNITS OF 10**(-40)*GRAM-CM**2

          A =     2793.4759   B =     4403.0667   C =     5971.7107


          ORIENTATION OF MOLECULE IN FORCE CALCULATION

    NO.       ATOM         X         Y         Z

     1          C      -2.1577   -2.3510    0.5325
     2          C      -0.6256   -2.3510    0.5325
     3          C      -0.2149   -0.8555    0.5325
     4          C      -1.5309   -0.0764    0.5680
     5          H      -0.3038   -2.8100    1.5081
     6          H       0.3195   -0.6352    1.5144
     7          C      -4.0329   -0.6046    0.6525
     8          H      -4.2340    0.1887   -0.1125
     9          H      -4.6540   -1.5122    0.4273
    10          H      -4.2847   -0.2239    1.6775
    11          N      -2.6036   -0.9866    0.6065
    12          O      -1.6712    1.1376    0.5722
    13          O      -2.9185   -3.2858    0.4975
    14          C       0.6511   -0.3487   -0.6359
    15          H       0.3350    0.7116   -0.8622
    16          C      -0.0929   -3.2390   -0.6172
    17          H      -0.8893   -4.0055   -0.8414
    18          C       0.1716   -2.4599   -1.8763
    19          H       0.0932   -3.0366   -2.8000
    20          C       0.4975   -1.1673   -1.8864
    21          H       0.7018   -0.6282   -2.8126
    22          C       1.1750   -3.9950   -0.1919
    23          H       0.9350   -4.7331    0.6063
    24          H       1.5949   -4.5446   -1.0656
    25          H       1.9457   -3.2898    0.1857
    26          C       2.1358   -0.3033   -0.2247
    27          H       2.2933    0.2108    0.7484
    28          H       2.6242   -1.3028   -0.2725
    29          C       2.8289    1.7674   -1.3136
    30          C       3.6642    2.2884   -2.4198
    31          H       3.1647    3.1853   -2.8816
    32          H       4.6580    2.6162   -2.0139
    33          H       3.8396    1.5139   -3.2066
    34          O       2.1434    2.4019   -0.5253
    35          O       2.8984    0.4057   -1.2518
    36          O       0.4565    2.5777    1.7396
    37          H      -0.3765    2.3110    1.2781
    38          H       1.1859    2.6513    1.0842
    39          O       2.0587    4.9689   -1.6523
    40          H       1.3124    5.5759   -1.5532
    41          H       2.0062    4.2420   -0.9914
    42          O      -3.8552    2.4399    1.8040
    43          H      -3.8054    3.3436    1.4605
    44          H      -3.1514    1.8816    1.4081
    45          O       0.8992    0.3014    3.0986
    46          H       0.8558    1.2670    2.8253
    47          H       0.4122    0.1689    3.9245


    FIRST DERIVATIVES WILL BE USED IN THE CALCULATION OF SECOND DERIVATIVES

          ESTIMATED TIME TO COMPLETE CALCULATION =       28.64 SECONDS

    FOR POINT-GROUP C1   THERE ARE   1 UNIQUE SYMMETRY FUNCTIONS.

 STEP:   1 TIME =     0.10 SECS, INTEGRAL =      0.10 TIME LEFT: 172799.80
 STEP:   2 TIME =     0.10 SECS, INTEGRAL =      0.20 TIME LEFT: 172799.70
 STEP:   3 TIME =     0.09 SECS, INTEGRAL =      0.30 TIME LEFT: 172799.60
 STEP:   4 TIME =     0.10 SECS, INTEGRAL =      0.40 TIME LEFT: 172799.50
 STEP:   5 TIME =     0.10 SECS, INTEGRAL =      0.50 TIME LEFT: 172799.40
 STEP:   6 TIME =     0.09 SECS, INTEGRAL =      0.59 TIME LEFT: 172799.30
 STEP:   7 TIME =     0.10 SECS, INTEGRAL =      0.70 TIME LEFT: 172799.20
 STEP:   8 TIME =     0.09 SECS, INTEGRAL =      0.79 TIME LEFT: 172799.11
 STEP:   9 TIME =     0.09 SECS, INTEGRAL =      0.88 TIME LEFT: 172799.02
 STEP:  10 TIME =     0.10 SECS, INTEGRAL =      0.98 TIME LEFT: 172798.91
 STEP:  11 TIME =     0.09 SECS, INTEGRAL =      1.08 TIME LEFT: 172798.82
 STEP:  12 TIME =     0.10 SECS, INTEGRAL =      1.18 TIME LEFT: 172798.72
 STEP:  13 TIME =     0.09 SECS, INTEGRAL =      1.27 TIME LEFT: 172798.62
 STEP:  14 TIME =     0.09 SECS, INTEGRAL =      1.36 TIME LEFT: 172798.54
 STEP:  15 TIME =     0.09 SECS, INTEGRAL =      1.45 TIME LEFT: 172798.45
 STEP:  16 TIME =     0.09 SECS, INTEGRAL =      1.53 TIME LEFT: 172798.37
 STEP:  17 TIME =     0.09 SECS, INTEGRAL =      1.62 TIME LEFT: 172798.28
 STEP:  18 TIME =     0.09 SECS, INTEGRAL =      1.70 TIME LEFT: 172798.20
 STEP:  19 TIME =     0.09 SECS, INTEGRAL =      1.80 TIME LEFT: 172798.10
 STEP:  20 TIME =     0.09 SECS, INTEGRAL =      1.89 TIME LEFT: 172798.01
 STEP:  21 TIME =     0.09 SECS, INTEGRAL =      1.98 TIME LEFT: 172797.91
 STEP:  22 TIME =     0.09 SECS, INTEGRAL =      2.08 TIME LEFT: 172797.82
 STEP:  23 TIME =     0.09 SECS, INTEGRAL =      2.16 TIME LEFT: 172797.73
 STEP:  24 TIME =     0.09 SECS, INTEGRAL =      2.25 TIME LEFT: 172797.65
 STEP:  25 TIME =     0.09 SECS, INTEGRAL =      2.34 TIME LEFT: 172797.56
 STEP:  26 TIME =     0.09 SECS, INTEGRAL =      2.42 TIME LEFT: 172797.48
 STEP:  27 TIME =     0.09 SECS, INTEGRAL =      2.51 TIME LEFT: 172797.39
 STEP:  28 TIME =     0.09 SECS, INTEGRAL =      2.60 TIME LEFT: 172797.30
 STEP:  29 TIME =     0.09 SECS, INTEGRAL =      2.69 TIME LEFT: 172797.21
 STEP:  30 TIME =     0.09 SECS, INTEGRAL =      2.77 TIME LEFT: 172797.12
 STEP:  31 TIME =     0.09 SECS, INTEGRAL =      2.87 TIME LEFT: 172797.03
 STEP:  32 TIME =     0.10 SECS, INTEGRAL =      2.97 TIME LEFT: 172796.93
 STEP:  33 TIME =     0.09 SECS, INTEGRAL =      3.06 TIME LEFT: 172796.84
 STEP:  34 TIME =     0.10 SECS, INTEGRAL =      3.16 TIME LEFT: 172796.73
 STEP:  35 TIME =     0.09 SECS, INTEGRAL =      3.26 TIME LEFT: 172796.64
 STEP:  36 TIME =     0.09 SECS, INTEGRAL =      3.35 TIME LEFT: 172796.55
 STEP:  37 TIME =     0.09 SECS, INTEGRAL =      3.45 TIME LEFT: 172796.45
 STEP:  38 TIME =     0.09 SECS, INTEGRAL =      3.54 TIME LEFT: 172796.36
 STEP:  39 TIME =     0.09 SECS, INTEGRAL =      3.63 TIME LEFT: 172796.27
 STEP:  40 TIME =     0.09 SECS, INTEGRAL =      3.73 TIME LEFT: 172796.17
 STEP:  41 TIME =     0.09 SECS, INTEGRAL =      3.82 TIME LEFT: 172796.08
 STEP:  42 TIME =     0.10 SECS, INTEGRAL =      3.92 TIME LEFT: 172795.98
 STEP:  43 TIME =     0.09 SECS, INTEGRAL =      4.02 TIME LEFT: 172795.88
 STEP:  44 TIME =     0.09 SECS, INTEGRAL =      4.10 TIME LEFT: 172795.80
 STEP:  45 TIME =     0.09 SECS, INTEGRAL =      4.20 TIME LEFT: 172795.70
 STEP:  46 TIME =     0.09 SECS, INTEGRAL =      4.29 TIME LEFT: 172795.61
 STEP:  47 TIME =     0.10 SECS, INTEGRAL =      4.39 TIME LEFT: 172795.51
 STEP:  48 TIME =     0.09 SECS, INTEGRAL =      4.48 TIME LEFT: 172795.41
 STEP:  49 TIME =     0.09 SECS, INTEGRAL =      4.58 TIME LEFT: 172795.32
 STEP:  50 TIME =     0.09 SECS, INTEGRAL =      4.66 TIME LEFT: 172795.23
 STEP:  51 TIME =     0.09 SECS, INTEGRAL =      4.75 TIME LEFT: 172795.15
 STEP:  52 TIME =     0.10 SECS, INTEGRAL =      4.85 TIME LEFT: 172795.05
 STEP:  53 TIME =     0.09 SECS, INTEGRAL =      4.95 TIME LEFT: 172794.95
 STEP:  54 TIME =     0.10 SECS, INTEGRAL =      5.05 TIME LEFT: 172794.85
 STEP:  55 TIME =     0.09 SECS, INTEGRAL =      5.14 TIME LEFT: 172794.76
 STEP:  56 TIME =     0.09 SECS, INTEGRAL =      5.23 TIME LEFT: 172794.67
 STEP:  57 TIME =     0.09 SECS, INTEGRAL =      5.31 TIME LEFT: 172794.59
 STEP:  58 TIME =     0.09 SECS, INTEGRAL =      5.41 TIME LEFT: 172794.49
 STEP:  59 TIME =     0.10 SECS, INTEGRAL =      5.51 TIME LEFT: 172794.39
 STEP:  60 TIME =     0.10 SECS, INTEGRAL =      5.61 TIME LEFT: 172794.29
 STEP:  61 TIME =     0.09 SECS, INTEGRAL =      5.70 TIME LEFT: 172794.20
 STEP:  62 TIME =     0.09 SECS, INTEGRAL =      5.79 TIME LEFT: 172794.11
 STEP:  63 TIME =     0.09 SECS, INTEGRAL =      5.88 TIME LEFT: 172794.02
 STEP:  64 TIME =     0.09 SECS, INTEGRAL =      5.97 TIME LEFT: 172793.93
 STEP:  65 TIME =     0.09 SECS, INTEGRAL =      6.06 TIME LEFT: 172793.84
 STEP:  66 TIME =     0.09 SECS, INTEGRAL =      6.16 TIME LEFT: 172793.74
 STEP:  67 TIME =     0.09 SECS, INTEGRAL =      6.25 TIME LEFT: 172793.65
 STEP:  68 TIME =     0.09 SECS, INTEGRAL =      6.34 TIME LEFT: 172793.55
 STEP:  69 TIME =     0.09 SECS, INTEGRAL =      6.43 TIME LEFT: 172793.47
 STEP:  70 TIME =     0.09 SECS, INTEGRAL =      6.52 TIME LEFT: 172793.38
 STEP:  71 TIME =     0.09 SECS, INTEGRAL =      6.60 TIME LEFT: 172793.30
 STEP:  72 TIME =     0.09 SECS, INTEGRAL =      6.70 TIME LEFT: 172793.20
 STEP:  73 TIME =     0.09 SECS, INTEGRAL =      6.78 TIME LEFT: 172793.12
 STEP:  74 TIME =     0.09 SECS, INTEGRAL =      6.88 TIME LEFT: 172793.02
 STEP:  75 TIME =     0.09 SECS, INTEGRAL =      6.96 TIME LEFT: 172792.94
 STEP:  76 TIME =     0.10 SECS, INTEGRAL =      7.06 TIME LEFT: 172792.84
 STEP:  77 TIME =     0.09 SECS, INTEGRAL =      7.16 TIME LEFT: 172792.74
 STEP:  78 TIME =     0.09 SECS, INTEGRAL =      7.25 TIME LEFT: 172792.65
 STEP:  79 TIME =     0.09 SECS, INTEGRAL =      7.34 TIME LEFT: 172792.55
 STEP:  80 TIME =     0.09 SECS, INTEGRAL =      7.44 TIME LEFT: 172792.46
 STEP:  81 TIME =     0.09 SECS, INTEGRAL =      7.52 TIME LEFT: 172792.38
 STEP:  82 TIME =     0.09 SECS, INTEGRAL =      7.62 TIME LEFT: 172792.28
 STEP:  83 TIME =     0.09 SECS, INTEGRAL =      7.70 TIME LEFT: 172792.20
 STEP:  84 TIME =     0.09 SECS, INTEGRAL =      7.79 TIME LEFT: 172792.11
 STEP:  85 TIME =     0.10 SECS, INTEGRAL =      7.89 TIME LEFT: 172792.01
 STEP:  86 TIME =     0.09 SECS, INTEGRAL =      7.98 TIME LEFT: 172791.91
 STEP:  87 TIME =     0.10 SECS, INTEGRAL =      8.09 TIME LEFT: 172791.81
 STEP:  88 TIME =     0.09 SECS, INTEGRAL =      8.18 TIME LEFT: 172791.72
 STEP:  89 TIME =     0.09 SECS, INTEGRAL =      8.27 TIME LEFT: 172791.62
 STEP:  90 TIME =     0.09 SECS, INTEGRAL =      8.37 TIME LEFT: 172791.53
 STEP:  91 TIME =     0.09 SECS, INTEGRAL =      8.46 TIME LEFT: 172791.44
 STEP:  92 TIME =     0.09 SECS, INTEGRAL =      8.55 TIME LEFT: 172791.35
 STEP:  93 TIME =     0.09 SECS, INTEGRAL =      8.63 TIME LEFT: 172791.27
 STEP:  94 TIME =     0.09 SECS, INTEGRAL =      8.72 TIME LEFT: 172791.18
 STEP:  95 TIME =     0.09 SECS, INTEGRAL =      8.80 TIME LEFT: 172791.09
 STEP:  96 TIME =     0.09 SECS, INTEGRAL =      8.90 TIME LEFT: 172791.00
 STEP:  97 TIME =     0.09 SECS, INTEGRAL =      8.98 TIME LEFT: 172790.91
 STEP:  98 TIME =     0.09 SECS, INTEGRAL =      9.07 TIME LEFT: 172790.83
 STEP:  99 TIME =     0.09 SECS, INTEGRAL =      9.16 TIME LEFT: 172790.74
 STEP: 100 TIME =     0.09 SECS, INTEGRAL =      9.25 TIME LEFT: 172790.65
 STEP: 101 TIME =     0.09 SECS, INTEGRAL =      9.34 TIME LEFT: 172790.55
 STEP: 102 TIME =     0.09 SECS, INTEGRAL =      9.44 TIME LEFT: 172790.46
 STEP: 103 TIME =     0.09 SECS, INTEGRAL =      9.53 TIME LEFT: 172790.37
 STEP: 104 TIME =     0.10 SECS, INTEGRAL =      9.63 TIME LEFT: 172790.27
 STEP: 105 TIME =     0.09 SECS, INTEGRAL =      9.73 TIME LEFT: 172790.17
 STEP: 106 TIME =     0.10 SECS, INTEGRAL =      9.83 TIME LEFT: 172790.07
 STEP: 107 TIME =     0.09 SECS, INTEGRAL =      9.92 TIME LEFT: 172789.98
 STEP: 108 TIME =     0.09 SECS, INTEGRAL =     10.01 TIME LEFT: 172789.89
 STEP: 109 TIME =     0.09 SECS, INTEGRAL =     10.10 TIME LEFT: 172789.80
 STEP: 110 TIME =     0.09 SECS, INTEGRAL =     10.20 TIME LEFT: 172789.70
 STEP: 111 TIME =     0.09 SECS, INTEGRAL =     10.29 TIME LEFT: 172789.61
 STEP: 112 TIME =     0.09 SECS, INTEGRAL =     10.38 TIME LEFT: 172789.52
 STEP: 113 TIME =     0.09 SECS, INTEGRAL =     10.47 TIME LEFT: 172789.43
 STEP: 114 TIME =     0.09 SECS, INTEGRAL =     10.56 TIME LEFT: 172789.34
 STEP: 115 TIME =     0.10 SECS, INTEGRAL =     10.66 TIME LEFT: 172789.23
 STEP: 116 TIME =     0.09 SECS, INTEGRAL =     10.76 TIME LEFT: 172789.14
 STEP: 117 TIME =     0.09 SECS, INTEGRAL =     10.85 TIME LEFT: 172789.05
 STEP: 118 TIME =     0.09 SECS, INTEGRAL =     10.95 TIME LEFT: 172788.95
 STEP: 119 TIME =     0.09 SECS, INTEGRAL =     11.04 TIME LEFT: 172788.86
 STEP: 120 TIME =     0.09 SECS, INTEGRAL =     11.13 TIME LEFT: 172788.77
 STEP: 121 TIME =     0.09 SECS, INTEGRAL =     11.23 TIME LEFT: 172788.67
 STEP: 122 TIME =     0.09 SECS, INTEGRAL =     11.32 TIME LEFT: 172788.58
 STEP: 123 TIME =     0.09 SECS, INTEGRAL =     11.41 TIME LEFT: 172788.48
 STEP: 124 TIME =     0.09 SECS, INTEGRAL =     11.51 TIME LEFT: 172788.39
 STEP: 125 TIME =     0.09 SECS, INTEGRAL =     11.60 TIME LEFT: 172788.30
 STEP: 126 TIME =     0.10 SECS, INTEGRAL =     11.70 TIME LEFT: 172788.20
 STEP: 127 TIME =     0.09 SECS, INTEGRAL =     11.80 TIME LEFT: 172788.10
 STEP: 128 TIME =     0.09 SECS, INTEGRAL =     11.89 TIME LEFT: 172788.01
 STEP: 129 TIME =     0.09 SECS, INTEGRAL =     11.98 TIME LEFT: 172787.92
 STEP: 130 TIME =     0.09 SECS, INTEGRAL =     12.06 TIME LEFT: 172787.84
 STEP: 131 TIME =     0.09 SECS, INTEGRAL =     12.16 TIME LEFT: 172787.74
 STEP: 132 TIME =     0.09 SECS, INTEGRAL =     12.25 TIME LEFT: 172787.65
 STEP: 133 TIME =     0.09 SECS, INTEGRAL =     12.34 TIME LEFT: 172787.55
 STEP: 134 TIME =     0.09 SECS, INTEGRAL =     12.43 TIME LEFT: 172787.47
 STEP: 135 TIME =     0.09 SECS, INTEGRAL =     12.52 TIME LEFT: 172787.38
 STEP: 136 TIME =     0.09 SECS, INTEGRAL =     12.62 TIME LEFT: 172787.28
 STEP: 137 TIME =     0.09 SECS, INTEGRAL =     12.71 TIME LEFT: 172787.19
 STEP: 138 TIME =     0.09 SECS, INTEGRAL =     12.80 TIME LEFT: 172787.09
 STEP: 139 TIME =     0.09 SECS, INTEGRAL =     12.89 TIME LEFT: 172787.01
 STEP: 140 TIME =     0.09 SECS, INTEGRAL =     12.98 TIME LEFT: 172786.92
 STEP: 141 TIME =     0.09 SECS, INTEGRAL =     13.07 TIME LEFT: 172786.83

(To convert to Hartree/Bohr^2, multiply by (10^(-21) x N x a0^2)/(4.184 x 627.51) =  0.0642)


           FORCE MATRIX IN MILLIDYNES/ANGSTROM


                  C  1       C  2       C  3       C  4       H  5       H  6
 ------------------------------------------------------------------------------
     C    1  17.279874
     C    2   2.804293  12.085312
     C    3   0.700955   2.863098  12.117048
     C    4   1.979685   0.736940   2.872069  17.141983
     H    5   0.679136   3.271876   0.581030   0.032869   4.206162
     H    6   0.068613   0.587788   2.882825   0.723980   0.052890   3.804571
     C    7   0.514377   0.089904   0.100412   0.526252   0.011945   0.013186
     H    8   0.068440   0.015578   0.012566   0.085230   0.001659   0.002829
     H    9   0.180524   0.013011   0.015921   0.081089   0.004539   0.003713
     H   10   0.065824   0.013853   0.014926   0.076573   0.003390   0.004280
     N   11   3.795885   0.881206   0.943159   4.609497   0.054309   0.060092
     O   12   0.492639   0.086177   0.942364  10.304641   0.027607   0.086810
     O   13  11.432436   0.965385   0.088885   0.409057   0.047944   0.033358
     C   14   0.060481   0.537284   3.037901   0.692999   0.027414   0.587210
     H   15   0.022573   0.036707   0.604481   0.154400   0.004206   0.025717
     C   16   0.720707   2.847879   0.538531   0.068924   0.610184   0.023417
     H   17   0.138081   0.611159   0.038354   0.019602   0.025213   0.004305
     C   18   0.042379   0.669436   0.055827   0.022663   0.035979   0.009644
     H   19   0.013332   0.044415   0.012220   0.011428   0.005568   0.003196
     C   20   0.021515   0.053764   0.675399   0.039537   0.006554   0.037437
     H   21   0.011782   0.012765   0.043556   0.012862   0.002572   0.006169
     C   22   0.057838   0.676875   0.017016   0.029636   0.041276   0.009807
     H   23   0.014732   0.006309   0.003066   0.006817   0.038494   0.002382
     H   24   0.012321   0.045839   0.004341   0.007749   0.003937   0.002815
     H   25   0.011272   0.018454   0.005219   0.007780   0.024949   0.003355
     C   26   0.029835   0.012542   0.578662   0.071121   0.006423   0.087349
     H   27   0.006732   0.004352   0.027074   0.014521   0.002365   0.043746
     H   28   0.010552   0.003974   0.006432   0.014782   0.002345   0.010695
     C   29   0.045517   0.020801   0.048266   0.113632   0.007602   0.024348
     C   30   0.015153   0.004882   0.010478   0.027493   0.002251   0.005621
     H   31   0.003141   0.001159   0.002697   0.005960   0.000433   0.001247
     H   32   0.002917   0.001040   0.001642   0.004242   0.000628   0.001179
     H   33   0.004351   0.001017   0.002393   0.006568   0.000513   0.001283
     O   34   0.035019   0.010742   0.018458   0.088590   0.003847   0.016100
     O   35   0.036387   0.018732   0.096474   0.078195   0.008554   0.028028
     O   36   0.064497   0.008745   0.034289   0.178256   0.005321   0.048256
     H   37   0.088427   0.008389   0.017087   0.311116   0.005589   0.027651
     H   38   0.026652   0.005054   0.011702   0.072740   0.001728   0.013309
     O   39   0.008282   0.002345   0.003959   0.015276   0.000987   0.002609
     H   40   0.003246   0.000917   0.001505   0.006115   0.000357   0.001008
     H   41   0.008303   0.002451   0.004200   0.016260   0.001106   0.002712
     O   42   0.081248   0.009173   0.015873   0.139502   0.003889   0.008804


                  C  1       C  2       C  3       C  4       H  5       H  6
 ------------------------------------------------------------------------------
     H   43   0.025099   0.002965   0.004998   0.038031   0.001029   0.002626
     H   44   0.096592   0.010449   0.030979   0.328791   0.005594   0.012973
     O   45   0.057890   0.017419   0.213016   0.132729   0.012612   0.089272
     H   46   0.030842   0.006854   0.031625   0.097211   0.006059   0.091946
     H   47   0.020496   0.006486   0.021178   0.039344   0.006092   0.055786


                  C  7       H  8       H  9       H 10       N 11       O 12
 ------------------------------------------------------------------------------
     C    7  11.037205
     H    8   3.256820   4.184348
     H    9   3.245355   0.542805   4.170279
     H   10   3.235855   0.548119   0.545684   4.149992
     N   11   4.085925   0.730131   0.743300   0.711959  15.165099
     O   12   0.056422   0.033776   0.022739   0.031932   2.001072  12.359959
     O   13   0.064412   0.015497   0.101755   0.018250   1.886784   0.212674
     C   14   0.016809   0.001377   0.003177   0.002709   0.058977   0.049205
     H   15   0.003278   0.001105   0.000768   0.000807   0.028282   0.047735
     C   16   0.015266   0.003606   0.003414   0.001880   0.061507   0.030059
     H   17   0.002781   0.000704   0.003303   0.000605   0.022828   0.006587
     C   18   0.002295   0.001154   0.002314   0.000943   0.016619   0.013451
     H   19   0.000941   0.000486   0.001044   0.000480   0.007159   0.005702
     C   20   0.002322   0.001167   0.001433   0.000935   0.015936   0.019411
     H   21   0.001070   0.000805   0.000760   0.000513   0.006955   0.009149
     C   22   0.006562   0.002242   0.003515   0.001815   0.036769   0.022644
     H   23   0.001051   0.000408   0.001044   0.000503   0.007895   0.005329
     H   24   0.000935   0.000534   0.000647   0.000424   0.005932   0.005284
     H   25   0.001358   0.000426   0.000540   0.000361   0.007830   0.005516
     C   26   0.002893   0.001980   0.002096   0.001717   0.024203   0.033941
     H   27   0.000926   0.000310   0.000451   0.000513   0.008016   0.010690
     H   28   0.001653   0.000455   0.000611   0.000450   0.010359   0.006232
     C   29   0.004307   0.003240   0.002314   0.002875   0.049316   0.089439
     C   30   0.001752   0.001165   0.001084   0.001029   0.016022   0.018206
     H   31   0.000304   0.000393   0.000212   0.000241   0.003337   0.003957
     H   32   0.000384   0.000150   0.000310   0.000247   0.002885   0.002652
     H   33   0.000599   0.000227   0.000284   0.000229   0.004410   0.003766
     O   34   0.004293   0.001956   0.001638   0.001732   0.042487   0.068385
     O   35   0.003665   0.003110   0.002483   0.002757   0.035985   0.058453
     O   36   0.007636   0.003795   0.003321   0.003057   0.079767   0.251505
     H   37   0.009714   0.004932   0.004300   0.004190   0.135819   0.210520
     H   38   0.003052   0.001467   0.001202   0.000946   0.035507   0.070511
     O   39   0.001093   0.000955   0.000665   0.000722   0.009386   0.011185
     H   40   0.000580   0.000485   0.000263   0.000348   0.003712   0.005180
     H   41   0.000857   0.000831   0.000612   0.000646   0.009848   0.011546
     O   42   0.062924   0.019117   0.009519   0.023197   0.083638   0.243274
     H   43   0.012547   0.006379   0.002992   0.011160   0.022673   0.049674
     H   44   0.025403   0.033917   0.008145   0.046367   0.115039   0.224803
     O   45   0.007046   0.003053   0.003579   0.003863   0.065479   0.074632
     H   46   0.004049   0.001611   0.001676   0.001765   0.043118   0.075645
     H   47   0.002645   0.001050   0.001346   0.001780   0.023555   0.018233


                  O 13       C 14       H 15       C 16       H 17       C 18
 ------------------------------------------------------------------------------
     O   13  13.486976
     C   14   0.017361  12.722494
     H   15   0.006125   3.152306   4.123175
     C   16   0.057315   0.063971   0.006798  12.624396
     H   17   0.037293   0.007616   0.001786   3.169127   4.135160
     C   18   0.018443   0.856242   0.044006   3.780348   0.655284  16.073961
     H   19   0.008067   0.137859   0.013732   0.608091   0.035970   3.480402
     C   20   0.010184   3.800463   0.643206   0.838891   0.044943   9.575649
     H   21   0.005113   0.616089   0.036811   0.137695   0.014671   0.723961
     C   22   0.029265   0.021206   0.004091   3.213995   0.616767   0.709032
     H   23   0.009158   0.003007   0.000760   0.609473   0.031407   0.046249
     H   24   0.006177   0.003879   0.002485   0.598383   0.023940   0.038552
     H   25   0.005922   0.003812   0.000913   0.601943   0.049904   0.013093
     C   26   0.020359   3.086811   0.636409   0.013710   0.004819   0.038075
     H   27   0.003801   0.570810   0.022431   0.004194   0.001024   0.005064
     H   28   0.006217   0.569711   0.048645   0.005893   0.001475   0.008295
     C   29   0.022933   0.061806   0.091313   0.019553   0.007621   0.019566
     C   30   0.009886   0.013515   0.011228   0.004329   0.002249   0.005969
     H   31   0.002280   0.001440   0.002746   0.001041   0.000577   0.001460
     H   32   0.001928   0.003070   0.001338   0.000809   0.000387   0.000752
     H   33   0.002715   0.001537   0.002472   0.001074   0.000523   0.002031
     O   34   0.015666   0.046313   0.049659   0.010630   0.003401   0.008691
     O   35   0.025490   0.741624   0.046716   0.012212   0.006550   0.018208
     O   36   0.029445   0.008316   0.017187   0.005686   0.001692   0.005059
     H   37   0.040254   0.005683   0.020975   0.005129   0.001390   0.004113
     H   38   0.011422   0.004500   0.018316   0.003962   0.000954   0.003084
     O   39   0.005442   0.002503   0.004934   0.002040   0.001104   0.002180
     H   40   0.001946   0.001009   0.001867   0.000757   0.000378   0.000628
     H   41   0.005734   0.002796   0.005265   0.002130   0.001196   0.002826
     O   42   0.035774   0.004268   0.002673   0.004317   0.001325   0.003283
     H   43   0.010898   0.001200   0.001093   0.001503   0.000393   0.001080
     H   44   0.044507   0.006679   0.003357   0.004733   0.001675   0.003918
     O   45   0.032772   0.014064   0.008881   0.006783   0.002830   0.006703
     H   46   0.013963   0.005588   0.007862   0.002776   0.000952   0.002605
     H   47   0.010858   0.001963   0.001819   0.001844   0.000812   0.001775


                  H 19       C 20       H 21       C 22       H 23       H 24
 ------------------------------------------------------------------------------
     H   19   4.298373
     C   20   0.728863  16.090715
     H   21   0.053111   3.496439   4.301233
     C   22   0.014466   0.036371   0.026374  11.221635
     H   23   0.002169   0.004651   0.004013   3.353807   4.266682
     H   24   0.016965   0.005845   0.006669   3.371421   0.575586   4.291989
     H   25   0.002551   0.005337   0.002425   3.382965   0.573920   0.576977
     C   26   0.026135   0.719001   0.017355   0.030673   0.003259   0.031016
     H   27   0.004306   0.045026   0.002292   0.007873   0.000833   0.005641
     H   28   0.003095   0.028252   0.005333   0.022762   0.003313   0.019588
     C   29   0.013869   0.032350   0.022939   0.085255   0.005016   0.097372
     C   30   0.003981   0.007021   0.007017   0.017768   0.001569   0.018531
     H   31   0.001005   0.002050   0.002035   0.002331   0.000360   0.002452
     H   32   0.000610   0.001384   0.001547   0.002150   0.000338   0.002424
     H   33   0.001257   0.002357   0.002364   0.010410   0.000363   0.010225
     O   34   0.006068   0.017287   0.011410   0.045703   0.002407   0.053325
     O   35   0.011677   0.039229   0.015519   0.033491   0.004458   0.032314
     O   36   0.002496   0.006172   0.003371   0.005801   0.001590   0.003441
     H   37   0.001926   0.005169   0.002650   0.005004   0.001293   0.001543
     H   38   0.001634   0.004723   0.002588   0.003184   0.000800   0.004512
     O   39   0.001714   0.002865   0.002530   0.004632   0.000762   0.005067
     H   40   0.000544   0.001078   0.000930   0.001231   0.000268   0.001303
     H   41   0.001961   0.002948   0.002181   0.006669   0.000788   0.007441
     O   42   0.001698   0.003124   0.001971   0.005445   0.001340   0.001556
     H   43   0.000532   0.001157   0.000778   0.001812   0.000421   0.000493
     H   44   0.002002   0.003522   0.002103   0.005946   0.001491   0.001855
     O   45   0.003281   0.006233   0.002934   0.009922   0.002961   0.003580
     H   46   0.001320   0.003236   0.001417   0.004099   0.001285   0.001845
     H   47   0.000932   0.001128   0.000627   0.002963   0.000996   0.000966


                  H 25       C 26       H 27       H 28       C 29       C 30
 ------------------------------------------------------------------------------
     H   25   4.307838
     C   26   0.016063  11.282175
     H   27   0.002419   3.271733   4.154710
     H   28   0.040280   3.276747   0.522211   4.210879
     C   29   0.010713   1.182168   0.113830   0.184593  16.992877
     C   30   0.003060   0.142666   0.017760   0.048618   3.779978  11.313419
     H   31   0.000725   0.025202   0.003311   0.007051   0.747884   3.239439
     H   32   0.000532   0.017847   0.002346   0.004721   0.714891   3.223974
     H   33   0.000804   0.022033   0.003218   0.016062   0.711180   3.302226
     O   34   0.005070   0.204384   0.042517   0.076824  10.389185   1.099682
     O   35   0.010192   3.168667   0.697649   0.756324   4.193450   1.039272
     O   36   0.002312   0.026675   0.020825   0.006860   0.125175   0.031562
     H   37   0.001581   0.015766   0.009194   0.002980   0.060246   0.013352
     H   38   0.001528   0.026375   0.022393   0.008118   0.174631   0.045925
     O   39   0.001177   0.022246   0.003790   0.008857   0.157333   0.094008
     H   40   0.000402   0.007298   0.001063   0.002517   0.056341   0.033838
     H   41   0.001284   0.028466   0.005479   0.012023   0.346220   0.056328
     O   42   0.001241   0.007686   0.001434   0.001518   0.011487   0.005061
     H   43   0.000425   0.002772   0.000511   0.000415   0.006327   0.002125
     H   44   0.001314   0.008999   0.001769   0.001924   0.013166   0.005018
     O   45   0.003643   0.022146   0.024265   0.008503   0.047098   0.013561
     H   46   0.001510   0.012826   0.021787   0.004233   0.057183   0.012729
     H   47   0.001258   0.004907   0.005747   0.002137   0.008485   0.003821


                  H 31       H 32       H 33       O 34       O 35       O 36
 ------------------------------------------------------------------------------
     H   31   4.102677
     H   32   0.546593   4.132657
     H   33   0.487021   0.587645   4.201001
     O   34   0.089030   0.046404   0.074541  12.683972
     O   35   0.064878   0.039429   0.046425   2.098595   9.401456
     O   36   0.007518   0.004888   0.006113   0.195982   0.061209   5.099622
     H   37   0.003298   0.001880   0.002569   0.062432   0.032295   2.895963
     H   38   0.010977   0.006757   0.008178   0.102321   0.079765   2.925440
     O   39   0.055004   0.109592   0.013078   0.220482   0.068670   0.016999
     H   40   0.026204   0.021995   0.004286   0.054289   0.023092   0.009126
     H   41   0.059788   0.122731   0.009963   0.228222   0.105321   0.029900
     O   42   0.001559   0.001176   0.000863   0.008432   0.011219   0.035685
     H   43   0.000675   0.000397   0.000375   0.004579   0.004726   0.011533
     H   44   0.001450   0.000940   0.000950   0.008913   0.012710   0.029020
     O   45   0.003099   0.002665   0.003199   0.043691   0.030689   0.379289
     H   46   0.002143   0.002160   0.002735   0.058441   0.028324   0.215969
     H   47   0.001002   0.000796   0.000935   0.010227   0.005075   0.076777


                  H 37       H 38       O 39       H 40       H 41       O 42
 ------------------------------------------------------------------------------
     H   37   3.550750
     H   38   1.048354   3.624882
     O   39   0.010411   0.027292   5.054554
     H   40   0.004656   0.008701   3.042809   3.691565
     H   41   0.012700   0.041572   2.915871   1.033775   3.517680
     O   42   0.050169   0.032657   0.004909   0.003486   0.004450   5.097373
     H   43   0.011206   0.005126   0.002502   0.001902   0.002007   3.064094
     H   44   0.039536   0.010769   0.004182   0.002396   0.003955   2.859647
     O   45   0.067778   0.055835   0.007722   0.002955   0.008873   0.017509
     H   46   0.158410   0.141031   0.007261   0.003022   0.009070   0.022157
     H   47   0.017757   0.015046   0.002603   0.001004   0.002818   0.007190


                  H 43       H 44       O 45       H 46       H 47
 ------------------------------------------------------------------
     H   43   3.715922
     H   44   1.058848   3.552254
     O   45   0.005213   0.017937   5.122456
     H   46   0.004198   0.010592   2.758087   3.226761
     H   47   0.002063   0.006770   3.066509   0.990987   3.689877


          HEAT OF FORMATION =    -413.864054 KCALS/MOLE


          TRIVIAL VIBRATIONS, SHOULD BE ZERO

 -12.1145=TX -21.2250=TY  21.2379=TZ  39.5455=RX -23.1567=RY  -4.2853=RZ


      MOLECULAR POINT GROUP   :   C1  


           EIGENVECTORS  


   Root No.       1         2         3         4         5         6         7         8

                 1 A       2 A       3 A       4 A       5 A       6 A       7 A       8 A   

                  -0.2      -0.1      -0.0      -0.0      -0.0       0.0       0.0       0.0
  
           1    0.0045    0.0095   -0.0390   -0.0073   -0.0326   -0.0297    0.0119    0.0049
           2    0.0059    0.0186    0.0332   -0.0444   -0.0097    0.0054    0.0294   -0.0185
           3   -0.0070    0.0062   -0.1192   -0.0065   -0.0238   -0.0303   -0.0302    0.0374
           4    0.0045    0.0092   -0.0397   -0.0071   -0.0320   -0.0312    0.0114    0.0052
           5    0.0053    0.0108   -0.0020   -0.0159   -0.0088    0.0024    0.0011   -0.0189
           6   -0.0019    0.0047   -0.0082   -0.0157   -0.0010    0.0232    0.0112    0.0050
           7    0.0040    0.0166   -0.0048   -0.0361   -0.0328   -0.0260    0.0402    0.0050
           8    0.0050    0.0091   -0.0114   -0.0073   -0.0080    0.0009   -0.0054   -0.0191
           9    0.0046    0.0143    0.0272   -0.0119    0.0291   -0.0311    0.0078   -0.0268
          10    0.0045    0.0212    0.0104   -0.0518   -0.0338   -0.0241    0.0521    0.0049
          11    0.0058    0.0184    0.0159   -0.0325   -0.0102    0.0031    0.0180   -0.0178
          12   -0.0006    0.0407    0.0233   -0.0279    0.0214   -0.0228   -0.0001   -0.0525
          13    0.0016    0.0083   -0.1197    0.0085   -0.0436   -0.0679   -0.0179    0.0263
          14    0.0026    0.0031   -0.0172   -0.0131   -0.0268    0.0458    0.0002   -0.0036
          15   -0.0023    0.0009    0.0108   -0.0196   -0.0069    0.0581    0.0199    0.0054
          16   -0.0006    0.0276   -0.0013   -0.0591   -0.0395    0.0057    0.0428   -0.0026
          17    0.0031   -0.0021   -0.0397    0.0070   -0.0170    0.0230   -0.0052    0.0069
          18    0.0083    0.0094    0.0306   -0.0035    0.0353   -0.0533    0.0028   -0.0285
          19    0.0046    0.0144   -0.0093   -0.0417   -0.0352   -0.0279    0.0394    0.0064
          20    0.0066    0.0123    0.0637   -0.0825   -0.0112    0.0097    0.0588   -0.0137
          21   -0.0085    0.0190   -0.1649   -0.0084   -0.0464   -0.0660   -0.0883    0.0124
          22    0.0068    0.0120    0.0798   -0.0529   -0.0100   -0.0028    0.1058   -0.0206
          23    0.0090    0.0166    0.1730   -0.0617    0.0114    0.0417    0.1399   -0.0807
          24   -0.0065    0.0234   -0.0753    0.0163   -0.0292   -0.0394   -0.0216   -0.0503
          25    0.0051    0.0166   -0.0081   -0.0228   -0.0299   -0.0238    0.0350    0.0006
          26    0.0072    0.0128    0.1088   -0.0874   -0.0037    0.0208    0.0946   -0.0346
          27   -0.0129    0.0123   -0.3522   -0.0409   -0.0918   -0.1234   -0.2207    0.1128
          28    0.0018    0.0093   -0.0963   -0.0556   -0.0634   -0.0572   -0.0161    0.0387
          29    0.0035    0.0057   -0.0710   -0.1212   -0.0398   -0.0316   -0.0379    0.0742
          30   -0.0079    0.0202   -0.1360    0.0034   -0.0432   -0.0579   -0.0661   -0.0125
          31    0.0046    0.0161   -0.0133   -0.0338   -0.0346   -0.0277    0.0346    0.0056
          32    0.0065    0.0174    0.0373   -0.0533   -0.0122    0.0067    0.0339   -0.0153
          33   -0.0058    0.0188   -0.0846   -0.0143   -0.0135   -0.0389   -0.0350   -0.0021
          34    0.0064    0.0293    0.0352   -0.0763   -0.0392   -0.0206    0.0622    0.0089
          35    0.0064    0.0163    0.0180   -0.0351   -0.0115    0.0037    0.0182   -0.0170
          36   -0.0040    0.0858    0.0904   -0.0482    0.0379   -0.0080    0.0097   -0.1081
          37    0.0041    0.0073   -0.0590    0.0108   -0.0315   -0.0334   -0.0046    0.0050
          38    0.0068    0.0196    0.0514   -0.0598   -0.0102    0.0087    0.0425   -0.0200
          39   -0.0136    0.0026   -0.2288   -0.0026   -0.0529   -0.0596   -0.0716    0.0873
          40    0.0103    0.0066    0.0080   -0.0278   -0.0226   -0.0576    0.0356    0.0134
          41    0.0069    0.0126   -0.0084    0.0065    0.0110   -0.0333   -0.0305   -0.0457
          42    0.0108    0.0081    0.0359   -0.0001    0.0437   -0.0720   -0.0074   -0.0314
          43    0.0129    0.0061    0.0062   -0.0332   -0.0215   -0.0889    0.0602    0.0223
          44    0.0082    0.0147   -0.0096    0.0044    0.0142   -0.0548   -0.0212   -0.0456
          45    0.0141    0.0192    0.0310    0.0006    0.0569   -0.1230    0.0009   -0.0458
          46    0.0084   -0.0002    0.0221   -0.0027   -0.0233    0.0151    0.0140   -0.0211
          47    0.0092    0.0138   -0.0068   -0.0033    0.0098   -0.0502   -0.0143   -0.0383
          48   -0.0032   -0.0017    0.0245   -0.0240   -0.0124    0.0873    0.0237    0.0071
          49    0.0092   -0.0049    0.0469   -0.0024   -0.0236    0.0488    0.0211   -0.0382
          50    0.0098    0.0181   -0.0280   -0.0007    0.0157   -0.0978   -0.0285   -0.0235
          51   -0.0085   -0.0010    0.0081   -0.0357   -0.0329    0.1311    0.0452    0.0178
          52    0.0129   -0.0057    0.0420    0.0026   -0.0115   -0.0109   -0.0161   -0.0097
          53    0.0132    0.0191   -0.0108    0.0081    0.0313   -0.1132   -0.0265   -0.0573
          54    0.0002    0.0006    0.0263   -0.0156    0.0037    0.0427    0.0094   -0.0023
          55    0.0156   -0.0118    0.0627    0.0160   -0.0036   -0.0007   -0.0476   -0.0148
          56    0.0164    0.0234   -0.0126    0.0131    0.0472   -0.1649   -0.0303   -0.0690
          57   -0.0022   -0.0016    0.0259   -0.0202   -0.0070    0.0743    0.0149    0.0053
          58    0.0142   -0.0061    0.0317   -0.0083   -0.0103   -0.0483   -0.0122    0.0081
          59    0.0129    0.0193   -0.0081    0.0108    0.0311   -0.1040   -0.0275   -0.0620
          60    0.0063    0.0048    0.0325   -0.0054    0.0291   -0.0274   -0.0043   -0.0197
          61    0.0167   -0.0119    0.0419   -0.0045   -0.0013   -0.0701   -0.0398    0.0193
          62    0.0157    0.0232   -0.0057    0.0167    0.0459   -0.1466   -0.0284   -0.0782
          63    0.0089    0.0059    0.0362   -0.0012    0.0398   -0.0574   -0.0106   -0.0268
          64    0.0072   -0.0021    0.0243   -0.0056   -0.0298    0.0438    0.0256   -0.0335
          65    0.0082    0.0054    0.0293   -0.0113   -0.0028    0.0329    0.0071   -0.0617
          66   -0.0019   -0.0113    0.0791   -0.0297   -0.0167    0.1483    0.0242    0.0037
          67    0.0048   -0.0031    0.0077   -0.0076   -0.0386    0.0673    0.0310   -0.0381
          68    0.0047    0.0012    0.0136   -0.0133   -0.0168    0.0696   -0.0146   -0.0348
          69   -0.0058   -0.0154    0.0596   -0.0320   -0.0324    0.1892    0.0060    0.0270
          70    0.0117   -0.0075    0.0847   -0.0107   -0.0255    0.0801    0.0488   -0.0646
          71    0.0122    0.0092    0.0518   -0.0108    0.0114    0.0011    0.0348   -0.0958
          72   -0.0029   -0.0164    0.0939   -0.0328   -0.0240    0.1866    0.0180    0.0101
          73    0.0057    0.0023   -0.0164   -0.0005   -0.0293    0.0054    0.0051   -0.0080
          74    0.0066   -0.0009    0.0492   -0.0175   -0.0134    0.0920    0.0152   -0.0715
          75    0.0041   -0.0090    0.1253   -0.0298    0.0010    0.1186    0.0509   -0.0302
          76    0.0072    0.0122    0.0037   -0.0340   -0.0279   -0.0519    0.0489    0.0129
          77    0.0006   -0.0019    0.0015    0.0135    0.0078    0.0300   -0.0698   -0.0497
          78    0.0226   -0.0089    0.0518    0.0201    0.0618   -0.0979   -0.0505   -0.0299
          79    0.0039    0.0322   -0.0084   -0.0483   -0.0396   -0.0543    0.0905    0.0087
          80    0.0008   -0.0093    0.0139    0.0382    0.0218    0.0441   -0.0858   -0.0736
          81    0.0229   -0.0091    0.0473    0.0095    0.0576   -0.1048   -0.0496   -0.0156
          82    0.0069    0.0008    0.0096   -0.0376   -0.0334   -0.0146    0.0297    0.0198
          83    0.0003   -0.0081    0.0037    0.0101    0.0045    0.0480   -0.0775   -0.0445
          84    0.0211   -0.0159    0.0680    0.0538    0.0835   -0.0969   -0.0839   -0.0586
          85   -0.0168    0.0215   -0.0423    0.0372   -0.0063   -0.0477    0.0249   -0.0090
          86   -0.0111   -0.0164   -0.0130   -0.0142   -0.0136    0.0549   -0.0677   -0.0127
          87   -0.0134   -0.0365   -0.0043    0.0062    0.0279   -0.0493   -0.0442    0.0351
          88   -0.0351    0.0302   -0.0544    0.0814    0.0210   -0.0856   -0.0496   -0.0263
          89   -0.0405   -0.0171   -0.0243   -0.0484   -0.0413    0.0753   -0.0402    0.0410
          90   -0.0367   -0.0289   -0.0182    0.0233    0.0355   -0.0693   -0.0863    0.0477
          91    0.0298    0.0354   -0.0585    0.1019    0.0394   -0.1353   -0.0574   -0.0487
          92    0.0170   -0.0084   -0.0300   -0.0588   -0.0449    0.0462    0.0007    0.0432
          93    0.0216   -0.0198   -0.0239   -0.0186    0.0101   -0.0749    0.0027    0.0784
          94   -0.0065    0.0289   -0.0466    0.0651    0.0164   -0.1016   -0.0015   -0.0305
          95   -0.1246   -0.0228   -0.0278   -0.0358   -0.0450    0.1423   -0.1004    0.0474
          96   -0.0801   -0.0199   -0.0372    0.0560    0.0497   -0.0797   -0.1568    0.0521
          97   -0.0813    0.0278   -0.0661    0.1113    0.0297   -0.0547   -0.1466   -0.0135
          98   -0.0363   -0.0107   -0.0358   -0.0687   -0.0579    0.0752   -0.0077    0.0691
          99   -0.0492   -0.0334   -0.0117    0.0508    0.0528   -0.0592   -0.1412    0.0221
         100   -0.0558    0.0160   -0.0796    0.0485   -0.0245    0.0328    0.0710   -0.0110
         101   -0.0019    0.0024   -0.0130    0.0176    0.0062    0.0516   -0.0877   -0.0502
         102   -0.0491   -0.0571   -0.0363   -0.0107   -0.0049    0.0235    0.0128    0.0637
         103    0.0181    0.0152    0.0115   -0.0141   -0.0086   -0.1054    0.0252    0.0062
         104   -0.0029   -0.0138   -0.0081   -0.0163   -0.0125    0.0495   -0.0685   -0.0133
         105    0.0296   -0.0154    0.0507    0.0140    0.0618   -0.1240   -0.0694   -0.0120
         106    0.0028    0.1163    0.0657   -0.1209   -0.0388    0.0066    0.0224   -0.0980
         107    0.0020    0.0450   -0.0096    0.1193    0.0662   -0.0723    0.1201    0.1042
         108    0.0150    0.0464    0.0508   -0.1334   -0.0095    0.0248   -0.0496   -0.0400
         109    0.0099   -0.2224    0.0609   -0.1148   -0.0455    0.0006   -0.0051   -0.0553
         110   -0.0003    0.3129   -0.0109    0.0283   -0.0108   -0.0442    0.0996    0.0099
         111    0.0066    0.5253    0.0584   -0.0927    0.0456    0.0205    0.0118   -0.0643
         112    0.0113   -0.1499    0.0569   -0.1448   -0.0898   -0.0010    0.0021   -0.0824
         113    0.0114   -0.4528   -0.0079    0.1338    0.1252   -0.0396    0.0140    0.1465
         114    0.0279   -0.3007    0.0407   -0.1581   -0.0591    0.0186   -0.0809   -0.0156
         115    0.4195    0.0294   -0.2230    0.1979    0.0375    0.3004   -0.1183   -0.1561
         116    0.4101    0.0119   -0.0981    0.0649    0.0174    0.1669   -0.0686    0.0061
         117    0.5248    0.0195   -0.1371    0.0034   -0.0045    0.1805    0.2067    0.2602
         118   -0.2189    0.0210   -0.1097    0.1133    0.0240    0.2069   -0.0177   -0.1748
         119   -0.2238    0.0003    0.0253   -0.0276    0.0014    0.0650    0.0213   -0.0312
         120   -0.2442    0.0230   -0.0696   -0.0482   -0.0059    0.1388    0.3885    0.3376
         121   -0.2786    0.0346   -0.2619    0.2377    0.0476    0.3347   -0.0959   -0.1057
         122   -0.2052    0.0034   -0.0754    0.0607    0.0138    0.1409   -0.1214   -0.0576
         123   -0.2210    0.0127   -0.1192    0.0041   -0.0078    0.1614    0.1439    0.1893
         124   -0.0004   -0.2632   -0.0218   -0.0091    0.0040   -0.0265    0.0941    0.0194
         125    0.0018   -0.1303   -0.0285   -0.1516   -0.0148   -0.0185   -0.0636    0.1190
         126   -0.0029   -0.2922    0.0405    0.2056    0.1252    0.0111    0.1902   -0.2732
         127    0.0051    0.0105    0.2385    0.1385   -0.3360   -0.0144   -0.1559    0.3135
         128    0.0050   -0.0191    0.0995   -0.0308   -0.1781   -0.0073   -0.1667    0.2185
         129    0.0067    0.0438    0.4172    0.5457   -0.3568    0.0427   -0.1216    0.0327
         130    0.0043   -0.0824   -0.0150   -0.0502   -0.0016   -0.0265    0.0941    0.0005
         131    0.0047   -0.0590   -0.0027   -0.1004   -0.0415   -0.0111   -0.0623    0.0856
         132    0.0029   -0.0806    0.0171    0.0628    0.1545    0.0012    0.1929   -0.2604
         133   -0.0052    0.0285    0.1537   -0.0851    0.3379    0.1096   -0.1911    0.1365
         134   -0.0016    0.0187   -0.0421    0.1864    0.0698   -0.0990    0.1542    0.1050
         135    0.0074    0.0034   -0.0135   -0.0675   -0.1237   -0.0429    0.0485   -0.1189
         136    0.0015    0.0342    0.0855   -0.0043    0.2051    0.0390   -0.0191    0.0622
         137    0.0014    0.0184   -0.0321    0.1696    0.0818   -0.0896    0.1385    0.1089
         138    0.0169   -0.0198    0.0290   -0.1428   -0.0716    0.0027   -0.0364   -0.1021
         139   -0.0031    0.0639    0.2049    0.0402    0.5883    0.0714   -0.1666    0.3083
         140   -0.0044    0.0392   -0.0988    0.3150    0.0177   -0.1794    0.3160    0.0901
         141    0.0086    0.0235    0.0084    0.0222    0.0141   -0.0756    0.0838   -0.0227


   Root No.       9        10        11        12        13        14        15        16

                 9 A      10 A      11 A      12 A      13 A      14 A      15 A      16 A   

                   0.0       0.0       0.0       0.0       0.0       0.0       0.0       0.0
  
           1   -0.0020    0.0028   -0.0078    0.0025   -0.0303   -0.0464    0.0139    0.0579
           2   -0.0282    0.0635    0.0020   -0.0051    0.0125   -0.0159    0.0366    0.0165
           3   -0.0271    0.0176    0.0015    0.0237   -0.0660   -0.1019    0.0077    0.1803
           4   -0.0011    0.0023   -0.0088    0.0017   -0.0316   -0.0462    0.0127    0.0569
           5   -0.0417    0.0515   -0.0106    0.0236    0.0258   -0.0642    0.0415    0.0580
           6   -0.0080   -0.0021    0.0051    0.0324   -0.0572   -0.0537   -0.0271    0.0759
           7    0.0110    0.0150    0.0042   -0.0256   -0.0431    0.0077    0.0085    0.0117
           8   -0.0448    0.0479   -0.0135    0.0313    0.0278   -0.0785    0.0424    0.0697
           9    0.0524   -0.0508   -0.0258    0.0212   -0.0554   -0.0120   -0.0615    0.0046
          10    0.0162    0.0222    0.0114   -0.0395   -0.0468    0.0334    0.0075   -0.0098
          11   -0.0356    0.0608   -0.0040    0.0073    0.0180   -0.0369    0.0400    0.0360
          12    0.0770   -0.0776    0.0168    0.0047   -0.0333    0.0365   -0.1050   -0.0817
          13   -0.0176    0.0132   -0.0142    0.0085   -0.0515   -0.1135    0.0325    0.1561
          14   -0.0818    0.0788    0.0061    0.0270    0.0394   -0.0896    0.0611    0.0889
          15   -0.0230    0.0080    0.0156    0.0311   -0.0411   -0.0418   -0.0230    0.0573
          16    0.0115    0.0116    0.0395   -0.0243   -0.0473    0.0283   -0.0178   -0.0289
          17   -0.0833    0.0726   -0.0077    0.0528    0.0187   -0.1285    0.0719    0.1384
          18    0.0593   -0.0533   -0.0471    0.0146   -0.0473   -0.0139   -0.0508    0.0137
          19    0.0104    0.0187    0.0068   -0.0308   -0.0366    0.0222    0.0135   -0.0012
          20   -0.0195    0.0852    0.0068   -0.0356   -0.0065    0.0591    0.0305   -0.0459
          21    0.0252   -0.0522    0.0828   -0.0281    0.1541    0.0629    0.0730   -0.0588
          22    0.0471    0.0007    0.0485   -0.0494   -0.1119   -0.0197   -0.0143    0.0454
          23    0.0876   -0.0320    0.2485   -0.1143    0.0837   -0.0533    0.1417    0.0417
          24    0.1260   -0.1685    0.3222   -0.1046    0.2680   -0.0424    0.1959    0.0197
          25    0.0088    0.0071    0.0035   -0.0122   -0.0497   -0.0340    0.0046    0.0504
          26    0.0186    0.0534    0.0865   -0.0711    0.0162    0.0480    0.0640   -0.0396
          27   -0.1252    0.1104   -0.2303    0.0624    0.1004    0.2677   -0.0355   -0.2308
          28   -0.0218    0.0501   -0.0288   -0.0368    0.0507    0.1344    0.0513   -0.1114
          29   -0.1574    0.2459   -0.3111    0.0587   -0.1319    0.2329   -0.1188   -0.1844
          30    0.0675   -0.1028    0.1915   -0.0648    0.2228    0.0267    0.1387   -0.0351
          31    0.0081    0.0152    0.0040   -0.0232   -0.0376    0.0032    0.0120    0.0158
          32   -0.0288    0.0705    0.0023   -0.0109    0.0101   -0.0011    0.0373    0.0056
          33    0.0271   -0.0381    0.0274    0.0037   -0.0108   -0.0113   -0.0280    0.0265
          34    0.0276    0.0267    0.0152   -0.0546   -0.0524    0.0705   -0.0056   -0.0443
          35   -0.0351    0.0618   -0.0043    0.0060    0.0182   -0.0326    0.0393    0.0316
          36    0.1166   -0.1109    0.0386   -0.0082   -0.0201    0.0971   -0.1796   -0.2041
          37   -0.0087   -0.0054   -0.0168    0.0198   -0.0249   -0.0770    0.0150    0.0850
          38   -0.0211    0.0684    0.0087   -0.0192    0.0105    0.0143    0.0336   -0.0146
          39   -0.0828    0.0713   -0.0314    0.0365   -0.0882   -0.1558    0.0484    0.3121
          40    0.0062    0.0329   -0.0318   -0.0405   -0.0222    0.0024    0.0537    0.0416
          41   -0.0020   -0.0019   -0.0361    0.0269    0.0360   -0.0624    0.0048    0.0314
          42    0.0674   -0.0583   -0.0655    0.0063   -0.0351   -0.0105   -0.0402    0.0138
          43   -0.0046    0.0566   -0.0295    0.0098   -0.0481   -0.0280    0.0844    0.0724
          44    0.0027   -0.0006   -0.0369    0.0513    0.0174   -0.0715    0.0082    0.0411
          45    0.1003   -0.0861   -0.0707    0.0557   -0.0745   -0.0189   -0.0612    0.0029
          46    0.0033   -0.0241   -0.0125    0.0304    0.0206    0.0024   -0.0009   -0.0339
          47   -0.0031    0.0114   -0.0361    0.0442    0.0176   -0.0640    0.0200    0.0450
          48   -0.0362    0.0166    0.0243    0.0291   -0.0240   -0.0280   -0.0174    0.0402
          49    0.0035   -0.0469    0.0025    0.0950    0.0308    0.0201   -0.0248   -0.0927
          50    0.0050    0.0300   -0.0658   -0.0379    0.0187   -0.0721    0.0502    0.1035
          51   -0.0654    0.0334    0.0715    0.0858   -0.0606   -0.0583   -0.0344    0.0447
          52    0.0085   -0.0005   -0.0708   -0.1184    0.0944    0.0488    0.0571   -0.0151
          53    0.0405   -0.0268   -0.0629    0.0570   -0.0011   -0.0686   -0.0044    0.0347
          54   -0.0078   -0.0022   -0.0051    0.0036   -0.0194   -0.0207   -0.0201    0.0382
          55    0.0110   -0.0050   -0.1102   -0.2109    0.1748    0.0870    0.0836   -0.0369
          56    0.0734   -0.0510   -0.0823    0.0694   -0.0228   -0.0721   -0.0208    0.0299
          57   -0.0286    0.0132    0.0106    0.0050   -0.0131   -0.0218   -0.0125    0.0424
          58    0.0118    0.0239   -0.0817   -0.1493    0.0703    0.0486    0.0780    0.0238
          59    0.0398   -0.0331   -0.0598    0.0656    0.0045   -0.0688   -0.0102    0.0243
          60    0.0395   -0.0366   -0.0441   -0.0068   -0.0256   -0.0110   -0.0333    0.0224
          61    0.0173    0.0404   -0.1296   -0.2641    0.1255    0.0873    0.1253    0.0412
          62    0.0713   -0.0633   -0.0751    0.0956   -0.0138   -0.0723   -0.0305    0.0079
          63    0.0592   -0.0506   -0.0637   -0.0132   -0.0246   -0.0047   -0.0348    0.0168
          64    0.0019   -0.0474    0.0179    0.1241   -0.0011   -0.0020   -0.0391   -0.0792
          65   -0.0185   -0.0181    0.0121    0.1793    0.0252   -0.0372   -0.0240   -0.0564
          66   -0.0599    0.0335    0.0175   -0.0083    0.0599    0.0408    0.0235   -0.0039
          67    0.0004   -0.0626    0.0597    0.1709   -0.0656   -0.0853   -0.1370   -0.1626
          68   -0.0470    0.0365    0.0376   -0.0291   -0.0257   -0.2292   -0.1593   -0.1957
          69   -0.0867    0.0794    0.0539   -0.1862   -0.0065   -0.1612   -0.1302   -0.1564
          70    0.0028   -0.0885    0.0045    0.3094    0.1066    0.2147    0.0905   -0.0259
          71    0.0115   -0.0848   -0.0117    0.4404    0.0862    0.1880    0.1266    0.0895
          72   -0.0789    0.0559    0.0266   -0.0812    0.0740    0.0052   -0.0073   -0.0698
          73    0.0022   -0.0107    0.0116   -0.0371   -0.0599   -0.1408   -0.1051   -0.0921
          74   -0.0327   -0.0288    0.0448    0.2298    0.0258   -0.0425   -0.0696   -0.1422
          75   -0.0350   -0.0211   -0.0304    0.2268    0.1797    0.3358    0.2441    0.1807
          76    0.0063    0.0319   -0.0198   -0.0223   -0.0414   -0.0025    0.0478    0.0403
          77    0.0043   -0.0268   -0.0447   -0.0719    0.0820   -0.0127   -0.0293   -0.0079
          78    0.0648   -0.0507   -0.1091   -0.0517    0.0360    0.0023   -0.0077    0.0200
          79    0.0080    0.0343    0.0009    0.0417   -0.0935   -0.0319    0.0410    0.0504
          80    0.0260   -0.0581   -0.1015   -0.1219    0.1735   -0.0164   -0.0578   -0.0421
          81    0.0528   -0.0347   -0.0824   -0.0357   -0.0034    0.0084    0.0090    0.0354
          82    0.0072    0.0220   -0.0170   -0.0782   -0.0387    0.0282    0.0349    0.0183
          83    0.0042   -0.0309   -0.0412   -0.0961    0.0778    0.0009   -0.0341   -0.0191
          84    0.0846   -0.0781   -0.1796   -0.1146    0.1592   -0.0001   -0.0309   -0.0080
          85   -0.0429    0.0274   -0.0213    0.0462    0.0942   -0.1396    0.0838   -0.1026
          86   -0.0199   -0.0070    0.0144   -0.0736   -0.0076    0.0087    0.0024   -0.0087
          87   -0.0129   -0.0138   -0.0041    0.0046   -0.0390   -0.0452    0.1025   -0.0823
          88   -0.0980    0.0737    0.1273    0.0622    0.1185   -0.0473   -0.0789   -0.0220
          89   -0.0439    0.0242    0.0839   -0.0681   -0.1038    0.0599    0.0471    0.0069
          90   -0.0643    0.0356    0.1389    0.0187   -0.0666    0.0473    0.0019   -0.0153
          91   -0.3276   -0.0656    0.1914    0.0395    0.1614   -0.0046   -0.2030    0.0232
          92   -0.3068   -0.1592    0.1128   -0.1036   -0.1115    0.0862    0.0093    0.0238
          93   -0.3246   -0.1669    0.1252   -0.0239   -0.1176    0.0512    0.0522   -0.0276
          94   -0.2378   -0.0670    0.0694    0.0328    0.1365   -0.0796   -0.0586   -0.0415
          95    0.3654    0.3197    0.0604   -0.0130   -0.1327    0.0330    0.1345   -0.0250
          96   -0.0508    0.1436    0.3029    0.0462   -0.0847    0.1486   -0.1230    0.0576
          97    0.2120    0.3780    0.2405    0.1243    0.0844    0.0156   -0.1198    0.0193
          98   -0.1844   -0.0456    0.1390   -0.0825   -0.1585    0.0999    0.0529    0.0211
          99    0.1422    0.1740    0.1139    0.0469   -0.0224    0.0241   -0.0119   -0.0204
         100   -0.0405   -0.0298   -0.1204    0.0798    0.1497   -0.3121    0.2202   -0.2982
         101   -0.0044   -0.0252   -0.0243   -0.0716    0.0586   -0.0207   -0.0240   -0.0232
         102   -0.0226   -0.0482   -0.0593    0.0348   -0.0453   -0.1709    0.2463   -0.2406
         103   -0.0004    0.0532   -0.0230   -0.0149    0.0015    0.0041    0.0431    0.0767
         104   -0.0146   -0.0044    0.0134   -0.0761   -0.0111    0.0214   -0.0029    0.0070
         105    0.0458   -0.0205   -0.0705   -0.0484    0.0038    0.0303    0.0063    0.0567
         106    0.0349    0.0271    0.0038    0.0016    0.0459    0.0296   -0.1900    0.0423
         107    0.0374   -0.0245    0.0374   -0.0420   -0.0871    0.0619    0.0683   -0.1161
         108    0.0057    0.0017   -0.0144   -0.0158   -0.0975   -0.0129    0.0575   -0.0847
         109    0.0534   -0.0149   -0.0027    0.0297    0.0320   -0.0139   -0.1843    0.0478
         110    0.0052    0.0329    0.0300   -0.0575   -0.0399    0.0460    0.0832   -0.0410
         111   -0.0104    0.0454    0.0002   -0.0582   -0.0993    0.0696    0.0422   -0.1361
         112    0.0450    0.0031   -0.0049    0.0296    0.0398   -0.0290   -0.1647    0.0803
         113    0.0616   -0.0984    0.0167   -0.0062   -0.0578    0.0138    0.0105   -0.1527
         114    0.0212   -0.0348   -0.0276    0.0213   -0.1001   -0.0866    0.0774   -0.0505
         115    0.0835   -0.1213   -0.0383   -0.0018   -0.1827    0.0518    0.0814    0.0209
         116    0.0556    0.0292    0.0180   -0.0960    0.1225    0.0597   -0.2083    0.1188
         117    0.0638    0.0629   -0.0269    0.0352    0.0989   -0.0248   -0.0436    0.0304
         118   -0.0011   -0.2788   -0.1588   -0.0315   -0.2150    0.0932    0.0655    0.1110
         119   -0.0441   -0.1548   -0.1058   -0.1338    0.0443    0.1137   -0.1970    0.2089
         120    0.0573    0.0134   -0.1649    0.0379    0.3203   -0.0513   -0.2160    0.1334
         121    0.1275   -0.0402   -0.0283    0.0264   -0.0082   -0.0196    0.0022   -0.0214
         122    0.0043   -0.0371    0.0224   -0.1110    0.0204    0.0655   -0.1225    0.0745
         123    0.0119   -0.0038   -0.0191    0.0204   -0.0069   -0.0200    0.0482   -0.0197
         124   -0.0122    0.0602    0.0277   -0.0618   -0.0554    0.1277    0.0555    0.0117
         125    0.0992   -0.1330    0.0552    0.0336    0.0206    0.0286   -0.0263   -0.0488
         126   -0.1561    0.2453   -0.0351   -0.0568    0.0068    0.0683    0.0502   -0.0028
         127    0.1516   -0.2156    0.0972   -0.0090   -0.0827    0.0656   -0.0385    0.0030
         128    0.0864   -0.1430    0.0094    0.0629    0.0206   -0.0117   -0.0306   -0.0345
         129   -0.1657    0.1777   -0.1476    0.0302    0.0039   -0.0495    0.0230    0.0320
         130    0.0090    0.0466    0.0334   -0.0660   -0.0501    0.1194    0.0266   -0.0275
         131    0.0175   -0.0222   -0.0251    0.0400    0.0347    0.0079    0.0010   -0.0429
         132   -0.0046    0.0676    0.0908   -0.0756   -0.0043    0.0806   -0.0335   -0.0768
         133   -0.0713    0.0296   -0.0227    0.0441    0.0294   -0.0508    0.0082    0.0375
         134    0.0386   -0.0312    0.0232   -0.0163   -0.0771    0.0319    0.0151   -0.0204
         135    0.0446   -0.0159   -0.0367    0.0160   -0.0810   -0.0441   -0.0652    0.0459
         136   -0.0030    0.0070    0.0072    0.0324    0.0219    0.0294   -0.1607   -0.0459
         137    0.0304   -0.0238    0.0223   -0.0179   -0.0787    0.0241    0.0323   -0.0240
         138    0.0017    0.0170   -0.0488    0.0143   -0.0822   -0.0967    0.0266    0.0535
         139   -0.0574   -0.0093   -0.0284    0.0394   -0.0605   -0.0515    0.0886    0.0522
         140    0.1119   -0.0786    0.0468   -0.0202   -0.0997    0.1173   -0.1358   -0.0695
         141    0.0627   -0.0449   -0.0374    0.0132   -0.1349   -0.0332   -0.0411    0.0481


   Root No.      17        18        19        20        21        22        23        24

                17 A      18 A      19 A      20 A      21 A      22 A      23 A      24 A   

                   0.0       0.0       0.0       0.0       0.0       0.0       0.1       0.1
  
           1   -0.0051    0.0032    0.0203   -0.0128    0.0277    0.0533    0.0275   -0.0154
           2   -0.0174   -0.0157   -0.0019    0.0041   -0.0421   -0.0229    0.0212    0.0027
           3    0.0166    0.0711    0.0536   -0.0743    0.0144    0.0072   -0.0610    0.0616
           4   -0.0043    0.0031    0.0202   -0.0130    0.0308    0.0526    0.0243   -0.0140
           5    0.0094   -0.0201    0.0126    0.0273   -0.0670    0.0221    0.0502   -0.0204
           6    0.0068    0.0409    0.0290   -0.0464    0.0208    0.0020   -0.0435    0.0070
           7   -0.0294    0.0098    0.0038   -0.0310    0.0526    0.0041   -0.0087    0.0013
           8    0.0157   -0.0204    0.0151    0.0344   -0.0692    0.0351    0.0583   -0.0245
           9   -0.0095    0.0300    0.0137   -0.0453    0.0324    0.0134   -0.0622   -0.0282
          10   -0.0426    0.0090   -0.0002   -0.0505    0.0615   -0.0187   -0.0231    0.0150
          11   -0.0115   -0.0205    0.0033    0.0131   -0.0501   -0.0023    0.0366   -0.0048
          12   -0.0635    0.0654   -0.0093   -0.0955    0.0413    0.1047   -0.0386   -0.0386
          13    0.0121    0.0299    0.0477   -0.0287    0.0264    0.0778    0.0271    0.0178
          14    0.0226   -0.0220    0.0181    0.0444   -0.0867    0.0309    0.0805   -0.0171
          15    0.0079    0.0311    0.0222   -0.0321    0.0115   -0.0019   -0.0299   -0.0020
          16   -0.0580    0.0421   -0.0004   -0.0823    0.0730    0.0512   -0.0023    0.0071
          17    0.0423   -0.0241    0.0343    0.0566   -0.0896    0.0345    0.1012   -0.0094
          18    0.0006    0.0110    0.0182   -0.0276    0.0218   -0.0105   -0.0778   -0.0375
          19   -0.0319   -0.0015    0.0046   -0.0373    0.0699   -0.0059   -0.0233    0.0119
          20   -0.0259   -0.0198   -0.0102   -0.0270    0.0342   -0.0897   -0.0691    0.0462
          21   -0.0502   -0.0920   -0.0206    0.0333   -0.0279   -0.0481    0.0167    0.0022
          22   -0.0245    0.0643    0.0287   -0.1112    0.1549    0.0176   -0.1169    0.0431
          23   -0.0515   -0.0548    0.0173   -0.0004    0.0865   -0.1269   -0.0938    0.0772
          24   -0.0790   -0.1460    0.0015    0.0818    0.0030   -0.0920    0.0182    0.0249
          25   -0.0228    0.0249    0.0151   -0.0380    0.0275    0.0449    0.0240   -0.0116
          26   -0.0383   -0.0347   -0.0038   -0.0296    0.0844   -0.1246   -0.1148    0.0728
          27   -0.0276   -0.1110   -0.0754    0.0446   -0.1014   -0.0566    0.0561   -0.0339
          28   -0.0492   -0.1005   -0.0300    0.0363    0.0601   -0.0851    0.0006    0.0100
          29    0.0050    0.0202   -0.0483   -0.0728    0.0088   -0.0599   -0.0831    0.0217
          30   -0.0668   -0.1324   -0.0152    0.0690   -0.0209   -0.0820    0.0270    0.0123
          31   -0.0286    0.0045    0.0073   -0.0339    0.0512    0.0099   -0.0042    0.0033
          32   -0.0185   -0.0156   -0.0038   -0.0010   -0.0370   -0.0416    0.0107    0.0130
          33   -0.0154    0.0482    0.0123   -0.0845    0.0105    0.0517   -0.0487    0.0056
          34   -0.0540    0.0208   -0.0136   -0.0640    0.0506   -0.0645   -0.0261    0.0475
          35   -0.0098   -0.0192    0.0029    0.0124   -0.0519   -0.0100    0.0345   -0.0007
          36   -0.1378    0.0942   -0.0259   -0.1414    0.0293    0.2239    0.0134   -0.0907
          37    0.0071    0.0009    0.0275    0.0016    0.0148    0.0853    0.0476   -0.0318
          38   -0.0267   -0.0158   -0.0097   -0.0062   -0.0318   -0.0490    0.0054    0.0130
          39    0.0387    0.0898    0.0894   -0.0900    0.0003   -0.0223   -0.0814    0.1337
          40   -0.0156   -0.0426    0.0249   -0.0005    0.0235   -0.0550   -0.0262   -0.0183
          41    0.0201   -0.0024    0.0085    0.0182   -0.0621    0.0655    0.0310   -0.0367
          42    0.0026   -0.0067    0.0300   -0.0303    0.0108   -0.0163   -0.0841   -0.0521
          43   -0.0221   -0.0992    0.0517    0.0154    0.0003   -0.0879    0.0116   -0.1029
          44    0.0176   -0.0257    0.0204    0.0199   -0.0680    0.0543    0.0410   -0.0733
          45   -0.0047   -0.0284    0.0451   -0.0420    0.0116   -0.0091   -0.0798   -0.1319
          46    0.0080   -0.0537    0.0043    0.0206    0.0103    0.0503    0.0346   -0.0538
          47    0.0168   -0.0291    0.0184    0.0183   -0.0646    0.0249    0.0227   -0.0331
          48    0.0063    0.0212    0.0159   -0.0244    0.0081   -0.0044   -0.0203   -0.0006
          49    0.0259   -0.0977   -0.0024    0.0234    0.0127    0.0133    0.0128   -0.0362
          50   -0.0028    0.0155    0.0255    0.0208   -0.0749    0.0710    0.0456   -0.0653
          51    0.0140    0.0155    0.0169   -0.0466    0.0341   -0.0464   -0.0344    0.0644
          52   -0.0102   -0.0317   -0.0013    0.0590   -0.0320    0.0980    0.0608   -0.0892
          53    0.0196   -0.0329    0.0258    0.0037   -0.0540    0.0214   -0.0107   -0.0524
          54    0.0035    0.0255    0.0186   -0.0251    0.0063    0.0053   -0.0347   -0.0191
          55   -0.0199   -0.0209   -0.0162    0.1111   -0.0810    0.2137    0.1340   -0.1696
          56    0.0214   -0.0413    0.0330   -0.0112   -0.0416   -0.0057   -0.0500   -0.0514
          57    0.0034    0.0284    0.0157   -0.0206    0.0027    0.0113   -0.0173   -0.0129
          58   -0.0069   -0.0312    0.0106    0.0270   -0.0034   -0.0192   -0.0342    0.0404
          59    0.0189   -0.0338    0.0230    0.0115   -0.0612    0.0500    0.0130   -0.0859
          60    0.0025    0.0128    0.0231   -0.0306    0.0129   -0.0092   -0.0722   -0.0253
          61   -0.0097   -0.0175    0.0078    0.0392   -0.0131   -0.0521   -0.0857    0.1444
          62    0.0196   -0.0516    0.0289    0.0081   -0.0601    0.0552    0.0059   -0.1342
          63    0.0022    0.0042    0.0265   -0.0301    0.0113   -0.0141   -0.0880   -0.0320
          64    0.0311   -0.0931    0.0020   -0.0009    0.0375   -0.0154   -0.0172    0.0235
          65    0.0519   -0.1079    0.0052    0.0123   -0.0550   -0.0680   -0.0278    0.0416
          66   -0.0002   -0.0019   -0.0009    0.0272   -0.0528    0.0219    0.0392   -0.0884
          67    0.0661   -0.1752    0.0051   -0.0296    0.0753   -0.1020   -0.0970    0.1361
          68    0.0729   -0.2511    0.0087    0.0540   -0.1079   -0.0702   -0.0125   -0.0062
          69    0.0291   -0.1572    0.0034    0.0576   -0.0910   -0.0039    0.0318   -0.1038
          70    0.0201   -0.0184   -0.0164    0.0019    0.0323   -0.0239   -0.0021    0.0209
          71    0.0340    0.0415    0.0002   -0.0368    0.0033   -0.0847   -0.0569    0.1139
          72    0.0055   -0.0595   -0.0067    0.0596   -0.0932    0.0273    0.0662   -0.1384
          73    0.0280   -0.1251    0.0157    0.0073    0.0285    0.0234   -0.0023   -0.0107
          74    0.0778   -0.1772   -0.0040    0.0131   -0.0565   -0.1350   -0.0661    0.0963
          75   -0.0415    0.1908   -0.0117    0.0089   -0.0328    0.0639    0.0773   -0.1178
          76   -0.0241   -0.0338    0.0242   -0.0006    0.0285   -0.0424   -0.0178   -0.0538
          77    0.0354    0.0814   -0.0301   -0.0093   -0.0187    0.0709   -0.0505    0.1359
          78    0.0267   -0.0492    0.0391   -0.0240   -0.0188   -0.0524   -0.0987    0.0387
          79   -0.0423   -0.0312    0.0328    0.0113    0.0293   -0.0169    0.0165   -0.1907
          80    0.0602    0.1339   -0.0552   -0.0381   -0.0117    0.1409   -0.1058    0.3664
          81    0.0170   -0.0778    0.0508   -0.0137   -0.0222   -0.0928   -0.0767   -0.0537
          82   -0.0185   -0.0041    0.0090   -0.0121    0.0550   -0.0670   -0.0728    0.0303
          83    0.0370    0.0937   -0.0363   -0.0148   -0.0058    0.0569   -0.0759    0.1720
          84    0.0629   -0.0127    0.0164   -0.0530   -0.0247    0.0092   -0.1590    0.3044
          85    0.0133    0.1114   -0.0231   -0.0134    0.0129   -0.0282   -0.0169   -0.0408
          86    0.0130    0.0846   -0.0222    0.0012    0.0060   -0.0073   -0.0332    0.0134
          87   -0.0001    0.0355    0.0263   -0.0051   -0.0106   -0.1188   -0.0542   -0.0906
          88    0.0186    0.0609   -0.0372   -0.0315    0.0330    0.0368    0.0402    0.0319
          89   -0.0343    0.0655   -0.0148    0.0470   -0.0339    0.0408   -0.0790    0.0050
          90   -0.0186   -0.0147    0.0198    0.0050   -0.0192   -0.0433   -0.0366   -0.0351
          91    0.0303    0.0519   -0.0500   -0.0623    0.0666    0.0677    0.0835    0.0820
          92   -0.0463    0.0741   -0.0209    0.0486   -0.0354    0.0724   -0.1014    0.0212
          93   -0.0508    0.0105    0.0226    0.0333   -0.0469   -0.0274   -0.1102   -0.0628
          94    0.0243    0.0853   -0.0353   -0.0414    0.0420    0.0094    0.0303    0.0125
          95   -0.0345    0.0606   -0.0090    0.0714   -0.0604    0.0263   -0.0940   -0.0177
          96   -0.0318   -0.0641    0.0070    0.0097   -0.0191    0.0421   -0.0064    0.0346
          97    0.0088    0.0046   -0.0390   -0.0127    0.0157    0.0907    0.0695    0.0741
          98   -0.0670    0.0683   -0.0180    0.0768   -0.0606    0.0925   -0.1277    0.0109
          99    0.0099   -0.0258    0.0206   -0.0178    0.0014   -0.0773    0.0124   -0.0304
         100    0.0357    0.3249   -0.0643   -0.0304    0.0434   -0.0872   -0.0519   -0.1082
         101    0.0406    0.1281   -0.0346   -0.0203    0.0267   -0.0425   -0.0494   -0.0090
         102   -0.0046    0.1853    0.0004   -0.0005   -0.0054   -0.1340   -0.0753   -0.1258
         103   -0.0148   -0.1037    0.0397    0.0105   -0.0131   -0.0383    0.0024   -0.0316
         104    0.0108    0.0678   -0.0173    0.0037    0.0014   -0.0068   -0.0376    0.0120
         105    0.0193   -0.1128    0.0598   -0.0102   -0.0315   -0.1098   -0.0642   -0.0331
         106   -0.1606    0.1024   -0.0368    0.0715   -0.1731   -0.0018   -0.0363    0.0156
         107   -0.1103   -0.0288   -0.0083   -0.2500   -0.0050    0.0409    0.1961    0.0630
         108   -0.0041    0.0498    0.0643   -0.0127    0.0443   -0.0324    0.2760    0.1158
         109   -0.2534    0.0992   -0.0852    0.0408   -0.1822   -0.0258    0.0038    0.0221
         110   -0.0744   -0.0809   -0.1308   -0.3234   -0.0643    0.0446    0.0649   -0.0082
         111    0.1460    0.0920    0.2200    0.0848    0.0875    0.0030    0.2816    0.1467
         112   -0.2593    0.0618   -0.2025   -0.0174   -0.2203   -0.0079   -0.0694   -0.0300
         113   -0.2024    0.0660    0.2225   -0.1460    0.0430   -0.0690    0.3437    0.1598
         114   -0.1294    0.0182   -0.0907   -0.0955   -0.0020   -0.0507    0.2615    0.0828
         115   -0.0542   -0.0853    0.0129    0.0277   -0.0410    0.0419   -0.0086    0.0295
         116    0.0661    0.1304   -0.0378   -0.1029    0.2040   -0.2763    0.0909   -0.2250
         117   -0.0222   -0.0527    0.0054    0.0071   -0.0677    0.0873   -0.0543    0.0637
[...]
 TRANSITION DIPOLE   0.9615         C 30 -- H 33         +33.4% ( 58.7%)     98.6%
 TRAVEL (Ang.)       0.2831         O 39 -- H 40         +11.5% ( 34.4%)     95.5%
 REDUCED MASS        0.3194         O 39 -- H 41          +5.8% ( 24.5%)     93.7%
 EFFECTIVE MASS      1.3666
 FORCE CONSTANT      1.3048

 VIBRATION        122  122A           ATOM PAIR      ENERGY CONTRIBUTION    RADIAL
 FREQUENCY          2652.73         C 16 -- H 17         +54.9% ( 75.3%)    100.0%
 TRANSITION DIPOLE   0.6686         C 14 -- H 15         +27.3% ( 53.1%)    100.0%
 TRAVEL (Ang.)       0.2583         C 22 -- H 25          +6.1% ( 25.1%)     97.2%
 REDUCED MASS        0.3809         C 22 -- H 23          +6.1% ( 25.0%)     98.8%
 EFFECTIVE MASS      1.3489
 FORCE CONSTANT      1.5793

 VIBRATION        123  123A           ATOM PAIR      ENERGY CONTRIBUTION    RADIAL
 FREQUENCY          2654.16         C 14 -- H 15         +60.0% ( 78.5%)    100.0%
 TRANSITION DIPOLE   0.5441         C 16 -- H 17         +24.1% ( 49.7%)    100.0%
 TRAVEL (Ang.)       0.2466         C 26 -- H 27          +4.2% ( 20.7%)     97.7%
 REDUCED MASS        0.4179         C 22 -- H 23          +3.4% ( 18.7%)     98.7%
 EFFECTIVE MASS      1.3559
 FORCE CONSTANT      1.7347

 VIBRATION        124  124A           ATOM PAIR      ENERGY CONTRIBUTION    RADIAL
 FREQUENCY          2659.12         O 39 -- H 40         +44.0% ( 62.6%)     95.4%
 TRANSITION DIPOLE   0.7220         O 39 -- H 41         +28.0% ( 50.0%)     94.6%
 TRAVEL (Ang.)       0.2823         C 30 -- H 33         +14.7% ( 36.2%)     99.4%
 REDUCED MASS        0.3181         C 30 -- H 31          +9.6% ( 29.2%)     96.2%
 EFFECTIVE MASS      1.1487
 FORCE CONSTANT      1.3253

 VIBRATION        125  125A           ATOM PAIR      ENERGY CONTRIBUTION    RADIAL
 FREQUENCY          2664.91         O 42 -- H 43         +63.5% ( 73.3%)     94.8%
 TRANSITION DIPOLE   0.6066         O 42 -- H 44         +30.1% ( 50.5%)     92.8%
 TRAVEL (Ang.)       0.2311         O 36 -- H 38          +1.9% ( 12.7%)     95.9%
 REDUCED MASS        0.4737         O 36 -- H 37          +1.3% ( 10.6%)     94.7%
 EFFECTIVE MASS      1.0726
 FORCE CONSTANT      1.9820

 VIBRATION        126  126A           ATOM PAIR      ENERGY CONTRIBUTION    RADIAL
 FREQUENCY          2666.24         C 22 -- H 23         +49.6% ( 73.0%)     98.3%
 TRANSITION DIPOLE   0.8197         C 22 -- H 24         +43.2% ( 68.1%)     97.8%
 TRAVEL (Ang.)       0.2385         C 16 -- H 17          +4.9% ( 22.9%)     99.8%
 REDUCED MASS        0.4444         C 16 -- C 22          +0.9% (  9.7%)      0.3%
 EFFECTIVE MASS      1.4410
 FORCE CONSTANT      1.8615

 VIBRATION        127  127A           ATOM PAIR      ENERGY CONTRIBUTION    RADIAL
 FREQUENCY          2671.86         O 36 -- H 38         +35.3% ( 53.9%)     96.0%
 TRANSITION DIPOLE   1.2537         O 36 -- H 37         +31.1% ( 50.6%)     95.4%
 TRAVEL (Ang.)       0.3170         O 45 -- H 47         +13.1% ( 32.8%)     96.1%
 REDUCED MASS        0.2512         O 45 -- H 46         +11.6% ( 31.0%)     96.1%
 EFFECTIVE MASS      1.0731
 FORCE CONSTANT      1.0566

 VIBRATION        128  128A           ATOM PAIR      ENERGY CONTRIBUTION    RADIAL
 FREQUENCY          2682.19         C 22 -- H 25         +53.9% ( 75.7%)     99.4%
 TRANSITION DIPOLE   0.8182         C 22 -- H 24         +22.9% ( 49.3%)     93.2%
 TRAVEL (Ang.)       0.2604         C 16 -- H 17         +11.7% ( 35.3%)    100.0%
 REDUCED MASS        0.3707         C 22 -- H 23          +9.9% ( 32.5%)     81.5%
 EFFECTIVE MASS      1.4371
 FORCE CONSTANT      1.5714

 VIBRATION        129  129A           ATOM PAIR      ENERGY CONTRIBUTION    RADIAL
 FREQUENCY          2691.23         C  2 -- H  5         +96.6% ( 99.2%)     99.9%
 TRANSITION DIPOLE   0.6232         C  1 -- C  2          +0.7% (  8.6%)      2.7%
 TRAVEL (Ang.)       0.1661         C  2 -- C 16          +0.7% (  8.5%)      3.7%
 REDUCED MASS        0.9080         C  2 -- C  3          +0.7% (  8.5%)     11.1%
 EFFECTIVE MASS      1.3466
 FORCE CONSTANT      3.8747

 VIBRATION        130  130A           ATOM PAIR      ENERGY CONTRIBUTION    RADIAL
 FREQUENCY          2733.48         C 18 -- H 19         +52.4% ( 73.2%)     99.9%
 TRANSITION DIPOLE   0.8191         C 20 -- H 21         +44.7% ( 67.6%)     99.9%
 TRAVEL (Ang.)       0.2319         C 18 -- C 20          +0.7% (  8.7%)      0.1%
 REDUCED MASS        0.4588         C 16 -- C 18          +0.6% (  7.7%)      6.7%
 EFFECTIVE MASS      1.3619
 FORCE CONSTANT      2.0196

 VIBRATION        131  131A           ATOM PAIR      ENERGY CONTRIBUTION    RADIAL
 FREQUENCY          2744.36         C 26 -- H 28         +57.9% ( 74.0%)     98.2%
 TRANSITION DIPOLE   0.7232         C 26 -- H 27         +39.6% ( 61.2%)     96.5%
 TRAVEL (Ang.)       0.2260         C 20 -- H 21          +1.3% ( 11.2%)     99.8%
 REDUCED MASS        0.4811         C 26 -- O 35          +0.4% (  6.1%)      9.0%
 EFFECTIVE MASS      1.1953
 FORCE CONSTANT      2.1351

 VIBRATION        132  132A           ATOM PAIR      ENERGY CONTRIBUTION    RADIAL
 FREQUENCY          2750.11         C 20 -- H 21         +51.4% ( 72.4%)    100.0%
 TRANSITION DIPOLE   0.8671         C 18 -- H 19         +44.7% ( 67.5%)    100.0%
 TRAVEL (Ang.)       0.2321         C 18 -- C 20          +1.5% ( 12.2%)     99.7%
 REDUCED MASS        0.4551         C 14 -- C 20          +0.6% (  8.0%)     15.7%
 EFFECTIVE MASS      1.4461
 FORCE CONSTANT      2.0278

 VIBRATION        133  133A           ATOM PAIR      ENERGY CONTRIBUTION    RADIAL
 FREQUENCY          2812.07         C  7 -- H  8         +34.8% ( 55.3%)     97.6%
 TRANSITION DIPOLE   0.5638         C  7 -- H  9         +33.5% ( 54.3%)     97.3%
 TRAVEL (Ang.)       0.2704         C  7 -- H 10         +31.5% ( 52.6%)     97.3%
 REDUCED MASS        0.3280         C  7 -- N 11          +0.2% (  3.7%)     99.7%
 EFFECTIVE MASS      1.0930
 FORCE CONSTANT      1.5282

 VIBRATION        134  134A           ATOM PAIR      ENERGY CONTRIBUTION    RADIAL
 FREQUENCY          2834.93         C 30 -- H 33         +41.4% ( 60.1%)     98.1%
 TRANSITION DIPOLE   0.7678         C 30 -- H 32         +36.0% ( 56.1%)     97.7%
 TRAVEL (Ang.)       0.2654         C 30 -- H 31         +21.2% ( 43.0%)     94.5%
 REDUCED MASS        0.3377         O 39 -- H 41          +0.4% (  6.1%)     89.0%
 EFFECTIVE MASS      1.1158
 FORCE CONSTANT      1.5990

 VIBRATION        135  135A           ATOM PAIR      ENERGY CONTRIBUTION    RADIAL
 FREQUENCY          2858.62         C 22 -- H 25         +36.5% ( 56.8%)     98.0%
 TRANSITION DIPOLE   0.5842         C 22 -- H 24         +32.9% ( 53.9%)     97.6%
 TRAVEL (Ang.)       0.2686         C 22 -- H 23         +30.0% ( 51.5%)     97.3%
 REDUCED MASS        0.3271         C 16 -- C 22          +0.2% (  4.0%)     99.1%
 EFFECTIVE MASS      1.1011
 FORCE CONSTANT      1.5747

      SYMMETRY NUMBER FOR POINT-GROUP C1  =  1


          SYSTEM IS A GROUND STATE



 DA_P_4H2O_PM6_D3H4_THERMO


          MOLECULE IS NOT LINEAR

          THERE ARE  135 GENUINE VIBRATIONS IN THIS SYSTEM
          THIS THERMODYNAMICS CALCULATION IS LIMITED TO
          MOLECULES WHICH HAVE NO INTERNAL ROTATIONS




                    CALCULATED THERMODYNAMIC PROPERTIES
                                          *
   TEMP. (K)   PARTITION FUNCTION   H.O.F.    ENTHALPY  HEAT CAPACITY ENTROPY
                                   KCAL/MOL   CAL/MOLE    CAL/K/MOL  CAL/K/MOL


 298.00  VIB.     0.8036D+14                 17528.4854   101.3527   122.4459
         ROT.     0.9668D+07                   888.2813     2.9808    34.9437
         INT.     0.7769D+21                 18416.7667   104.3335   157.3896
         TRA.     0.5621D+28                  1480.4688     4.9680    43.2139
         TOT.                     -413.864   19897.2356   109.3015   200.6035

 200.00  VIB.     0.2853D+10                  8786.5403    76.8624    87.1973
         ROT.     0.5316D+07                   596.1620     2.9808    33.7550
         INT.     0.1516D+17                  9382.7023    79.8432   120.9523
         TRA.     0.3091D+28                   993.6033     4.9680    41.2328
         TOT.                     -423.385   10376.3055    84.8112   162.1851

 210.00  VIB.     0.8558D+10                  9567.9934    79.4240    91.0095
         ROT.     0.5719D+07                   625.9700     2.9808    33.9005
         INT.     0.4895D+17                 10193.9634    82.4049   124.9100
         TRA.     0.3325D+28                  1043.2834     4.9680    41.4751
         TOT.                     -422.524   11237.2468    87.3729   166.3851

 220.00  VIB.     0.2533D+11                 10374.9483    81.9638    94.7630
         ROT.     0.6133D+07                   655.7781     2.9808    34.0391
         INT.     0.1553D+18                 11030.7264    84.9446   128.8022
         TRA.     0.3566D+28                  1092.9636     4.9680    41.7063
         TOT.                     -421.638   12123.6900    89.9126   170.5084

 230.00  VIB.     0.7403D+11                 11207.2134    84.4868    98.4622
         ROT.     0.6556D+07                   685.5862     2.9808    34.1716
         INT.     0.4853D+18                 11892.7996    87.4676   132.6338
         TRA.     0.3811D+28                  1142.6437     4.9680    41.9271
         TOT.                     -420.726   13035.4434    92.4356   174.5609

 240.00  VIB.     0.2137D+12                 12064.6416    86.9969   102.1110
         ROT.     0.6988D+07                   715.3943     2.9808    34.2985
         INT.     0.1493D+19                 12780.0359    89.9777   136.4095
         TRA.     0.4063D+28                  1192.3239     4.9680    42.1385
         TOT.                     -419.789   13972.3598    94.9457   178.5480

 250.00  VIB.     0.6095D+12                 12947.1153    89.4962   105.7130
         ROT.     0.7429D+07                   745.2024     2.9808    34.4202
         INT.     0.4528D+19                 13692.3177    92.4770   140.1332
         TRA.     0.4319D+28                  1242.0041     4.9680    42.3413
         TOT.                     -418.827   14934.3218    97.4450   182.4746

 260.00  VIB.     0.1719D+13                 13854.5338    91.9859   109.2717
         ROT.     0.7879D+07                   775.0105     2.9808    34.5371
         INT.     0.1354D+20                 14629.5443    94.9667   143.8088
         TRA.     0.4581D+28                  1291.6842     4.9680    42.5362
         TOT.                     -417.840   15921.2285    99.9348   186.3450

 270.00  VIB.     0.4796D+13                 14786.8022    94.4662   112.7898
         ROT.     0.8338D+07                   804.8186     2.9808    34.6496
         INT.     0.3999D+20                 15591.6209    97.4470   147.4394
         TRA.     0.4848D+28                  1341.3644     4.9680    42.7237
         TOT.                     -416.828   16932.9853   102.4150   190.1631

 280.00  VIB.     0.1324D+14                 15743.8231    96.9362   116.2700
         ROT.     0.8805D+07                   834.6267     2.9808    34.7580
         INT.     0.1166D+21                 16578.4498    99.9170   151.0280
         TRA.     0.5120D+28                  1391.0445     4.9680    42.9044
         TOT.                     -415.792   17969.4943   104.8851   193.9324

 290.00  VIB.     0.3619D+14                 16725.4891    99.3950   119.7145
         ROT.     0.9281D+07                   864.4348     2.9808    34.8626
         INT.     0.3359D+21                 17589.9240   102.3758   154.5771
         TRA.     0.5396D+28                  1440.7247     4.9680    43.0787
         TOT.                     -414.731   19030.6487   107.3438   197.6558

 300.00  VIB.     0.9800D+14                 17731.6789   101.8407   123.1254
         ROT.     0.9766D+07                   894.2429     2.9808    34.9637
         INT.     0.9570D+21                 18625.9218   104.8215   158.0891
         TRA.     0.5678D+28                  1490.4049     4.9680    43.2471
         TOT.                     -413.645   20116.3267   109.7895   201.3362

 310.00  VIB.     0.2629D+15                 18762.2530   104.2715   126.5045
         ROT.     0.1026D+08                   924.0510     2.9808    35.0614
         INT.     0.2697D+22                 19686.3040   107.2523   161.5659
         TRA.     0.5964D+28                  1540.0850     4.9680    43.4100
         TOT.                     -412.535   21226.3891   112.2203   204.9759

 320.00  VIB.     0.6993D+15                 19817.0525   106.6854   129.8531
         ROT.     0.1076D+08                   953.8591     2.9808    35.1560
         INT.     0.7523D+22                 20770.9117   109.6662   165.0091
         TRA.     0.6255D+28                  1589.7652     4.9680    43.5678
         TOT.                     -411.401   22360.6769   114.6342   208.5769

 330.00  VIB.     0.1844D+16                 20895.8980   109.0803   133.1727
         ROT.     0.1127D+08                   983.6672     2.9808    35.2478
         INT.     0.2078D+23                 21879.5652   112.0612   168.4205
         TRA.     0.6550D+28                  1639.4454     4.9680    43.7206
         TOT.                     -410.242   23519.0106   117.0292   212.1411

 340.00  VIB.     0.4824D+16                 21998.5894   111.4543   136.4644
         ROT.     0.1178D+08                  1013.4753     2.9808    35.3367
         INT.     0.5684D+23                 23012.0648   114.4351   171.8011
         TRA.     0.6850D+28                  1689.1255     4.9680    43.8689
         TOT.                     -409.060   24701.1903   119.4031   215.6701

 350.00  VIB.     0.1252D+17                 23124.9071   113.8053   139.7291
         ROT.     0.1231D+08                  1043.2834     2.9808    35.4231
         INT.     0.1541D+24                 24168.1906   116.7861   175.1523
         TRA.     0.7155D+28                  1738.8057     4.9680    44.0129
         TOT.                     -407.854   25906.9962   121.7541   219.1652

 360.00  VIB.     0.3225D+17                 24274.6129   116.1316   142.9678
         ROT.     0.1284D+08                  1073.0915     2.9808    35.5071
         INT.     0.4140D+24                 25347.7044   119.1124   178.4749
         TRA.     0.7464D+28                  1788.4859     4.9680    44.1529
         TOT.                     -406.625   27136.1902   124.0804   222.6278

 370.00  VIB.     0.8248D+17                 25447.4515   118.4316   146.1811
         ROT.     0.1338D+08                  1102.8996     2.9808    35.5888
         INT.     0.1103D+25                 26550.3511   121.4124   181.7699
         TRA.     0.7777D+28                  1838.1660     4.9680    44.2890
         TOT.                     -405.373   28388.5171   126.3804   226.0589

 380.00  VIB.     0.2094D+18                 26643.1527   120.7039   149.3697
         ROT.     0.1392D+08                  1132.7077     2.9808    35.6683
         INT.     0.2916D+25                 27775.8604   123.6847   185.0380
         TRA.     0.8094D+28                  1887.8462     4.9680    44.4215
         TOT.                     -404.098   29663.7066   128.6527   229.4595

 390.00  VIB.     0.5282D+18                 27861.4330   122.9472   152.5341
         ROT.     0.1447D+08                  1162.5158     2.9808    35.7457
         INT.     0.7646D+25                 29023.9488   125.9280   188.2798
         TRA.     0.8416D+28                  1937.5263     4.9680    44.5506
         TOT.                     -402.800   30961.4752   130.8961   232.8304

 400.00  VIB.     0.1324D+19                 29101.9975   125.1606   155.6749
         ROT.     0.1504D+08                  1192.3239     2.9808    35.8212
         INT.     0.1990D+26                 30294.3214   128.1414   191.4960
         TRA.     0.8741D+28                  1987.2065     4.9680    44.6763
         TOT.                     -401.480   32281.5279   133.1094   236.1724

   *: NOTE: HEATS OF FORMATION ARE RELATIVE TO THE
            ELEMENTS IN THEIR STANDARD STATE AT 298K
              (=  Standard Enthalpy of Formation).

            Hvib:  Zero-point energy is not included.
                   frequencies of less than zero cm-1 are not included.
            Hrot = (3/2)RT
            Htra = (3/2)RT + pV = (5/2)RT

            Heat capacity is Cp, not Cv

          For more information, see: HTTP://OpenMOPAC.net/Manual/thermochemistry.html


           FORCE CONSTANT IN CARTESIAN COORDINATES (Millidynes/A)

    ATOM   CHEMICAL       X               Y               Z
   NUMBER   SYMBOL  FORCE CONSTANT  FORCE CONSTANT  FORCE CONSTANT

      1       C       10.680299       11.665737        2.756714
      2       C        6.706863        7.542454        6.625482
      3       C        7.227784        7.046450        6.641717
      4       C        7.826461       14.871854        2.696267
      5       H        1.023278        1.424668        3.158996
      6       H        1.482209        0.870099        2.873724
      7       C        6.760948        6.481430        5.832985
      8       H        0.894984        2.337564        2.208365
      9       H        1.884216        2.828663        0.729207
     10       H        0.937412        1.007731        3.456253
     11       N       11.772464        9.576884        1.060633
     12       O        1.486629       12.225863        0.505327
     13       O        5.890696        8.647763        0.510289
     14       C        7.086055        7.144639        7.746951
     15       H        1.083216        3.568976        0.952302
     16       C        7.031957        7.122575        7.653193
     17       H        2.395768        2.278958        0.947544
     18       C        3.099195       13.335753        7.481175
     19       H        0.410693        1.791481        3.214621
     20       C        3.148218       13.276108        7.507503
     21       H        0.489767        1.675892        3.235324
     22       C        6.652346        6.357984        6.374467
     23       H        0.872575        2.192221        2.438808
     24       H        1.208954        1.512479        2.824571
     25       H        2.418640        2.126698        1.052882
     26       C        6.581111        6.508444        6.408557
     27       H        0.843242        1.373746        3.291101
     28       H        1.364208        3.487731        0.677607
     29       C        7.133233        9.163393        9.296252
     30       C        6.244586        6.442480        6.799396
     31       H        1.272971        2.728303        1.245146
     32       H        3.348731        0.849520        1.053247
     33       H        0.669779        2.225730        2.479017
     34       O        4.233686        4.438142        5.642456
     35       O        2.658367        7.514255        3.635632
     36       O        4.073863        0.722811        2.621338
     37       H        3.039553        0.320064        0.831780
     38       H        2.661043        0.224960        1.495521
     39       O        1.845322        3.145682        1.402099
     40       H        1.899916        1.983536        0.361522
     41       H        0.680176        2.270370        1.655945
     42       O        1.863162        4.008161        1.106649
     43       H        0.411045        3.439189        0.450029
     44       H        1.636093        2.085580        0.575120
     45       O        0.942965        3.248100        2.865630
     46       H        0.371070        2.929498        1.051903
     47       H        0.904744        0.894772        2.571431

 **********************
 *                    *
 * JOB ENDED NORMALLY *
 *                    *
 **********************



 TOTAL JOB TIME:            13.38 SECONDS

 == MOPAC DONE ==
