 *******************************************************************************
 ** Site#: 37381        For non-commercial use only           Version 21.125L **
 *******************************************************************************
 ** Cite this program as: MOPAC2016, Version: 21.125L, James J. P. Stewart,   **
 ** Stewart Computational Chemistry, web: HTTP://OpenMOPAC.net. Days left: 189**
 *******************************************************************************
 **                                                                           **
 **                                MOPAC2016                                  **
 **                                                                           **
 *******************************************************************************

                              PM6-D3H4 CALCULATION RESULTS

 *******************************************************************************
 *  CALCULATION DONE:                                Thu Oct 28 21:14:25 2021  *
 *  PM6-D3H4   - CORRECT DISPERSION AND HYDROGEN BOND TERMS USING THE D3H4 METHOD
 *  EPS=2.38   - USE ANDREAS KLAMT'S COSMO IMPLICIT SOLVATION MODEL
 *  RSOLV=  3.480
 *  FORCE      - FORCE CALCULATION SPECIFIED
 *  T=         - A TIME OF 172800.0 SECONDS REQUESTED
 *  DUMP=N     - RESTART FILE WRITTEN EVERY 7200.0 SECONDS REQUESTED
 *  AUX        - OUTPUT AUXILIARY INFORMATION
 *  LARGE      - EXPANDED OUTPUT TO BE PRINTED
 *  THERMO     - THERMODYNAMIC QUANTITIES TO BE CALCULATED
 *******************************************************************************
 AUX LARGE FORCE THERMO PM6-D3H4 EPS=2.38 RSOLV=3.48
 DA_TS_4H2O_PM6_D3H4_THERMO

   ATOM   CHEMICAL          X               Y               Z
  NUMBER   SYMBOL      (ANGSTROMS)     (ANGSTROMS)     (ANGSTROMS)
 
     1       C          2.27105000  *   1.14451000  *   0.67657000  *
     2       C          1.57350000  *  -0.11013000  *   0.83323000  *
     3       C          0.26168000  *  -0.02460000  *   0.35541000  *
     4       C          0.04282000  *   1.45375000  *  -0.01836000  *
     5       H          2.01205000  *  -0.94897000  *   1.34419000  *
     6       H         -0.57586000  *  -0.58477000  *   0.77604000  *
     7       C          1.56666000  *   3.51375000  *  -0.13284000  *
     8       H          0.79291000  *   4.15960000  *   0.35856000  *
     9       H          2.57872000  *   3.75630000  *   0.29008000  *
    10       H          1.56927000  *   3.69209000  *  -1.23835000  *
    11       N          1.28200000  *   2.09193000  *   0.13854000  *
    12       O         -0.99579000  *   1.98209000  *  -0.38137000  *
    13       O          3.40888000  *   1.50712000  *   0.90932000  *
    14       C          1.91860000  *  -2.42492000  *  -1.00189000  *
    15       H          2.11446000  *  -3.46695000  *  -0.71482000  *
    16       C          0.55982000  *  -2.07463000  *  -1.18804000  *
    17       H         -0.18424000  *  -2.87952000  *  -1.03554000  *
    18       C          2.96068000  *  -1.54312000  *  -1.07381000  *
    19       H          2.81981000  *  -0.51395000  *  -1.42603000  *
    20       C          4.34806000  *  -1.90876000  *  -0.73029000  *
    21       H          4.55545000  *  -1.57540000  *   0.33774000  *
    22       H          4.53008000  *  -3.00839000  *  -0.77461000  *
    23       H          5.08308000  *  -1.38831000  *  -1.38936000  *
    24       C          0.08891000  *  -0.77716000  *  -1.42466000  *
    25       H          0.74727000  *  -0.05380000  *  -1.93204000  *
    26       C         -1.35968000  *  -0.60546000  *  -1.82812000  *
    27       H         -1.58680000  *  -1.14728000  *  -2.77739000  *
    28       H         -1.65094000  *   0.46758000  *  -1.87720000  *
    29       C         -3.19330000  *  -0.75684000  *  -0.11860000  *
    30       C         -3.73989000  *   0.57061000  *  -0.45427000  *
    31       H         -4.06264000  *   0.62636000  *  -1.52300000  *
    32       H         -4.63578000  *   0.79275000  *   0.19224000  *
    33       H         -2.97477000  *   1.37756000  *  -0.26357000  *
    34       O         -2.16432000  *  -1.32179000  *  -0.84454000  *
    35       O         -3.55422000  *  -1.50690000  *   0.77750000  *
    36       H          4.40302000  *   0.22677000  *   1.84090000  *
    37       H         -2.12547000  *   4.66298000  *  -0.00892000  *
    38       H         -1.95761000  *  -2.92357000  *   0.53348000  *
    39       H         -5.04151000  *  -0.82856000  *   1.85633000  *
    40       O         -1.30954000  *  -3.62293000  *   0.78495000  *
    41       H         -1.48250000  *  -3.92812000  *   1.68717000  *
    42       O         -5.71696000  *  -0.12810000  *   2.00989000  *
    43       H         -6.33595000  *  -0.40153000  *   2.70225000  *
    44       O         -1.48741000  *   4.64127000  *  -0.73678000  *
    45       H         -1.10820000  *   3.73353000  *  -0.82237000  *
    46       O          4.80039000  *  -0.64986000  *   2.08139000  *
    47       H          5.68412000  *  -0.52087000  *   2.45662000  *
 


          CARTESIAN COORDINATES 

    NO.       ATOM           X           Y           Z

     1         C          2.2710      1.1445      0.6766
     2         C          1.5735     -0.1101      0.8332
     3         C          0.2617     -0.0246      0.3554
     4         C          0.0428      1.4537     -0.0184
     5         H          2.0120     -0.9490      1.3442
     6         H         -0.5759     -0.5848      0.7760
     7         C          1.5667      3.5137     -0.1328
     8         H          0.7929      4.1596      0.3586
     9         H          2.5787      3.7563      0.2901
    10         H          1.5693      3.6921     -1.2384
    11         N          1.2820      2.0919      0.1385
    12         O         -0.9958      1.9821     -0.3814
    13         O          3.4089      1.5071      0.9093
    14         C          1.9186     -2.4249     -1.0019
    15         H          2.1145     -3.4670     -0.7148
    16         C          0.5598     -2.0746     -1.1880
    17         H         -0.1842     -2.8795     -1.0355
    18         C          2.9607     -1.5431     -1.0738
    19         H          2.8198     -0.5140     -1.4260
    20         C          4.3481     -1.9088     -0.7303
    21         H          4.5555     -1.5754      0.3377
    22         H          4.5301     -3.0084     -0.7746
    23         H          5.0831     -1.3883     -1.3894
    24         C          0.0889     -0.7772     -1.4247
    25         H          0.7473     -0.0538     -1.9320
    26         C         -1.3597     -0.6055     -1.8281
    27         H         -1.5868     -1.1473     -2.7774
    28         H         -1.6509      0.4676     -1.8772
    29         C         -3.1933     -0.7568     -0.1186
    30         C         -3.7399      0.5706     -0.4543
    31         H         -4.0626      0.6264     -1.5230
    32         H         -4.6358      0.7928      0.1922
    33         H         -2.9748      1.3776     -0.2636
    34         O         -2.1643     -1.3218     -0.8445
    35         O         -3.5542     -1.5069      0.7775
    36         H          4.4030      0.2268      1.8409
    37         H         -2.1255      4.6630     -0.0089
    38         H         -1.9576     -2.9236      0.5335
    39         H         -5.0415     -0.8286      1.8563
    40         O         -1.3095     -3.6229      0.7850
    41         H         -1.4825     -3.9281      1.6872
    42         O         -5.7170     -0.1281      2.0099
    43         H         -6.3360     -0.4015      2.7023
    44         O         -1.4874      4.6413     -0.7368
    45         H         -1.1082      3.7335     -0.8224
    46         O          4.8004     -0.6499      2.0814
    47         H          5.6841     -0.5209      2.4566

 General Reference for PM6:
 "Optimization of Parameters for Semiempirical Methods V: Modification of NDDO Approximations
 and Application to 70 Elements", J. J. P. Stewart, J. Mol. Mod., 13, 1173-1213 (2007)
 URL: https://link.springer.com/article/10.1007/s00894-007-0233-4

           Empirical Formula: C13 H25 N O8  =    47 atoms



      MOLECULAR POINT GROUP   :   C1  


      RHF CALCULATION, NO. OF DOUBLY OCCUPIED LEVELS = 65



          HEAT OF FORMATION =    -338.478170 KCALS/MOLE


          CARTESIAN COORDINATE DERIVATIVES

   NUMBER  ATOM         X            Y            Z

     1       C      0.035431     0.016969     0.027038
     2       C     -0.007939     0.068807    -0.021516
     3       C     -0.021968    -0.032159    -0.017272
     4       C     -0.031231     0.017875     0.024834
     5       H      0.038560    -0.014828     0.004467
     6       H     -0.037544     0.022802     0.025453
     7       C      0.061041     0.001186    -0.037717
     8       H      0.052377     0.168230     0.069061
     9       H     -0.101252    -0.127742    -0.165945
    10       H     -0.111764    -0.128184     0.202170
    11       N      0.016431    -0.040289     0.033356
    12       O      0.048766    -0.000403     0.038388
    13       O      0.000684    -0.056729    -0.012820
    14       C     -0.000594     0.017298    -0.014389
    15       H      0.007145    -0.000846     0.017017
    16       C     -0.016356     0.030449     0.017108
    17       H     -0.026393     0.001418     0.020140
    18       C     -0.089469     0.024570    -0.004433
    19       H      0.010282     0.021501     0.001028
    20       C     -0.027775     0.011129     0.004523
    21       H     -0.042756    -0.002021    -0.028150
    22       H      0.000487    -0.012198    -0.023422
    23       H      0.008871     0.038891    -0.007623
    24       C      0.027454    -0.007255     0.025983
    25       H     -0.014783     0.013329     0.012845
    26       C     -0.076890     0.022788     0.051354
    27       H     -0.012256    -0.022887     0.007426
    28       H     -0.016594     0.014565     0.016792
    29       C     -0.285236     0.069025     0.309873
    30       C      0.042692    -0.032729     0.043011
    31       H     -0.083120     0.041540    -0.033243
    32       H     -0.054015     0.007381    -0.033352
    33       H     -0.091976    -0.037149     0.005039
    34       O      0.053550     0.116762    -0.081778
    35       O      0.205444    -0.082501    -0.096675
    36       H      0.022008    -0.028822    -0.037112
    37       H      0.305592    -0.057054    -0.275406
    38       H     -0.076258    -0.093754    -0.065746
    39       H      0.125570     0.039472    -0.148540
    40       O     -0.201889    -0.061920    -0.111539
    41       H      0.246352     0.121577     0.021996
    42       O      0.043599    -0.140925     0.111272
    43       H     -0.040488     0.054669    -0.128784
    44       O     -0.008988     0.066213     0.087636
    45       H      0.081555    -0.061817     0.245746
    46       O     -0.034667     0.149484     0.023284
    47       H      0.078468    -0.115581    -0.101214
 
 DIPOLE           X         Y         Z       TOTAL
 POINT-CHG.     0.430    -1.484     4.057     4.341
 HYBRID         0.220    -0.101    -0.627     0.672
 SUM            0.651    -1.585     3.430     3.834


          GRADIENT NORM =   1.03568


          TIME FOR SCF CALCULATION =    0.07

          TIME FOR DERIVATIVES     =    0.02

          MOLECULAR WEIGHT =  323.34



          ROTATIONAL CONSTANTS IN CM(-1)

          A =    0.00983845   B =    0.00576814   C =    0.00433484



           PRINCIPAL MOMENTS OF INERTIA IN UNITS OF 10**(-40)*GRAM-CM**2

          A =     2845.2420   B =     4852.9982   C =     6457.6279


          ORIENTATION OF MOLECULE IN FORCE CALCULATION

    NO.       ATOM         X         Y         Z

     1          C      -2.0222   -1.6812   -0.2275
     2          C      -0.5782   -1.6812   -0.2275
     3          C      -0.0707   -0.3778   -0.2275
     4          C      -1.2899    0.5513   -0.3802
     5          H      -0.0058   -2.5878   -0.3138
     6          H       0.8663   -0.0906   -0.7091
     7          C      -3.8283    0.1831   -0.3917
     8          H      -3.9623    0.8763   -1.2628
     9          H      -4.4820   -0.7200   -0.5292
    10          H      -4.1044    0.7050    0.5598
    11          N      -2.4260   -0.2692   -0.3192
    12          O      -1.2867    1.7630   -0.5259
    13          O      -2.8617   -2.5610   -0.1879
    14          C       1.0672   -2.1484    2.2055
    15          H       1.9091   -2.8470    2.3046
    16          C       1.3990   -0.8188    1.8507
    17          H       2.4743   -0.5974    1.7113
    18          C      -0.2101   -2.6156    2.3427
    19          H      -1.0745   -1.9406    2.3234
    20          C      -0.5253   -4.0391    2.5681
    21          H      -0.7993   -4.5108    1.5695
    22          H       0.3373   -4.6141    2.9797
    23          H      -1.4041   -4.1609    3.2452
    24          C       0.4735    0.1874    1.5471
    25          H      -0.5280    0.1482    2.0048
    26          C       0.9803    1.6071    1.4125
    27          H       1.4578    1.9622    2.3570
    28          H       0.1834    2.2990    1.0591
    29          C       2.1831    2.3476   -0.6642
    30          C       1.2573    3.4683   -0.9103
    31          H       1.2489    4.1919   -0.0583
    32          H       1.5672    4.0269   -1.8387
    33          H       0.2073    3.0902   -1.0758
    34          O       2.0981    1.5741    0.4757
    35          O       3.1063    1.9736   -1.3739
    36          H      -2.1284   -4.2726   -0.3560
    37          H      -3.0298    3.6181   -1.9826
    38          H       3.5395    0.1946   -0.2501
    39          H       3.3524    3.0237   -3.0088
    40          O       3.8613   -0.7211   -0.0759
    41          H       4.3079   -1.0717   -0.8600
    42          O       3.0868    3.7966   -3.5588
    43          H       3.6985    3.9096   -4.3006
    44          O      -3.3981    3.3848   -1.1182
    45          H      -2.8019    2.7428   -0.6627
    46          O      -1.5326   -5.0502   -0.1992
    47          H      -2.0309   -5.8747   -0.3010


    FIRST DERIVATIVES WILL BE USED IN THE CALCULATION OF SECOND DERIVATIVES

          ESTIMATED TIME TO COMPLETE CALCULATION =       26.44 SECONDS

    FOR POINT-GROUP C1   THERE ARE   1 UNIQUE SYMMETRY FUNCTIONS.

 STEP:   1 TIME =     0.09 SECS, INTEGRAL =      0.09 TIME LEFT: 172799.82
 STEP:   2 TIME =     0.09 SECS, INTEGRAL =      0.18 TIME LEFT: 172799.73
 STEP:   3 TIME =     0.09 SECS, INTEGRAL =      0.27 TIME LEFT: 172799.64
 STEP:   4 TIME =     0.09 SECS, INTEGRAL =      0.36 TIME LEFT: 172799.55
 STEP:   5 TIME =     0.09 SECS, INTEGRAL =      0.45 TIME LEFT: 172799.46
 STEP:   6 TIME =     0.09 SECS, INTEGRAL =      0.53 TIME LEFT: 172799.38
 STEP:   7 TIME =     0.09 SECS, INTEGRAL =      0.62 TIME LEFT: 172799.28
 STEP:   8 TIME =     0.09 SECS, INTEGRAL =      0.71 TIME LEFT: 172799.20
 STEP:   9 TIME =     0.09 SECS, INTEGRAL =      0.80 TIME LEFT: 172799.11
 STEP:  10 TIME =     0.09 SECS, INTEGRAL =      0.88 TIME LEFT: 172799.02
 STEP:  11 TIME =     0.09 SECS, INTEGRAL =      0.98 TIME LEFT: 172798.93
 STEP:  12 TIME =     0.09 SECS, INTEGRAL =      1.06 TIME LEFT: 172798.84
 STEP:  13 TIME =     0.08 SECS, INTEGRAL =      1.14 TIME LEFT: 172798.77
 STEP:  14 TIME =     0.08 SECS, INTEGRAL =      1.22 TIME LEFT: 172798.69
 STEP:  15 TIME =     0.08 SECS, INTEGRAL =      1.30 TIME LEFT: 172798.61
 STEP:  16 TIME =     0.08 SECS, INTEGRAL =      1.38 TIME LEFT: 172798.53
 STEP:  17 TIME =     0.08 SECS, INTEGRAL =      1.45 TIME LEFT: 172798.45
 STEP:  18 TIME =     0.08 SECS, INTEGRAL =      1.53 TIME LEFT: 172798.38
 STEP:  19 TIME =     0.08 SECS, INTEGRAL =      1.61 TIME LEFT: 172798.30
 STEP:  20 TIME =     0.09 SECS, INTEGRAL =      1.70 TIME LEFT: 172798.21
 STEP:  21 TIME =     0.08 SECS, INTEGRAL =      1.77 TIME LEFT: 172798.13
 STEP:  22 TIME =     0.08 SECS, INTEGRAL =      1.85 TIME LEFT: 172798.05
 STEP:  23 TIME =     0.08 SECS, INTEGRAL =      1.93 TIME LEFT: 172797.98
 STEP:  24 TIME =     0.08 SECS, INTEGRAL =      2.01 TIME LEFT: 172797.90
 STEP:  25 TIME =     0.07 SECS, INTEGRAL =      2.08 TIME LEFT: 172797.83
 STEP:  26 TIME =     0.08 SECS, INTEGRAL =      2.16 TIME LEFT: 172797.75
 STEP:  27 TIME =     0.08 SECS, INTEGRAL =      2.23 TIME LEFT: 172797.67
 STEP:  28 TIME =     0.08 SECS, INTEGRAL =      2.31 TIME LEFT: 172797.59
 STEP:  29 TIME =     0.07 SECS, INTEGRAL =      2.38 TIME LEFT: 172797.52
 STEP:  30 TIME =     0.08 SECS, INTEGRAL =      2.46 TIME LEFT: 172797.45
 STEP:  31 TIME =     0.08 SECS, INTEGRAL =      2.54 TIME LEFT: 172797.37
 STEP:  32 TIME =     0.09 SECS, INTEGRAL =      2.62 TIME LEFT: 172797.28
 STEP:  33 TIME =     0.09 SECS, INTEGRAL =      2.71 TIME LEFT: 172797.20
 STEP:  34 TIME =     0.08 SECS, INTEGRAL =      2.79 TIME LEFT: 172797.12
 STEP:  35 TIME =     0.08 SECS, INTEGRAL =      2.87 TIME LEFT: 172797.04
 STEP:  36 TIME =     0.08 SECS, INTEGRAL =      2.95 TIME LEFT: 172796.96
 STEP:  37 TIME =     0.08 SECS, INTEGRAL =      3.02 TIME LEFT: 172796.88
 STEP:  38 TIME =     0.09 SECS, INTEGRAL =      3.11 TIME LEFT: 172796.80
 STEP:  39 TIME =     0.08 SECS, INTEGRAL =      3.19 TIME LEFT: 172796.72
 STEP:  40 TIME =     0.09 SECS, INTEGRAL =      3.27 TIME LEFT: 172796.63
 STEP:  41 TIME =     0.09 SECS, INTEGRAL =      3.37 TIME LEFT: 172796.54
 STEP:  42 TIME =     0.09 SECS, INTEGRAL =      3.45 TIME LEFT: 172796.45
 STEP:  43 TIME =     0.08 SECS, INTEGRAL =      3.53 TIME LEFT: 172796.38
 STEP:  44 TIME =     0.08 SECS, INTEGRAL =      3.61 TIME LEFT: 172796.30
 STEP:  45 TIME =     0.08 SECS, INTEGRAL =      3.69 TIME LEFT: 172796.22
 STEP:  46 TIME =     0.08 SECS, INTEGRAL =      3.77 TIME LEFT: 172796.14
 STEP:  47 TIME =     0.09 SECS, INTEGRAL =      3.85 TIME LEFT: 172796.05
 STEP:  48 TIME =     0.09 SECS, INTEGRAL =      3.94 TIME LEFT: 172795.97
 STEP:  49 TIME =     0.08 SECS, INTEGRAL =      4.02 TIME LEFT: 172795.89
 STEP:  50 TIME =     0.08 SECS, INTEGRAL =      4.09 TIME LEFT: 172795.81
 STEP:  51 TIME =     0.08 SECS, INTEGRAL =      4.17 TIME LEFT: 172795.73
 STEP:  52 TIME =     0.09 SECS, INTEGRAL =      4.26 TIME LEFT: 172795.65
 STEP:  53 TIME =     0.09 SECS, INTEGRAL =      4.34 TIME LEFT: 172795.56
 STEP:  54 TIME =     0.09 SECS, INTEGRAL =      4.43 TIME LEFT: 172795.48
 STEP:  55 TIME =     0.09 SECS, INTEGRAL =      4.52 TIME LEFT: 172795.39
 STEP:  56 TIME =     0.08 SECS, INTEGRAL =      4.59 TIME LEFT: 172795.31
 STEP:  57 TIME =     0.09 SECS, INTEGRAL =      4.68 TIME LEFT: 172795.23
 STEP:  58 TIME =     0.08 SECS, INTEGRAL =      4.76 TIME LEFT: 172795.15
 STEP:  59 TIME =     0.09 SECS, INTEGRAL =      4.84 TIME LEFT: 172795.06
 STEP:  60 TIME =     0.08 SECS, INTEGRAL =      4.92 TIME LEFT: 172794.98
 STEP:  61 TIME =     0.08 SECS, INTEGRAL =      5.00 TIME LEFT: 172794.91
 STEP:  62 TIME =     0.08 SECS, INTEGRAL =      5.08 TIME LEFT: 172794.83
 STEP:  63 TIME =     0.08 SECS, INTEGRAL =      5.16 TIME LEFT: 172794.75
 STEP:  64 TIME =     0.08 SECS, INTEGRAL =      5.23 TIME LEFT: 172794.67
 STEP:  65 TIME =     0.08 SECS, INTEGRAL =      5.31 TIME LEFT: 172794.59
 STEP:  66 TIME =     0.07 SECS, INTEGRAL =      5.38 TIME LEFT: 172794.52
 STEP:  67 TIME =     0.07 SECS, INTEGRAL =      5.45 TIME LEFT: 172794.45
 STEP:  68 TIME =     0.08 SECS, INTEGRAL =      5.53 TIME LEFT: 172794.38
 STEP:  69 TIME =     0.07 SECS, INTEGRAL =      5.60 TIME LEFT: 172794.30
 STEP:  70 TIME =     0.09 SECS, INTEGRAL =      5.69 TIME LEFT: 172794.22
 STEP:  71 TIME =     0.09 SECS, INTEGRAL =      5.77 TIME LEFT: 172794.13
 STEP:  72 TIME =     0.09 SECS, INTEGRAL =      5.86 TIME LEFT: 172794.05
 STEP:  73 TIME =     0.09 SECS, INTEGRAL =      5.95 TIME LEFT: 172793.96
 STEP:  74 TIME =     0.08 SECS, INTEGRAL =      6.02 TIME LEFT: 172793.88
 STEP:  75 TIME =     0.09 SECS, INTEGRAL =      6.11 TIME LEFT: 172793.80
 STEP:  76 TIME =     0.08 SECS, INTEGRAL =      6.19 TIME LEFT: 172793.72
 STEP:  77 TIME =     0.09 SECS, INTEGRAL =      6.27 TIME LEFT: 172793.63
 STEP:  78 TIME =     0.08 SECS, INTEGRAL =      6.35 TIME LEFT: 172793.55
 STEP:  79 TIME =     0.08 SECS, INTEGRAL =      6.43 TIME LEFT: 172793.48
 STEP:  80 TIME =     0.07 SECS, INTEGRAL =      6.50 TIME LEFT: 172793.41
 STEP:  81 TIME =     0.07 SECS, INTEGRAL =      6.57 TIME LEFT: 172793.34
 STEP:  82 TIME =     0.08 SECS, INTEGRAL =      6.65 TIME LEFT: 172793.26
 STEP:  83 TIME =     0.08 SECS, INTEGRAL =      6.73 TIME LEFT: 172793.18
 STEP:  84 TIME =     0.08 SECS, INTEGRAL =      6.80 TIME LEFT: 172793.10
 STEP:  85 TIME =     0.08 SECS, INTEGRAL =      6.88 TIME LEFT: 172793.02
 STEP:  86 TIME =     0.08 SECS, INTEGRAL =      6.96 TIME LEFT: 172792.95
 STEP:  87 TIME =     0.09 SECS, INTEGRAL =      7.05 TIME LEFT: 172792.86
 STEP:  88 TIME =     0.08 SECS, INTEGRAL =      7.12 TIME LEFT: 172792.78
 STEP:  89 TIME =     0.08 SECS, INTEGRAL =      7.20 TIME LEFT: 172792.70
 STEP:  90 TIME =     0.08 SECS, INTEGRAL =      7.28 TIME LEFT: 172792.62
 STEP:  91 TIME =     0.08 SECS, INTEGRAL =      7.36 TIME LEFT: 172792.55
 STEP:  92 TIME =     0.08 SECS, INTEGRAL =      7.44 TIME LEFT: 172792.47
 STEP:  93 TIME =     0.07 SECS, INTEGRAL =      7.51 TIME LEFT: 172792.40
 STEP:  94 TIME =     0.08 SECS, INTEGRAL =      7.59 TIME LEFT: 172792.32
 STEP:  95 TIME =     0.07 SECS, INTEGRAL =      7.66 TIME LEFT: 172792.25
 STEP:  96 TIME =     0.08 SECS, INTEGRAL =      7.73 TIME LEFT: 172792.17
 STEP:  97 TIME =     0.07 SECS, INTEGRAL =      7.80 TIME LEFT: 172792.10
 STEP:  98 TIME =     0.08 SECS, INTEGRAL =      7.88 TIME LEFT: 172792.02
 STEP:  99 TIME =     0.07 SECS, INTEGRAL =      7.95 TIME LEFT: 172791.95
 STEP: 100 TIME =     0.09 SECS, INTEGRAL =      8.04 TIME LEFT: 172791.87
 STEP: 101 TIME =     0.08 SECS, INTEGRAL =      8.12 TIME LEFT: 172791.79
 STEP: 102 TIME =     0.09 SECS, INTEGRAL =      8.20 TIME LEFT: 172791.70
 STEP: 103 TIME =     0.08 SECS, INTEGRAL =      8.28 TIME LEFT: 172791.62
 STEP: 104 TIME =     0.08 SECS, INTEGRAL =      8.36 TIME LEFT: 172791.55
 STEP: 105 TIME =     0.08 SECS, INTEGRAL =      8.44 TIME LEFT: 172791.47
 STEP: 106 TIME =     0.08 SECS, INTEGRAL =      8.52 TIME LEFT: 172791.39
 STEP: 107 TIME =     0.09 SECS, INTEGRAL =      8.60 TIME LEFT: 172791.30
 STEP: 108 TIME =     0.08 SECS, INTEGRAL =      8.68 TIME LEFT: 172791.23
 STEP: 109 TIME =     0.08 SECS, INTEGRAL =      8.76 TIME LEFT: 172791.15
 STEP: 110 TIME =     0.07 SECS, INTEGRAL =      8.83 TIME LEFT: 172791.08
 STEP: 111 TIME =     0.09 SECS, INTEGRAL =      8.91 TIME LEFT: 172790.99
 STEP: 112 TIME =     0.07 SECS, INTEGRAL =      8.98 TIME LEFT: 172790.92
 STEP: 113 TIME =     0.07 SECS, INTEGRAL =      9.05 TIME LEFT: 172790.85
 STEP: 114 TIME =     0.07 SECS, INTEGRAL =      9.12 TIME LEFT: 172790.78
 STEP: 115 TIME =     0.09 SECS, INTEGRAL =      9.21 TIME LEFT: 172790.70
 STEP: 116 TIME =     0.07 SECS, INTEGRAL =      9.28 TIME LEFT: 172790.62
 STEP: 117 TIME =     0.08 SECS, INTEGRAL =      9.36 TIME LEFT: 172790.55
 STEP: 118 TIME =     0.08 SECS, INTEGRAL =      9.44 TIME LEFT: 172790.47
 STEP: 119 TIME =     0.09 SECS, INTEGRAL =      9.52 TIME LEFT: 172790.38
 STEP: 120 TIME =     0.08 SECS, INTEGRAL =      9.60 TIME LEFT: 172790.30
 STEP: 121 TIME =     0.09 SECS, INTEGRAL =      9.69 TIME LEFT: 172790.22
 STEP: 122 TIME =     0.07 SECS, INTEGRAL =      9.76 TIME LEFT: 172790.15
 STEP: 123 TIME =     0.08 SECS, INTEGRAL =      9.84 TIME LEFT: 172790.07
 STEP: 124 TIME =     0.08 SECS, INTEGRAL =      9.91 TIME LEFT: 172789.99
 STEP: 125 TIME =     0.07 SECS, INTEGRAL =      9.98 TIME LEFT: 172789.92
 STEP: 126 TIME =     0.08 SECS, INTEGRAL =     10.06 TIME LEFT: 172789.84
 STEP: 127 TIME =     0.08 SECS, INTEGRAL =     10.14 TIME LEFT: 172789.77
 STEP: 128 TIME =     0.08 SECS, INTEGRAL =     10.22 TIME LEFT: 172789.69
 STEP: 129 TIME =     0.08 SECS, INTEGRAL =     10.30 TIME LEFT: 172789.61
 STEP: 130 TIME =     0.08 SECS, INTEGRAL =     10.38 TIME LEFT: 172789.53
 STEP: 131 TIME =     0.08 SECS, INTEGRAL =     10.45 TIME LEFT: 172789.45
 STEP: 132 TIME =     0.08 SECS, INTEGRAL =     10.53 TIME LEFT: 172789.38
 STEP: 133 TIME =     0.08 SECS, INTEGRAL =     10.61 TIME LEFT: 172789.30
 STEP: 134 TIME =     0.08 SECS, INTEGRAL =     10.69 TIME LEFT: 172789.22
 STEP: 135 TIME =     0.07 SECS, INTEGRAL =     10.76 TIME LEFT: 172789.15
 STEP: 136 TIME =     0.08 SECS, INTEGRAL =     10.84 TIME LEFT: 172789.07
 STEP: 137 TIME =     0.08 SECS, INTEGRAL =     10.91 TIME LEFT: 172788.99
 STEP: 138 TIME =     0.08 SECS, INTEGRAL =     10.99 TIME LEFT: 172788.91
 STEP: 139 TIME =     0.08 SECS, INTEGRAL =     11.07 TIME LEFT: 172788.84
 STEP: 140 TIME =     0.08 SECS, INTEGRAL =     11.15 TIME LEFT: 172788.76
 STEP: 141 TIME =     0.08 SECS, INTEGRAL =     11.23 TIME LEFT: 172788.68

(To convert to Hartree/Bohr^2, multiply by (10^(-21) x N x a0^2)/(4.184 x 627.51) =  0.0642)


           FORCE MATRIX IN MILLIDYNES/ANGSTROM


                  C  1       C  2       C  3       C  4       H  5       H  6
 ------------------------------------------------------------------------------
     C    1  17.057200
     C    2   3.757900  13.325436
     C    3   2.314344   5.593972  12.076309
     C    4   2.075717   1.082788   2.740271  17.138110
     H    5   0.590552   3.559476   0.697479   0.089510   4.365322
     H    6   0.177846   0.655240   3.433484   0.521504   0.027676   4.198450
     C    7   0.447191   0.100472   0.133905   0.514743   0.013184   0.016236
     H    8   0.064257   0.018550   0.013896   0.087412   0.002770   0.002675
     H    9   0.126298   0.027211   0.030445   0.069416   0.002368   0.004016
     H   10   0.060229   0.017440   0.017604   0.072331   0.002161   0.002670
     N   11   3.137897   1.358863   1.101066   4.576869   0.056746   0.067530
     O   12   0.552438   0.269044   0.965037  10.375529   0.017425   0.051230
     O   13  10.437042   1.479536   0.465726   0.295425   0.038164   0.059398
     C   14   0.571650   0.987259   1.329989   0.183159   0.103913   0.119430
     H   15   0.037536   0.036524   0.044355   0.016232   0.008753   0.004892
     C   16   0.820279   1.275223   2.148845   0.274311   0.133729   0.178664
     H   17   0.082741   0.083039   0.104545   0.027734   0.010711   0.009727
     C   18   0.446407   0.640725   0.773232   0.118571   0.108975   0.070243
     H   19   0.075905   0.101478   0.082429   0.016153   0.012199   0.007917
     C   20   0.255463   0.240909   0.273637   0.047203   0.035187   0.025016
     H   21   0.114968   0.104973   0.115055   0.014635   0.026639   0.010652
     H   22   0.029389   0.027993   0.034360   0.008779   0.005041   0.003240
     H   23   0.038256   0.031960   0.035504   0.008325   0.003882   0.003291
     C   24   1.255797   1.929462   3.015947   0.549785   0.165834   0.566916
     H   25   0.123090   0.151642   0.489012   0.108469   0.014567   0.011777
     C   26   0.071433   0.095368   0.404719   0.065045   0.009572   0.044075
     H   27   0.015661   0.018095   0.028849   0.018701   0.002043   0.003557
     H   28   0.037987   0.028537   0.039674   0.144238   0.001492   0.007239
     C   29   0.153733   0.161331   0.183424   0.174118   0.020557   0.063901
     C   30   0.069965   0.044972   0.051329   0.160335   0.005082   0.015612
     H   31   0.011941   0.006686   0.006318   0.028606   0.001021   0.002992
     H   32   0.011028   0.006524   0.005469   0.025553   0.001188   0.002723
     H   33   0.048698   0.020704   0.027125   0.152379   0.001887   0.007566
     O   34   0.117454   0.130854   0.176549   0.082094   0.015607   0.030510
     O   35   0.066199   0.068861   0.075659   0.071600   0.010726   0.020434
     H   36   0.451766   0.134316   0.112780   0.056986   0.026077   0.013647
     H   37   0.024891   0.010359   0.010694   0.043548   0.001182   0.002585
     H   38   0.027159   0.026164   0.021910   0.023276   0.004563   0.027311
     H   39   0.014764   0.013786   0.011929   0.014423   0.001784   0.005107
     O   40   0.051674   0.051696   0.046946   0.020727   0.009176   0.025697
     H   41   0.016168   0.017170   0.014654   0.005294   0.003690   0.008396
     O   42   0.015557   0.012485   0.010494   0.020455   0.001789   0.004806


                  C  1       C  2       C  3       C  4       H  5       H  6
 ------------------------------------------------------------------------------
     H   43   0.005032   0.003585   0.002975   0.006817   0.000596   0.001525
     O   44   0.071533   0.029079   0.033988   0.154929   0.003160   0.007056
     H   45   0.091288   0.032704   0.051427   0.352822   0.004115   0.009683
     O   46   0.217468   0.117179   0.091781   0.039228   0.023611   0.011229
     H   47   0.064155   0.030154   0.020891   0.012394   0.007366   0.003057


                  C  7       H  8       H  9       H 10       N 11       O 12
 ------------------------------------------------------------------------------
     C    7  11.091248
     H    8   3.236248   4.158774
     H    9   3.239341   0.544548   4.173359
     H   10   3.255344   0.551315   0.548124   4.189060
     N   11   4.244813   0.731712   0.746433   0.722217  14.919063
     O   12   0.059638   0.036787   0.013673   0.026117   1.974623  12.481570
     O   13   0.067506   0.016762   0.050675   0.015468   1.650837   0.171895
     C   14   0.010422   0.004391   0.005428   0.006561   0.051367   0.105762
     H   15   0.000696   0.000843   0.000808   0.000649   0.009409   0.012583
     C   16   0.011240   0.006368   0.007082   0.008978   0.101037   0.168847
     H   17   0.002052   0.001153   0.001092   0.001073   0.020546   0.022261
     C   18   0.008638   0.003279   0.004470   0.004598   0.057707   0.071907
     H   19   0.000989   0.000336   0.000900   0.001257   0.014881   0.008362
     C   20   0.004368   0.002433   0.003473   0.002534   0.032205   0.040479
     H   21   0.002397   0.000842   0.001240   0.000499   0.010822   0.011264
     H   22   0.000735   0.000508   0.000539   0.000380   0.007228   0.007498
     H   23   0.001043   0.000392   0.000822   0.000729   0.007610   0.006787
     C   24   0.021794   0.009737   0.011259   0.014363   0.237130   0.261487
     H   25   0.003243   0.001973   0.001745   0.003446   0.027037   0.033884
     C   26   0.001837   0.002143   0.001496   0.000935   0.025652   0.080503
     H   27   0.000520   0.000624   0.000456   0.000649   0.009008   0.013103
     H   28   0.003645   0.001380   0.001004   0.001196   0.045716   0.079339
     C   29   0.006883   0.006291   0.003899   0.002240   0.084969   0.149720
     C   30   0.006360   0.003392   0.002506   0.002527   0.086513   0.209502
     H   31   0.001102   0.000654   0.000523   0.000608   0.015119   0.026980
     H   32   0.001016   0.000832   0.000543   0.000468   0.013353   0.022747
     H   33   0.004909   0.002300   0.001775   0.001949   0.072227   0.102892
     O   34   0.003689   0.004367   0.002679   0.001351   0.040511   0.080799
     O   35   0.003341   0.003134   0.002305   0.001164   0.036068   0.053888
     H   36   0.012702   0.003458   0.005815   0.002796   0.099400   0.035870
     H   37   0.013259   0.017032   0.002907   0.004330   0.024726   0.055446
     H   38   0.001611   0.000784   0.000735   0.000631   0.014663   0.016812
     H   39   0.000731   0.000899   0.000592   0.000391   0.008060   0.010552
     O   40   0.001679   0.001373   0.001244   0.001017   0.016220   0.017993
     H   41   0.000514   0.000517   0.000468   0.000353   0.004803   0.005024
     O   42   0.001270   0.001022   0.000798   0.000586   0.011587   0.014566
     H   43   0.000509   0.000301   0.000301   0.000221   0.003995   0.004536
     O   44   0.063933   0.040542   0.008808   0.015904   0.077611   0.283081
     H   45   0.026753   0.058255   0.006997   0.025169   0.112187   0.267137
     O   46   0.008055   0.002785   0.004334   0.002149   0.050377   0.029469
     H   47   0.002281   0.000879   0.001421   0.000703   0.019886   0.009749


                  O 13       C 14       H 15       C 16       H 17       C 18
 ------------------------------------------------------------------------------
     O   13  12.588338
     C   14   0.249274  14.494141
     H   15   0.016009   3.430340   4.291680
     C   16   0.323836   4.809220   0.719457  13.627966
     H   17   0.028093   0.643036   0.040308   3.375833   4.127111
     C   18   0.194758   6.996741   0.740793   1.828298   0.087483  14.459736
     H   19   0.024486   0.652555   0.108827   0.135468   0.004523   3.446083
     C   20   0.123875   1.208780   0.057141   0.409344   0.029509   4.143132
     H   21   0.067196   0.158742   0.012162   0.142452   0.006133   0.754775
     H   22   0.012022   0.060147   0.030521   0.052207   0.003076   0.672064
     H   23   0.019279   0.062584   0.004936   0.055746   0.003885   0.696598
     C   24   0.434298   1.948589   0.081354   5.707160   0.648698   0.848032
     H   25   0.048617   0.139211   0.005398   0.714009   0.077911   0.082918
     C   26   0.022315   0.116762   0.012756   0.814235   0.055271   0.058889
     H   27   0.009093   0.017782   0.002417   0.031809   0.014766   0.010963
     H   28   0.008708   0.012923   0.002099   0.055749   0.003233   0.006289
     C   29   0.064223   0.080888   0.012391   0.074690   0.022396   0.050778
     C   30   0.028326   0.027023   0.003869   0.031901   0.008558   0.017504
     H   31   0.006450   0.006826   0.000957   0.007445   0.001634   0.004430
     H   32   0.006717   0.006482   0.000875   0.006594   0.001065   0.004290
     H   33   0.018441   0.010063   0.001711   0.016931   0.003866   0.006857
     O   34   0.046866   0.057030   0.010658   0.042389   0.020022   0.038801
     O   35   0.035025   0.040301   0.007038   0.039525   0.012538   0.026006
     H   36   0.297113   0.068114   0.005472   0.083458   0.008004   0.061068
     H   37   0.010091   0.005444   0.000936   0.008016   0.001379   0.003842
     H   38   0.012482   0.020823   0.004246   0.027841   0.047867   0.010674
     H   39   0.008409   0.009705   0.001134   0.008078   0.002052   0.006422
     O   40   0.023578   0.039281   0.009630   0.032664   0.029853   0.021228
     H   41   0.008239   0.013087   0.002851   0.010464   0.014939   0.007755
     O   42   0.009441   0.010763   0.001293   0.009790   0.002036   0.007213
     H   43   0.003245   0.003855   0.000476   0.003661   0.000647   0.002595
     O   44   0.030057   0.019286   0.002870   0.027149   0.004051   0.013497
     H   45   0.040519   0.027931   0.003673   0.038506   0.005219   0.019175
     O   46   0.281194   0.084685   0.008499   0.078389   0.008442   0.096045
     H   47   0.057609   0.007651   0.002115   0.007591   0.002545   0.008937


                  H 19       C 20       H 21       H 22       H 23       C 24
 ------------------------------------------------------------------------------
     H   19   4.221055
     C   20   0.628902  11.345230
     H   21   0.023500   2.932000   3.885839
     H   22   0.048280   3.325432   0.545149   4.247524
     H   23   0.029929   3.315525   0.561436   0.547625   4.237410
     C   24   0.104093   0.316788   0.129006   0.040838   0.042522  12.616154
     H   25   0.041810   0.026960   0.010998   0.003746   0.003959   3.304369
     C   26   0.011009   0.040478   0.013396   0.006650   0.005988   3.482219
     H   27   0.002137   0.007346   0.002177   0.001311   0.001263   0.587661
     H   28   0.001467   0.004604   0.001398   0.000776   0.000871   0.587889
     C   29   0.006251   0.036251   0.011557   0.006940   0.006226   0.187195
     C   30   0.002100   0.011544   0.003375   0.002266   0.002065   0.054470
     H   31   0.000572   0.002872   0.000783   0.000559   0.000544   0.011212
     H   32   0.000474   0.002906   0.000865   0.000560   0.000525   0.007340
     H   33   0.000769   0.004469   0.001211   0.000940   0.000754   0.031261
     O   34   0.004702   0.029828   0.009662   0.005681   0.004976   0.942237
     O   35   0.002905   0.019013   0.006065   0.003775   0.003109   0.085791
     H   36   0.003641   0.064540   0.088958   0.009026   0.008853   0.113191
     H   37   0.000309   0.002751   0.000844   0.000583   0.000440   0.011858
     H   38   0.001295   0.006754   0.002004   0.001589   0.000975   0.027790
     H   39   0.000760   0.004456   0.001371   0.000822   0.000834   0.012420
     O   40   0.002537   0.012854   0.003929   0.003104   0.001983   0.048123
     H   41   0.000850   0.004978   0.001838   0.001117   0.000758   0.013732
     O   42   0.000802   0.004960   0.001480   0.000944   0.000924   0.011665
     H   43   0.000273   0.001778   0.000526   0.000349   0.000325   0.003850
     O   44   0.001230   0.009040   0.002627   0.001799   0.001551   0.038027
     H   45   0.002094   0.011979   0.003347   0.002228   0.002113   0.052665
     O   46   0.004348   0.216740   0.081359   0.024166   0.020370   0.091478
     H   47   0.001170   0.024441   0.047370   0.008885   0.005345   0.017838


                  H 25       C 26       H 27       H 28       C 29       C 30
 ------------------------------------------------------------------------------
     H   25   4.199848
     C   26   0.585103  11.364010
     H   27   0.022195   3.229798   4.149911
     H   28   0.031523   3.225708   0.537486   4.126578
     C   29   0.028876   1.049128   0.123929   0.116764  16.725940
     C   30   0.008518   0.076793   0.024286   0.034985   3.924743  11.386269
     H   31   0.002117   0.026776   0.006930   0.034630   0.730242   3.293400
     H   32   0.001305   0.012369   0.003123   0.003615   0.750940   3.216719
     H   33   0.004995   0.035588   0.006277   0.048883   0.759074   3.134108
     O   34   0.065669   3.160386   0.717586   0.666941   3.890692   0.811526
     O   35   0.014280   0.295749   0.062200   0.042208  10.444811   1.153411
     H   36   0.012039   0.006782   0.002257   0.001914   0.017817   0.007387
     H   37   0.002006   0.004133   0.000663   0.002364   0.013342   0.009978
     H   38   0.003275   0.066599   0.009026   0.007853   0.237828   0.037496
     H   39   0.002034   0.033044   0.006895   0.004451   0.277198   0.051976
     O   40   0.004295   0.040885   0.006689   0.005092   0.092559   0.028412
     H   41   0.001351   0.011229   0.002062   0.001705   0.031053   0.010221
     O   42   0.001892   0.025737   0.005021   0.003498   0.145869   0.097310
     H   43   0.000601   0.007388   0.001382   0.000832   0.045072   0.015207
     O   44   0.006641   0.009342   0.002579   0.007012   0.026935   0.022324
     H   45   0.009405   0.008629   0.003907   0.008841   0.027146   0.026505
     O   46   0.009918   0.011521   0.002951   0.002042   0.022023   0.007966
     H   47   0.002468   0.003020   0.000948   0.000646   0.007093   0.002693


                  H 31       H 32       H 33       O 34       O 35       H 36
 ------------------------------------------------------------------------------
     H   31   4.200876
     H   32   0.544774   4.111991
     H   33   0.547664   0.542393   4.054745
     O   34   0.063303   0.064178   0.080992   9.515959
     O   35   0.067663   0.071267   0.074731   2.540460  12.789229
     H   36   0.001682   0.001776   0.004542   0.012970   0.010112   3.406959
     H   37   0.004880   0.002981   0.008845   0.008017   0.006076   0.002733
     H   38   0.007489   0.008280   0.009295   0.097217   0.152321   0.003844
     H   39   0.009112   0.059156   0.011887   0.093299   0.192162   0.002232
     O   40   0.005936   0.006714   0.007019   0.106521   0.144604   0.007550
     H   41   0.001936   0.002618   0.002100   0.017795   0.031465   0.002899
     O   42   0.013340   0.033371   0.017213   0.067254   0.193606   0.002643
     H   43   0.003141   0.014158   0.004032   0.020255   0.039990   0.000970
     O   44   0.004931   0.005307   0.017884   0.016820   0.013462   0.007663
     H   45   0.009150   0.004917   0.019736   0.017371   0.013782   0.009075
     O   46   0.001894   0.002043   0.004033   0.016827   0.012012   2.826804
     H   47   0.000667   0.000716   0.001312   0.005408   0.003834   1.025454


                  H 37       H 38       H 39       O 40       H 41       O 42
 ------------------------------------------------------------------------------
     H   37   3.742492
     H   38   0.001322   3.624462
     H   39   0.001989   0.018271   3.533090
     O   40   0.001844   2.954689   0.014729   5.152475
     H   41   0.000712   1.072853   0.006018   3.062014   3.724923
     O   42   0.002891   0.014174   2.925641   0.011891   0.004837   5.097139
     H   43   0.000979   0.004291   1.048897   0.004041   0.001825   3.052886
     O   44   3.084186   0.003297   0.004313   0.005138   0.001943   0.005270
     H   45   1.072083   0.003649   0.004111   0.006068   0.002225   0.004570
     O   46   0.002583   0.004412   0.002924   0.008595   0.003282   0.003421
     H   47   0.000872   0.001386   0.001054   0.002786   0.001097   0.001260


                  H 43       O 44       H 45       O 46       H 47
 ------------------------------------------------------------------
     H   43   3.702252
     O   44   0.001593   5.084464
     H   45   0.001208   2.833455   3.515677
     O   46   0.001265   0.007415   0.008816   5.105128
     H   47   0.000471   0.002553   0.003046   3.085198   3.733736


          HEAT OF FORMATION =    -338.478170 KCALS/MOLE


          TRIVIAL VIBRATIONS, SHOULD BE ZERO

 -32.7292=TX -16.1362=TY  22.8902=TZ -49.0123=RX   9.5204=RY -34.5319=RZ


      MOLECULAR POINT GROUP   :   C1  


           EIGENVECTORS  


   Root No.       1         2         3         4         5         6         7         8

                 1 A       2 A       3 A       4 A       5 A       6 A       7 A       8 A   

                  -3.2      -0.0      -0.0       0.0       0.0       0.0       0.0       0.0
  
           1    0.1435   -0.0251    0.0806   -0.0172    0.0017   -0.0294    0.0190   -0.0830
           2   -0.0384   -0.0197   -0.0250   -0.0091   -0.0303   -0.0084   -0.0353    0.0101
           3   -0.0223    0.0284   -0.0805   -0.0266   -0.0254    0.0426   -0.0226    0.0470
           4   -0.0770   -0.0250    0.0794   -0.0167    0.0010   -0.0290    0.0184   -0.0844
           5   -0.0461   -0.0256    0.0133   -0.0026   -0.0519   -0.0008   -0.0497   -0.0317
           6    0.1797    0.0140   -0.0262   -0.0305   -0.0089    0.0076   -0.0060    0.0518
           7    0.1602   -0.0200    0.0489   -0.0227    0.0198   -0.0357    0.0338   -0.0456
           8    0.2230   -0.0278    0.0250   -0.0006   -0.0586    0.0015   -0.0549   -0.0464
           9    0.6051   -0.0074    0.0003   -0.0334   -0.0415   -0.0034   -0.0115    0.0144
          10   -0.0193   -0.0176    0.0294   -0.0275    0.0357   -0.0447    0.0440   -0.0188
          11    0.0009   -0.0245   -0.0016   -0.0057   -0.0467   -0.0036   -0.0415   -0.0173
          12    0.0274   -0.0070   -0.0075   -0.0243   -0.0991    0.0374   -0.0122   -0.0304
          13   -0.0102   -0.0294    0.1077   -0.0139   -0.0114   -0.0267    0.0100   -0.1102
          14    0.0449   -0.0289    0.0291   -0.0009   -0.0626    0.0018   -0.0562   -0.0519
          15   -0.0238    0.0180   -0.0005   -0.0309    0.0251   -0.0059    0.0069    0.0833
          16   -0.0592   -0.0236    0.0512   -0.0272    0.0338   -0.0519    0.0352   -0.0359
          17   -0.0240   -0.0381    0.0477    0.0045   -0.0843    0.0064   -0.0670   -0.0887
          18   -0.0850   -0.0211    0.0182   -0.0389   -0.0304   -0.0319   -0.0188    0.0062
          19    0.0197   -0.0198    0.0407   -0.0258    0.0315   -0.0443    0.0407   -0.0276
          20   -0.0008   -0.0165   -0.0531   -0.0165   -0.0139   -0.0160   -0.0118    0.0566
          21   -0.0072    0.0205   -0.0525   -0.0181   -0.1580    0.1279   -0.0187   -0.0676
          22    0.0006   -0.0238    0.0410   -0.0190    0.0820   -0.0846    0.0503    0.0204
          23   -0.0011   -0.0189   -0.0242    0.0157   -0.0174   -0.0084   -0.0062    0.0391
          24   -0.0007    0.0192   -0.0293    0.0069   -0.1678    0.1399   -0.0156   -0.0886
          25    0.0170   -0.0225    0.0583   -0.0190    0.0281   -0.0452    0.0289   -0.0493
          26   -0.0036   -0.0156   -0.0593   -0.0151   -0.0076   -0.0181   -0.0025    0.0721
          27   -0.0003    0.0271   -0.0914   -0.0592   -0.1818    0.1445   -0.0223   -0.0650
          28    0.0066   -0.0130    0.0181   -0.0406   -0.0096   -0.0070    0.0476   -0.0433
          29   -0.0044   -0.0132   -0.0896   -0.0538   -0.0048   -0.0272   -0.0118    0.0882
          30   -0.0065    0.0206   -0.0384   -0.0016   -0.1745    0.1446   -0.0167   -0.0894
          31    0.0357   -0.0203    0.0479   -0.0238    0.0231   -0.0389    0.0347   -0.0428
          32    0.0262   -0.0194   -0.0296   -0.0104   -0.0279   -0.0100   -0.0302    0.0187
          33   -0.0074    0.0129   -0.0474   -0.0181   -0.0865    0.0645   -0.0198   -0.0121
          34   -0.0071   -0.0144    0.0062   -0.0327    0.0535   -0.0526    0.0557    0.0168
          35    0.0319   -0.0265    0.0021   -0.0052   -0.0521   -0.0028   -0.0408   -0.0223
          36   -0.0130   -0.0240    0.0194   -0.0204   -0.1435    0.0439   -0.0036   -0.0748
          37    0.0058   -0.0288    0.1108   -0.0118   -0.0162   -0.0205    0.0126   -0.1082
          38    0.0013   -0.0154   -0.0554   -0.0140   -0.0126   -0.0161   -0.0296    0.0348
          39   -0.0094    0.0477   -0.1535   -0.0303    0.0056    0.0524   -0.0390    0.0790
          40    0.0673   -0.0000   -0.0573   -0.0293    0.0296   -0.0210   -0.0524    0.0045
          41    0.0696   -0.0026    0.0302    0.0042    0.0046   -0.0009   -0.0570   -0.0083
          42   -0.0024    0.0015    0.0625   -0.0235    0.0019   -0.0094    0.0296    0.0301
          43    0.0115   -0.0013   -0.0761   -0.0346    0.0458   -0.0361   -0.0890    0.0212
          44   -0.0115   -0.0040    0.0145   -0.0005    0.0250   -0.0187   -0.0944    0.0106
          45    0.0192    0.0026    0.1056   -0.0132    0.0125   -0.0096    0.0633    0.0255
          46    0.0179    0.0017   -0.0179   -0.0196    0.0007    0.0038    0.0118   -0.0273
          47   -0.1441   -0.0076    0.0157   -0.0005    0.0057   -0.0127   -0.0817   -0.0089
          48   -0.0348   -0.0149    0.0408   -0.0311   -0.0202   -0.0305   -0.0052   -0.0007
          49    0.0051    0.0017   -0.0112   -0.0170   -0.0033    0.0063    0.0206   -0.0345
          50    0.0223   -0.0132   -0.0114   -0.0087    0.0276   -0.0393   -0.1324    0.0096
          51    0.0257   -0.0250    0.0563   -0.0305   -0.0171   -0.0558   -0.0128   -0.0199
          52   -0.0454   -0.0004   -0.0712   -0.0333    0.0405   -0.0304   -0.0777    0.0178
          53   -0.0213    0.0021    0.0620    0.0144   -0.0211    0.0303    0.0100   -0.0328
          54   -0.0516    0.0143    0.0375   -0.0233    0.0132    0.0117    0.0295    0.0682
          55   -0.0207    0.0013   -0.0569   -0.0281    0.0249   -0.0147   -0.0442    0.0013
          56    0.0204    0.0044    0.0789    0.0208   -0.0413    0.0503    0.0523   -0.0540
          57    0.0031    0.0173   -0.0227   -0.0311   -0.0000    0.0138   -0.0067    0.0630
          58    0.0176   -0.0017   -0.1118   -0.0447    0.0735   -0.0618   -0.1554    0.0566
          59    0.0373    0.0041    0.0792    0.0188   -0.0241    0.0409    0.0356   -0.0345
          60   -0.0001    0.0255    0.0880   -0.0122    0.0377    0.0363    0.0793    0.1133
          61   -0.0102   -0.0044   -0.1414   -0.0291    0.0440   -0.0535   -0.1425    0.0205
          62   -0.0068   -0.0024    0.0519    0.0080   -0.0353    0.0243    0.0055   -0.0597
          63   -0.0226    0.0294    0.1098   -0.0114    0.0503    0.0423    0.0896    0.1360
          64    0.0059   -0.0012   -0.1237   -0.0545    0.0967   -0.0786   -0.1983    0.0860
          65   -0.0018    0.0061    0.0662    0.0198   -0.0080    0.0343    0.0111   -0.0096
          66   -0.0089    0.0274    0.0935    0.0099    0.0117    0.0622    0.1342    0.0872
          67   -0.0049    0.0001   -0.1061   -0.0573    0.0996   -0.0748   -0.1863    0.0900
          68   -0.0011    0.0099    0.1314    0.0310   -0.0321    0.0718    0.1080   -0.0359
          69   -0.0092    0.0288    0.1057   -0.0265    0.0701    0.0250    0.0525    0.1567
          70   -0.2268    0.0034    0.0084   -0.0127   -0.0186    0.0193    0.0495   -0.0479
          71   -0.1189   -0.0075    0.0299    0.0038   -0.0186    0.0038   -0.0524   -0.0263
          72   -0.5935   -0.0198    0.0073   -0.0374   -0.0436   -0.0220   -0.0236   -0.0011
          73    0.0088    0.0080   -0.0025   -0.0118   -0.0238    0.0297    0.0483   -0.0434
          74    0.0106    0.0043    0.0507    0.0146   -0.0346    0.0304   -0.0137   -0.0377
          75    0.0592   -0.0095   -0.0136   -0.0346   -0.0571    0.0035   -0.0199    0.0070
          76   -0.0145    0.0111    0.0294   -0.0026   -0.0453    0.0428    0.0839   -0.0651
          77   -0.0383   -0.0131    0.0223   -0.0010   -0.0098   -0.0077   -0.0672   -0.0207
          78   -0.0431   -0.0492    0.0052   -0.0491   -0.0505   -0.0525   -0.0428   -0.0099
          79   -0.0329    0.0450    0.0436   -0.0042   -0.0679    0.0769    0.1584   -0.0846
          80   -0.0690   -0.0054    0.0146    0.0047    0.0092   -0.0052   -0.0896   -0.0039
          81   -0.0103   -0.0695    0.0009   -0.0501   -0.0466   -0.0704   -0.0726   -0.0071
          82   -0.0021    0.0053    0.0339    0.0041   -0.0536    0.0447    0.0743   -0.0680
          83    0.0129   -0.0107    0.0322    0.0018   -0.0292    0.0026   -0.0460   -0.0342
          84   -0.0029   -0.0314    0.0141   -0.0585   -0.0699   -0.0373    0.0193   -0.0302
          85   -0.0012   -0.0486    0.0000    0.0163   -0.0100   -0.0054    0.0042   -0.0342
          86    0.0048   -0.0418   -0.0022   -0.0360    0.0242   -0.0554    0.0288   -0.0168
          87   -0.0137   -0.0934   -0.0193   -0.0525   -0.0169   -0.0975   -0.0564    0.0121
          88    0.0040   -0.0247    0.0115   -0.0038    0.0011   -0.0163    0.0129   -0.0066
          89    0.0006   -0.0113    0.0103   -0.0627    0.0359   -0.0652    0.0642    0.0081
          90    0.0018   -0.0460   -0.0057   -0.0982   -0.0058   -0.1021    0.0694    0.0215
          91   -0.0020    0.0194    0.0401   -0.0227   -0.0398   -0.0088    0.0786   -0.0281
          92   -0.0004   -0.0279    0.0150   -0.0340   -0.0020   -0.0521    0.0096   -0.0221
          93    0.0002   -0.0303   -0.0093   -0.1223    0.0250   -0.1130    0.1158    0.0463
          94   -0.0024   -0.0351    0.0007   -0.0073    0.0412   -0.0299   -0.0298    0.0341
          95    0.0001    0.0049    0.0010   -0.0868    0.0765   -0.0753    0.1161    0.0348
          96   -0.0009   -0.0383   -0.0148   -0.1138    0.0317   -0.1133    0.0858    0.0514
          97   -0.0045   -0.0387    0.0026    0.0037    0.0104   -0.0166   -0.0032   -0.0056
          98   -0.0046    0.0188    0.0243   -0.0860    0.0378   -0.0732    0.0950    0.0263
          99    0.0007   -0.0226    0.0181   -0.0926   -0.0710   -0.0805    0.1034   -0.0297
         100    0.0104   -0.0209    0.0207    0.0026   -0.0328    0.0161    0.0111   -0.0532
         101    0.0107   -0.0361    0.0148   -0.0178   -0.0012   -0.0362   -0.0824   -0.0257
         102    0.0170   -0.0880   -0.0052   -0.0417   -0.0359   -0.0832   -0.1290    0.0043
         103    0.0025   -0.0964   -0.0282    0.0444   -0.0014   -0.0147   -0.0159   -0.0424
         104   -0.0048   -0.0758   -0.0274   -0.0280    0.0343   -0.0627    0.0815   -0.0307
         105    0.0065   -0.1389   -0.0423   -0.0203   -0.0110   -0.1056   -0.1075    0.0083
         106   -0.0015   -0.0400    0.3239    0.0115   -0.1380    0.0591    0.0316   -0.0194
         107    0.0282   -0.0157   -0.0573   -0.0119   -0.0436    0.0020   -0.0548    0.0648
         108   -0.0041    0.0516   -0.1989   -0.0384    0.1576   -0.0277   -0.0201    0.1182
         109   -0.0000   -0.0440   -0.0665   -0.1683   -0.0644   -0.0745    0.1373    0.0720
         110   -0.0035   -0.0334    0.1247    0.1880    0.1522   -0.0978   -0.0710    0.0930
         111    0.0008   -0.0073    0.2506    0.3556    0.2241   -0.0609   -0.0770    0.0407
         112   -0.0002   -0.0438   -0.1206    0.1516   -0.0370    0.0493   -0.0327   -0.1670
         113    0.0020   -0.0368   -0.0883    0.0744    0.0048   -0.0151   -0.0104   -0.1177
         114   -0.0054   -0.0582   -0.0746    0.1293   -0.0527   -0.0119   -0.0289   -0.1794
         115   -0.0008    0.2407   -0.0047    0.0498   -0.0140    0.0169   -0.1146   -0.0357
         116   -0.0008    0.3067   -0.0059   -0.0514    0.0392   -0.0018    0.1840   -0.0655
         117   -0.0023    0.1842   -0.0260   -0.0331   -0.0131   -0.0675   -0.1001   -0.0011
         118   -0.0035   -0.0143   -0.2333    0.2826   -0.0638    0.0784    0.0711   -0.1256
         119    0.0017   -0.0206   -0.1377    0.1403   -0.0085    0.0054    0.0339   -0.1154
         120    0.0088   -0.0284   -0.1294    0.2355   -0.0729    0.0413    0.0062   -0.2434
         121   -0.0031    0.0302   -0.2963    0.3749   -0.0940   -0.0397    0.3234    0.3982
         122   -0.0025   -0.0172   -0.1552    0.1316   -0.0129   -0.0821    0.1452    0.1804
         123    0.0018   -0.0044   -0.1580    0.2927   -0.0883    0.0137    0.1001   -0.0786
         124    0.0020    0.4849    0.0191    0.0413    0.0071    0.0805   -0.2491    0.0258
         125    0.0010    0.5134    0.0124   -0.0680    0.0650    0.0727    0.1582   -0.0365
         126    0.0021    0.3555   -0.0118   -0.0527    0.0131    0.0066   -0.0695    0.0098
         127   -0.0008   -0.0705   -0.0362   -0.0037    0.2341    0.4580   -0.2625    0.0741
         128   -0.0007   -0.1289   -0.0539   -0.1259    0.3068    0.4779    0.3031   -0.0343
         129   -0.0006   -0.1985   -0.0674   -0.0987    0.2370    0.3796   -0.0585    0.0501
         130    0.0002   -0.0274   -0.0263   -0.0910    0.0297   -0.0708    0.1177    0.0789
         131    0.0062   -0.0285    0.0433    0.0662    0.0639   -0.0539   -0.0061    0.0836
         132    0.0010    0.0009    0.2457    0.3557    0.2405   -0.0474   -0.0676    0.0412
         133    0.0082   -0.0170   -0.0043   -0.0454    0.0619   -0.0613    0.0830    0.0552
         134   -0.0116   -0.0230    0.0009    0.0087   -0.0094   -0.0192   -0.0097    0.0359
         135   -0.0020   -0.0050    0.1573    0.2146    0.0943   -0.0106   -0.0271    0.0052
         136    0.0022   -0.0234    0.1866    0.0124   -0.1626    0.0861   -0.0297    0.1244
         137   -0.0036   -0.0071   -0.1035   -0.0071   -0.0661    0.0257   -0.0786    0.1524
         138    0.0262    0.0347    0.0380   -0.0231    0.1590   -0.0245    0.0789    0.0101
         139   -0.0027   -0.0156    0.1521    0.0239   -0.2439    0.1515   -0.0652    0.3398
         140    0.0072   -0.0142   -0.0632   -0.0112   -0.0439    0.0037   -0.0573    0.0702
         141   -0.0024    0.0558   -0.1485   -0.0479    0.3794   -0.1672    0.0686   -0.3585


   Root No.       9        10        11        12        13        14        15        16

                 9 A      10 A      11 A      12 A      13 A      14 A      15 A      16 A   

                   0.0       0.0       0.0       0.0       0.0       0.0       0.0       0.0
  
           1    0.0531   -0.0184    0.0261    0.0156    0.0090   -0.0099    0.0249    0.0088
           2   -0.0009   -0.0090   -0.0269   -0.0243   -0.0032    0.0048   -0.0589    0.0279
           3   -0.0198   -0.0369    0.1108    0.0495   -0.0647   -0.0497    0.0273   -0.0954
           4    0.0532   -0.0192    0.0306    0.0184    0.0071   -0.0111    0.0249    0.0055
           5    0.0411    0.0187   -0.0380   -0.0187    0.0173    0.0142   -0.0824    0.0317
           6   -0.0109   -0.0296    0.1179    0.0421   -0.0370   -0.0591   -0.0242   -0.1063
           7    0.0161   -0.0412    0.0350    0.0135   -0.0079   -0.0187    0.0443    0.0035
           8    0.0559    0.0266   -0.0398   -0.0168    0.0230    0.0172   -0.0876    0.0322
           9    0.0169   -0.0035    0.0687    0.0256   -0.0040   -0.0230   -0.0720   -0.0734
          10   -0.0095   -0.0602    0.0450    0.0108   -0.0185   -0.0256    0.0580   -0.0004
          11    0.0256    0.0091   -0.0401   -0.0258    0.0131    0.0140   -0.0791    0.0329
          12    0.0424    0.0404    0.0184    0.0213    0.0153    0.0124   -0.1147   -0.0654
          13    0.0832   -0.0026    0.0253    0.0213    0.0211   -0.0046    0.0092    0.0125
          14    0.0624    0.0300   -0.0413   -0.0162    0.0261    0.0208   -0.0928    0.0368
          15   -0.0353   -0.0360    0.1095    0.0311   -0.0281   -0.0813   -0.0174   -0.1020
          16    0.0086   -0.0547    0.0470    0.0147   -0.0122   -0.0251    0.0579    0.0083
          17    0.0868    0.0544   -0.0679   -0.0201    0.0433    0.0359   -0.1171    0.0410
          18    0.0214   -0.0126    0.0757    0.0271   -0.0005   -0.0248   -0.0629   -0.0578
          19   -0.0007   -0.0523    0.0392    0.0171   -0.0085   -0.0205    0.0472    0.0006
          20   -0.0478   -0.0300   -0.0327   -0.0161    0.0013    0.0065   -0.0184    0.0506
          21    0.0588    0.0232    0.0044    0.0204    0.0104    0.0138    0.1962    0.1135
          22   -0.0410   -0.0043    0.0979   -0.0427   -0.0543   -0.0547   -0.0470   -0.0856
          23   -0.0431    0.2171    0.0805   -0.3144   -0.1125   -0.0815    0.0462    0.1009
          24    0.0686    0.2115    0.0859   -0.2078   -0.0730   -0.0508    0.2632    0.1668
          25    0.0225   -0.0159    0.0564   -0.0186   -0.0257   -0.0318    0.0106   -0.0246
          26   -0.0654   -0.0088   -0.0199   -0.0473   -0.0103   -0.0041    0.0054    0.0664
          27    0.0634   -0.2918   -0.1635    0.3964    0.1723    0.1360    0.2146    0.1342
          28    0.0057   -0.1438   -0.0350    0.1204    0.0561    0.0259    0.1807    0.1109
          29   -0.0653   -0.3150   -0.1624    0.3211    0.1323    0.1046   -0.0807    0.0035
          30    0.0701    0.1528    0.0539   -0.1347   -0.0424   -0.0267    0.2698    0.1721
          31    0.0137   -0.0449    0.0376    0.0123   -0.0082   -0.0199    0.0457    0.0028
          32   -0.0087   -0.0105   -0.0310   -0.0264   -0.0014    0.0059   -0.0544    0.0309
          33    0.0230    0.0058    0.0486    0.0426   -0.0169   -0.0053   -0.0091   -0.0600
          34   -0.0418   -0.0739    0.0492   -0.0014   -0.0283   -0.0315    0.0816    0.0018
          35    0.0297    0.0169   -0.0472   -0.0268    0.0179    0.0191   -0.0914    0.0331
          36    0.0734    0.0984   -0.0347    0.0111    0.0519    0.0538   -0.2171   -0.0682
          37    0.0790    0.0018    0.0158    0.0187    0.0273   -0.0006    0.0125    0.0182
          38   -0.0263   -0.0286   -0.0154   -0.0255   -0.0218   -0.0049   -0.0437    0.0177
          39   -0.0545   -0.0771    0.1460    0.0645   -0.1274   -0.0651    0.0948   -0.1118
          40   -0.0124    0.0043    0.0109   -0.0022    0.0097   -0.0137   -0.0372   -0.0113
          41    0.0335   -0.0025    0.0641    0.0230   -0.0059   -0.0375    0.0118    0.0034
          42   -0.0050   -0.0325    0.0866    0.0247   -0.0149   -0.0440    0.0063   -0.0166
          43   -0.0231    0.0094    0.0132   -0.0080    0.0219   -0.0142   -0.0413    0.0194
          44    0.0200    0.0012    0.0684    0.0162    0.0069   -0.0374    0.0134    0.0438
          45   -0.0134   -0.0474    0.0954    0.0225   -0.0240   -0.0384    0.0458    0.0226
          46    0.0033   -0.0070    0.0105    0.0070   -0.0088   -0.0145   -0.0324   -0.0475
          47    0.0363   -0.0006    0.0736    0.0253   -0.0007   -0.0373    0.0037    0.0112
          48    0.0222   -0.0404    0.1330    0.0448   -0.0161   -0.0465   -0.0146   -0.0222
          49    0.0029   -0.0113    0.0155    0.0086   -0.0105   -0.0157   -0.0323   -0.0452
          50    0.0354    0.0011    0.0935    0.0282    0.0074   -0.0414    0.0160    0.0386
          51    0.0381   -0.0715    0.2086    0.0701   -0.0272   -0.0676    0.0162    0.0281
          52   -0.0218    0.0098    0.0069   -0.0085    0.0201   -0.0130   -0.0438    0.0110
          53    0.0479   -0.0044    0.0396    0.0268   -0.0226   -0.0363    0.0163   -0.0554
          54   -0.0344    0.0024   -0.0087   -0.0086    0.0113   -0.0360   -0.0199   -0.0354
          55   -0.0109    0.0062    0.0035   -0.0021    0.0081   -0.0145   -0.0406   -0.0264
          56    0.0622   -0.0088    0.0357    0.0354   -0.0372   -0.0396    0.0205   -0.1061
          57   -0.0220   -0.0033    0.0475    0.0200    0.0024   -0.0693   -0.0406   -0.1096
          58   -0.0482    0.0171    0.0180   -0.0223    0.0399   -0.0071   -0.0615    0.0904
          59    0.0477    0.0006    0.0114    0.0196   -0.0211   -0.0308    0.0227   -0.0637
          60   -0.0747    0.0402   -0.1587   -0.0682    0.0439    0.0028   -0.0056    0.0215
          61   -0.0286   -0.0436    0.0790   -0.0066   -0.3228    0.3413   -0.0766    0.1308
          62    0.0724   -0.0114    0.0965    0.0564    0.0413   -0.1417    0.0138   -0.1188
          63   -0.0926    0.0624   -0.2145   -0.0891    0.1167   -0.0445    0.0038    0.0351
          64   -0.0663    0.0376    0.0085   -0.0326    0.1505   -0.1024   -0.0679    0.1181
          65    0.0268    0.0014   -0.0105   -0.0002   -0.0867    0.0655    0.0140    0.0038
          66   -0.0670   -0.0019   -0.1693   -0.0747   -0.2783    0.3354   -0.0050    0.0579
          67   -0.0678    0.0556   -0.0140   -0.0353    0.2649   -0.2184   -0.0603    0.0883
          68    0.0441    0.0157   -0.0702   -0.0009   -0.0073   -0.0257    0.0440   -0.0868
          69   -0.1010    0.0934   -0.2157   -0.0888    0.3411   -0.2726    0.0012    0.0139
          70    0.0068   -0.0160    0.0108    0.0090   -0.0172   -0.0165   -0.0424   -0.0522
          71    0.0414    0.0013    0.0523    0.0202   -0.0030   -0.0289   -0.0211   -0.0030
          72    0.0276   -0.0043    0.0621    0.0234    0.0025   -0.0149   -0.0753   -0.0572
          73    0.0036   -0.0072   -0.0011    0.0049   -0.0147   -0.0114   -0.0559   -0.0637
          74    0.0375   -0.0096    0.0642    0.0223   -0.0145   -0.0398   -0.0378   -0.0143
          75    0.0210    0.0144    0.0339    0.0151    0.0060   -0.0040   -0.1023   -0.0845
          76    0.0053   -0.0252    0.0065   -0.0008   -0.0196   -0.0185   -0.0906   -0.0444
          77    0.0429    0.0064    0.0478    0.0218    0.0003   -0.0244   -0.0041   -0.0021
          78    0.0473    0.0143   -0.0091    0.0081    0.0146    0.0157   -0.0702   -0.0344
          79   -0.0211   -0.0437    0.0613   -0.0176    0.0177    0.0158   -0.1549   -0.0774
          80    0.0403   -0.0011    0.0838    0.0385   -0.0187   -0.0576    0.0253   -0.0048
          81    0.0622    0.0271   -0.0510    0.0111    0.0022    0.0104   -0.0494   -0.0179
          82    0.0123   -0.0249   -0.0096   -0.0030   -0.0283   -0.0283   -0.1044   -0.0286
          83    0.0424    0.0052    0.0369    0.0103    0.0098   -0.0109   -0.0417    0.0022
          84    0.0304    0.0106    0.0067   -0.0096    0.0532    0.0640   -0.1162   -0.0620
          85    0.0285   -0.0191   -0.1068    0.0071   -0.1100   -0.1128    0.0185    0.0155
          86    0.0130   -0.0053   -0.0290   -0.0052   -0.0099   -0.0040    0.1096   -0.0352
          87    0.0547    0.0136   -0.1073    0.0022   -0.0441   -0.0329    0.0360   -0.0112
          88    0.0106   -0.0808   -0.0448   -0.0712   -0.0360   -0.0544    0.0027    0.0449
          89   -0.0122   -0.0733    0.0374   -0.0912    0.0718    0.0645    0.0941   -0.0135
          90    0.0064   -0.0620   -0.0415   -0.0923    0.0484    0.0588    0.0222   -0.0236
          91   -0.0027   -0.1423    0.0222   -0.1871    0.0833    0.0350   -0.1785    0.0190
          92    0.0218   -0.0272    0.0097   -0.0535    0.0479    0.0307   -0.0018   -0.0321
          93   -0.0222   -0.1012   -0.0182   -0.1265    0.0715    0.0898    0.1008   -0.0090
          94    0.0061   -0.0962   -0.0378   -0.0698   -0.0490   -0.0621    0.1209    0.0898
          95   -0.0441   -0.1026    0.0468   -0.1034    0.0709    0.0794    0.2129    0.0037
          96   -0.0141   -0.0851   -0.0327   -0.1001    0.0453    0.0674    0.1341    0.0003
          97    0.0159   -0.0564   -0.0703   -0.0303   -0.0784   -0.0874    0.0514    0.0474
          98   -0.0333   -0.1419    0.1005   -0.1885    0.1629    0.1378    0.0482    0.0036
          99    0.0195   -0.0600   -0.0225   -0.1356    0.1128    0.1013   -0.1878   -0.0779
         100    0.0341   -0.0045   -0.0490    0.0168   -0.0563   -0.0536   -0.0503   -0.0102
         101    0.0528    0.0316    0.0089    0.0324    0.0061    0.0009    0.0338   -0.0106
         102    0.0816    0.0391   -0.0757    0.0289   -0.0291   -0.0249   -0.0211    0.0052
         103    0.0400    0.0234   -0.2042    0.0633   -0.2080   -0.2007    0.0857    0.0040
         104    0.0058    0.0235   -0.1149    0.0350   -0.0878   -0.0632    0.1770   -0.0725
         105    0.0725    0.0525   -0.1869    0.0536   -0.1298   -0.1156    0.0877   -0.0050
         106    0.0678    0.0835   -0.1168   -0.0107    0.1204    0.1279   -0.0213    0.1830
         107   -0.0461   -0.0402   -0.0083   -0.0332   -0.0683    0.0225   -0.0737    0.0282
         108   -0.1206   -0.0402   -0.0362   -0.0597   -0.1751    0.0514   -0.0044   -0.0307
         109   -0.1577    0.5669    0.1553    0.3731    0.1129    0.2115    0.0195   -0.0685
         110   -0.0936    0.1336   -0.0840    0.2572    0.0328    0.0623    0.0147    0.2462
         111   -0.0350    0.0284    0.0393    0.1549   -0.0299    0.0532    0.0066   -0.0357
         112   -0.1534    0.0485   -0.2215   -0.0320   -0.0255   -0.0223   -0.0033   -0.1711
         113   -0.1214    0.0452   -0.0934   -0.0184    0.0499    0.0671    0.1342   -0.2018
         114   -0.1747   -0.0169    0.0037    0.0213    0.0013   -0.0375    0.0536   -0.0031
         115    0.0371    0.0437   -0.1288    0.0494   -0.1152   -0.1168    0.0323   -0.0074
         116   -0.0838    0.0260   -0.0648    0.0815   -0.1122   -0.1220    0.0178    0.0138
         117    0.0440    0.0602   -0.1543    0.0503   -0.0883   -0.0775    0.0226   -0.0109
         118   -0.1547    0.0359   -0.1785   -0.0849    0.0761    0.0557   -0.0356   -0.2268
         119   -0.1454    0.0322   -0.0562   -0.0458    0.1056    0.1009    0.1069   -0.1887
         120   -0.3015   -0.0606    0.1168   -0.0274    0.1103    0.0016   -0.0282    0.1618
         121    0.4833    0.0199    0.0333    0.0162    0.0504   -0.0383   -0.0848    0.1144
         122    0.2405    0.0602   -0.0515    0.0226    0.0327    0.0537    0.1489   -0.2141
         123   -0.1133   -0.0826    0.2361   -0.0014    0.1298   -0.0297   -0.0754    0.3686
         124    0.0982    0.0040    0.0309   -0.0717    0.1341    0.1490    0.0918   -0.0932
         125   -0.0734   -0.0001    0.0430    0.0368    0.0020   -0.0204   -0.0408    0.0373
         126    0.0282    0.0424   -0.0788    0.0461   -0.0482   -0.0635   -0.0894    0.0649
         127    0.1721   -0.0073    0.0854   -0.1109    0.2169    0.2392    0.1491   -0.1585
         128   -0.0707    0.0091    0.0200    0.1106   -0.1158   -0.1738   -0.1539    0.1315
         129    0.0896    0.0345   -0.0378    0.0255    0.0011   -0.0138   -0.0608    0.0267
         130   -0.1265    0.1956    0.1351    0.1136    0.0423    0.0778    0.1134   -0.0309
         131   -0.0814    0.1045    0.0155    0.0292    0.0455    0.0634    0.0157    0.0822
         132   -0.0188   -0.1357    0.0587   -0.0173   -0.0567   -0.0030    0.0474   -0.0649
         133   -0.0836   -0.0066    0.0862   -0.0142   -0.0182   -0.0215    0.1362    0.0289
         134   -0.0342    0.0717    0.0067   -0.0810    0.0167    0.0172   -0.0263    0.0613
         135   -0.0074    0.0823    0.1093   -0.0073   -0.0189    0.0604   -0.0410   -0.1710
         136   -0.0610    0.0074   -0.0455   -0.0143   -0.0567    0.1371   -0.0347    0.0938
         137   -0.1183   -0.0701    0.0133   -0.0379   -0.1455    0.0269   -0.0821   -0.0176
         138   -0.0024    0.0802   -0.1829   -0.0762    0.0659    0.0457   -0.0089    0.0691
         139   -0.2303   -0.0468   -0.0342   -0.0331   -0.1510    0.0960   -0.0216    0.0019
         140   -0.0505   -0.0423   -0.0046   -0.0326   -0.0786    0.0271   -0.0771    0.0245
         141    0.2571    0.1032   -0.0776   -0.0290   -0.0555    0.2479   -0.1166    0.1606


   Root No.      17        18        19        20        21        22        23        24

                17 A      18 A      19 A      20 A      21 A      22 A      23 A      24 A   

                   0.0       0.0       0.0       0.0       0.0       0.0       0.0       0.0
  
           1    0.0053   -0.0284   -0.0390   -0.0565   -0.0672    0.0734   -0.0196   -0.0460
           2   -0.0229   -0.0371    0.0127   -0.0258   -0.0125    0.0152    0.0318    0.0400
           3    0.0699    0.0144    0.0289    0.0658    0.0590   -0.0886   -0.0773    0.0780
           4    0.0067   -0.0292   -0.0402   -0.0540   -0.0650    0.0697   -0.0192   -0.0455
           5   -0.0174   -0.0237    0.0319   -0.0421   -0.0469   -0.0054    0.0247   -0.0162
           6    0.0711   -0.0141   -0.0017    0.0698    0.0600   -0.1022   -0.0106    0.0449
           7   -0.0017   -0.0431   -0.0601   -0.0423   -0.0312    0.0852   -0.0153    0.0055
           8   -0.0143   -0.0175    0.0381   -0.0469   -0.0614   -0.0094    0.0215   -0.0367
           9    0.0469   -0.0367   -0.0055    0.0183    0.0271   -0.0829    0.0366   -0.0033
          10   -0.0057   -0.0534   -0.0768   -0.0280   -0.0106    0.0950   -0.0097    0.0382
          11   -0.0211   -0.0306    0.0260   -0.0419   -0.0355    0.0037    0.0332   -0.0005
          12    0.0254   -0.0341    0.0403   -0.0374    0.0231   -0.0834    0.0315   -0.0274
          13    0.0097   -0.0221   -0.0297   -0.0640   -0.0891    0.0572   -0.0172   -0.0772
          14   -0.0158   -0.0188    0.0397   -0.0501   -0.0643   -0.0155    0.0250   -0.0368
          15    0.0716   -0.0178   -0.0154    0.0866    0.0737   -0.1011   -0.0003    0.0674
          16   -0.0057   -0.0501   -0.0821   -0.0340   -0.0289    0.1001    0.0017    0.0147
          17   -0.0169   -0.0115    0.0613   -0.0765   -0.0923   -0.0168    0.0245   -0.0890
          18    0.0369   -0.0475   -0.0342    0.0176    0.0119   -0.0571    0.0687   -0.0171
          19   -0.0111   -0.0567   -0.0825   -0.0337   -0.0153    0.0807   -0.0149    0.0284
          20   -0.0616   -0.0730   -0.0605   -0.0032    0.0410    0.0056    0.0397    0.1171
          21    0.0044    0.0350   -0.0301    0.0220   -0.0116    0.0280    0.0188   -0.0173
          22   -0.0020   -0.1029   -0.0801   -0.0289    0.0428    0.0100   -0.0463    0.1018
          23    0.0036   -0.0975   -0.1009   -0.0105    0.0523    0.0392    0.0501    0.1502
          24    0.0534    0.0232   -0.0636    0.0163   -0.0117    0.0641    0.0303   -0.0080
          25    0.0210   -0.0405   -0.0313   -0.0510   -0.0434    0.0859   -0.0232   -0.0145
          26   -0.0703   -0.0927   -0.0999    0.0068    0.0671    0.0004    0.0440    0.1606
          27   -0.0968    0.0769   -0.0315    0.0389   -0.0412    0.0296    0.0297   -0.0760
          28   -0.0650   -0.0394   -0.1602   -0.0168   -0.0306    0.1365    0.0186    0.0082
          29   -0.1485   -0.0625   -0.0476    0.0126    0.0489   -0.0453    0.0285    0.1093
          30    0.0360    0.0339   -0.0608    0.0186   -0.0201    0.0717    0.0350   -0.0177
          31   -0.0013   -0.0448   -0.0644   -0.0402   -0.0326    0.0886   -0.0137    0.0044
          32   -0.0294   -0.0420    0.0066   -0.0246   -0.0060    0.0160    0.0338    0.0497
          33    0.0220   -0.0014    0.0525    0.0163    0.0362   -0.0802   -0.0331    0.0398
          34   -0.0060   -0.0594   -0.0852   -0.0009    0.0103    0.0918   -0.0071    0.0736
          35   -0.0240   -0.0316    0.0295   -0.0524   -0.0379    0.0063    0.0393   -0.0062
          36   -0.0007   -0.0435    0.0661   -0.1190    0.0058   -0.0697    0.0793   -0.0855
          37    0.0087   -0.0224   -0.0285   -0.0525   -0.0775    0.0325   -0.0255   -0.0524
          38   -0.0249   -0.0416    0.0017   -0.0276   -0.0025    0.0498    0.0324    0.0493
          39    0.1001    0.0538    0.0378    0.0829    0.0604   -0.0683   -0.1607    0.1220
          40    0.0139   -0.0216    0.0144   -0.0260   -0.0020   -0.0129   -0.0911    0.0217
          41   -0.0028    0.0355    0.0079    0.0445   -0.0610   -0.0197    0.0207   -0.0301
          42    0.0267   -0.0084   -0.0585    0.0154   -0.0005   -0.0326    0.2040   -0.0438
          43    0.0032   -0.0067    0.0079   -0.0237   -0.0146   -0.0260   -0.0595    0.0230
          44   -0.0173    0.0555   -0.0076    0.0447   -0.0828   -0.0305    0.0891   -0.0437
          45    0.0107    0.0106   -0.1145   -0.0124   -0.0486   -0.0076    0.4378   -0.1374
          46    0.0258   -0.0429    0.0172   -0.0459    0.0150    0.0054   -0.0920    0.0145
          47   -0.0052    0.0359    0.0082    0.0467   -0.0627   -0.0257    0.0042   -0.0220
          48    0.0322   -0.0216   -0.0551    0.0187    0.0087   -0.0352    0.1466   -0.0313
          49    0.0256   -0.0451    0.0158   -0.0543    0.0186    0.0095   -0.0817    0.0140
          50   -0.0142    0.0530   -0.0026    0.0704   -0.0820   -0.0276   -0.0050   -0.0243
          51    0.0190   -0.0108   -0.0866   -0.0028    0.0104   -0.0020    0.2081   -0.0415
          52    0.0057   -0.0125    0.0125   -0.0274   -0.0066   -0.0236   -0.0734    0.0297
          53    0.0153    0.0064    0.0316    0.0421   -0.0391    0.0071   -0.0848   -0.0215
          54    0.0262   -0.0205   -0.0028    0.0200    0.0339   -0.0400    0.0075    0.0481
          55    0.0191   -0.0293    0.0258   -0.0240    0.0076   -0.0110   -0.1413    0.0362
          56    0.0336   -0.0158    0.0499    0.0489   -0.0192    0.0232   -0.1791   -0.0109
          57    0.0663   -0.0338    0.0457    0.0910    0.1067   -0.0889   -0.1894    0.1307
          58   -0.0194    0.0256   -0.0053   -0.0280   -0.0261   -0.0657    0.0502    0.0305
          59    0.0138   -0.0010    0.0359    0.0303   -0.0441    0.0276   -0.1151   -0.0232
          60   -0.0161   -0.0104   -0.0055   -0.0641   -0.0286    0.0035    0.0003    0.0598
          61   -0.0032    0.0556   -0.0591   -0.0768   -0.1182   -0.2094    0.0528    0.1001
          62    0.0401   -0.0237    0.0601    0.1152    0.0442    0.0570   -0.1174   -0.0635
          63   -0.0324   -0.0068   -0.0036   -0.0947   -0.0502    0.0220   -0.0013    0.0658
          64   -0.0357    0.0373    0.0030   -0.0124   -0.0088   -0.0525    0.1071    0.0157
          65   -0.0076    0.0310    0.0126   -0.0087   -0.1004   -0.0266   -0.0587    0.0058
          66   -0.0120    0.0108   -0.0563   -0.1545   -0.1466   -0.1033   -0.0376    0.1370
          67   -0.0362    0.0185    0.0253    0.0036    0.0276    0.0071    0.0822   -0.0077
          68    0.0077   -0.0201    0.0445   -0.0152   -0.0694    0.0790   -0.2002   -0.0175
          69   -0.0389   -0.0230    0.0344   -0.0336    0.0335    0.1056    0.0260    0.0132
          70    0.0284   -0.0531    0.0175   -0.0727    0.0288    0.0103   -0.0515    0.0123
          71   -0.0011    0.0192    0.0184    0.0208   -0.0507   -0.0255    0.0091   -0.0189
          72    0.0372   -0.0482   -0.0170    0.0102    0.0091   -0.0556    0.0428   -0.0151
          73    0.0327   -0.0535    0.0324   -0.0708    0.0338   -0.0075   -0.0677    0.0159
          74    0.0103    0.0218    0.0314    0.0154   -0.0356   -0.0481    0.0599   -0.0268
          75    0.0468   -0.0502    0.0151    0.0094    0.0227   -0.0939    0.0104   -0.0060
          76    0.0350   -0.0574    0.0288   -0.0903    0.0344   -0.0030    0.0201   -0.0080
          77   -0.0068    0.0183    0.0091    0.0215   -0.0560   -0.0129   -0.0184   -0.0109
          78    0.0119   -0.0761   -0.0454   -0.0346   -0.0173    0.0261   -0.0206   -0.0183
          79    0.0653   -0.0866    0.0288   -0.1445    0.0871   -0.0282    0.0849   -0.0166
          80    0.0011    0.0521    0.0320    0.0842   -0.0638   -0.0649   -0.0124   -0.0040
          81   -0.0065   -0.0748   -0.0554   -0.0325   -0.0406    0.0597   -0.0568   -0.0165
          82    0.0299   -0.0486    0.0303   -0.0812    0.0195   -0.0009    0.0416   -0.0152
          83   -0.0073    0.0072    0.0003   -0.0078   -0.0515    0.0013    0.0117   -0.0212
          84    0.0240   -0.1174   -0.0694   -0.1149    0.0274    0.0515   -0.0099   -0.0233
          85   -0.0026    0.0989    0.0921   -0.0057    0.0323   -0.0553    0.0384   -0.0076
          86   -0.0110    0.0763    0.0569   -0.0937    0.0877   -0.0178   -0.0452   -0.0014
          87   -0.0086    0.0291    0.0181   -0.0116    0.0157   -0.0048   -0.0362   -0.0269
          88    0.0306    0.1363    0.0900    0.1112   -0.0670   -0.0429    0.0533    0.0173
          89    0.0305    0.1081    0.0695    0.0087    0.0025   -0.0124   -0.0315    0.0113
          90    0.0509    0.0273    0.0669    0.0126    0.0005   -0.0149   -0.0301   -0.0490
          91    0.0851    0.4760   -0.1242    0.1795   -0.0345    0.0273    0.0226    0.0345
          92    0.0108    0.2867   -0.0968   -0.0224    0.0722    0.0400   -0.0605    0.0335
          93    0.0693   -0.1162    0.2062    0.0395   -0.0574   -0.0593   -0.0062   -0.0687
          94    0.0235   -0.0473    0.2457    0.1861   -0.1887   -0.0892    0.0947    0.0328
          95    0.0421   -0.1155    0.2705    0.0144   -0.0574   -0.0786   -0.0012   -0.0190
          96    0.0562   -0.1710    0.2412    0.0372   -0.0730   -0.0713    0.0025   -0.0657
          97    0.0132    0.0485    0.1454    0.0790   -0.0604   -0.0641    0.0593    0.0098
          98    0.0696    0.2092    0.0347    0.1215   -0.0742    0.0070   -0.0247    0.0324
          99    0.0771    0.3858   -0.2061   -0.0234    0.1279    0.0698   -0.0810   -0.0446
         100    0.0063   -0.0367    0.0265   -0.0512   -0.0138    0.0220   -0.0244   -0.0070
         101   -0.0313   -0.0239   -0.0338   -0.0482   -0.0433    0.0656   -0.1050    0.0148
         102   -0.0232   -0.0520   -0.0516    0.0142   -0.0776    0.0598   -0.0773   -0.0143
         103   -0.0430    0.1796    0.1150   -0.0681    0.1512   -0.1053    0.0601   -0.0097
         104   -0.0296    0.1345    0.1082   -0.2079    0.2545   -0.0823   -0.0168   -0.0295
         105   -0.0507    0.1030    0.0231   -0.0341    0.0833   -0.0377   -0.0183   -0.0171
         106   -0.0524   -0.0719   -0.0099    0.1827    0.1428   -0.2623    0.0118    0.3917
         107   -0.0270   -0.0541    0.0501    0.0026    0.0579    0.1681    0.0857    0.1464
         108    0.0308    0.0874   -0.0152   -0.2530   -0.2164    0.0994   -0.0479   -0.1818
         109   -0.0440    0.1956    0.2296    0.0263   -0.1247    0.1279    0.0689    0.0814
         110    0.6773   -0.0294   -0.1044   -0.0326    0.0760   -0.0313   -0.0405   -0.0802
         111    0.1080    0.0944    0.1284   -0.0194   -0.0477    0.1489    0.0621    0.1131
         112    0.0474   -0.0302   -0.0115    0.1621   -0.1013   -0.0709    0.0329   -0.1063
         113    0.0133   -0.0269   -0.1117   -0.0108    0.0301    0.0445    0.0220    0.1164
         114   -0.0195   -0.0029   -0.0664   -0.0471    0.0761    0.0232    0.1465    0.0933
         115   -0.0486    0.1477    0.0089   -0.0172    0.0867   -0.0618    0.0415    0.0292
         116   -0.0340    0.0731    0.0476   -0.1250    0.1745   -0.1075    0.0774   -0.0757
         117   -0.0507    0.0501   -0.0593    0.0335    0.0056    0.0448   -0.1640    0.0257
         118    0.1068   -0.0716   -0.0563    0.2787   -0.1764   -0.0842    0.1100   -0.1307
         119    0.0318   -0.0392   -0.0996    0.0255   -0.0032    0.0344    0.0063    0.0924
         120   -0.0329    0.0036    0.0648   -0.0660    0.0335    0.0055   -0.0799    0.0340
[...]
 TRANSITION DIPOLE   0.5052         H 39 -- O 42         +32.9% ( 52.9%)     93.8%
 TRAVEL (Ang.)       0.2238         C 30 -- H 31          +1.2% ( 10.1%)     97.6%
 REDUCED MASS        0.5076         C 30 -- H 32          +1.1% (  9.6%)     98.4%
 EFFECTIVE MASS      1.0776
 FORCE CONSTANT      2.1053

 VIBRATION        122  122A           ATOM PAIR      ENERGY CONTRIBUTION    RADIAL
 FREQUENCY          2656.91         O 46 -- H 47         +45.7% ( 64.9%)     95.4%
 TRANSITION DIPOLE   0.7866         C 20 -- H 23         +21.8% ( 44.8%)     99.3%
 TRAVEL (Ang.)       0.2866         H 36 -- O 46         +17.4% ( 40.0%)     94.6%
 REDUCED MASS        0.3091         C 20 -- H 22         +11.7% ( 32.8%)     95.3%
 EFFECTIVE MASS      1.1977
 FORCE CONSTANT      1.2855

 VIBRATION        123  123A           ATOM PAIR      ENERGY CONTRIBUTION    RADIAL
 FREQUENCY          2659.22         C 20 -- H 22         +43.5% ( 66.4%)     98.9%
 TRANSITION DIPOLE   0.3812         C 20 -- H 23         +28.2% ( 53.5%)     97.0%
 TRAVEL (Ang.)       0.2973         O 46 -- H 47         +16.6% ( 41.0%)     95.4%
 REDUCED MASS        0.2869         H 36 -- O 46          +6.4% ( 25.5%)     94.6%
 EFFECTIVE MASS      1.3407
 FORCE CONSTANT      1.1955

 VIBRATION        124  124A           ATOM PAIR      ENERGY CONTRIBUTION    RADIAL
 FREQUENCY          2668.20         H 37 -- O 44         +66.3% ( 74.8%)     94.8%
 TRANSITION DIPOLE   0.8083         O 44 -- H 45         +31.6% ( 51.7%)     93.1%
 TRAVEL (Ang.)       0.2208         C  7 -- H  8          +0.7% (  7.6%)     99.2%
 REDUCED MASS        0.5185         C  7 -- H 10          +0.4% (  6.0%)     94.3%
 EFFECTIVE MASS      1.0778
 FORCE CONSTANT      2.1750

 VIBRATION        125  125A           ATOM PAIR      ENERGY CONTRIBUTION    RADIAL
 FREQUENCY          2670.58         O 40 -- H 41         +36.2% ( 57.4%)     94.7%
 TRANSITION DIPOLE   0.7421         C 16 -- H 17         +33.7% ( 55.3%)    100.0%
 TRAVEL (Ang.)       0.2912         H 38 -- O 40         +23.0% ( 45.7%)     93.0%
 REDUCED MASS        0.2977         C 24 -- H 25          +4.6% ( 20.5%)    100.0%
 EFFECTIVE MASS      1.1732
 FORCE CONSTANT      1.2510

 VIBRATION        126  126A           ATOM PAIR      ENERGY CONTRIBUTION    RADIAL
 FREQUENCY          2678.78         C 16 -- H 17         +48.6% ( 68.3%)    100.0%
 TRANSITION DIPOLE   0.7393         O 40 -- H 41         +17.9% ( 41.5%)     94.6%
 TRAVEL (Ang.)       0.2948         C 24 -- H 25         +17.1% ( 40.5%)    100.0%
 REDUCED MASS        0.2897         H 38 -- O 40         +12.5% ( 34.6%)     94.4%
 EFFECTIVE MASS      1.2569
 FORCE CONSTANT      1.2248

 VIBRATION        127  127A           ATOM PAIR      ENERGY CONTRIBUTION    RADIAL
 FREQUENCY          2699.22         C 24 -- H 25         +74.1% ( 86.8%)    100.0%
 TRANSITION DIPOLE   0.8436         C 16 -- H 17         +18.9% ( 43.8%)     99.9%
 TRAVEL (Ang.)       0.2093         C  3 -- H  6          +1.8% ( 13.7%)     99.0%
 REDUCED MASS        0.5702         C 18 -- H 19          +1.5% ( 12.3%)     99.7%
 EFFECTIVE MASS      1.3859
 FORCE CONSTANT      2.4475

 VIBRATION        128  128A           ATOM PAIR      ENERGY CONTRIBUTION    RADIAL
 FREQUENCY          2708.64         C 18 -- H 19         +48.7% ( 70.8%)    100.0%
 TRANSITION DIPOLE   0.8582         C  3 -- H  6         +32.8% ( 58.1%)    100.0%
 TRAVEL (Ang.)       0.2661         C 14 -- H 15         +10.6% ( 33.0%)    100.0%
 REDUCED MASS        0.3517         C 24 -- H 25          +3.0% ( 17.6%)     99.9%
 EFFECTIVE MASS      1.4027
 FORCE CONSTANT      1.5201

 VIBRATION        129  129A           ATOM PAIR      ENERGY CONTRIBUTION    RADIAL
 FREQUENCY          2710.46         C  3 -- H  6         +61.8% ( 79.8%)     99.9%
 TRANSITION DIPOLE   0.6154         C 18 -- H 19         +29.3% ( 54.9%)    100.0%
 TRAVEL (Ang.)       0.2316         C 14 -- H 15          +3.3% ( 18.4%)     99.9%
 REDUCED MASS        0.4639         C 16 -- H 17          +1.0% ( 10.3%)     99.9%
 EFFECTIVE MASS      1.4107
 FORCE CONSTANT      2.0081

 VIBRATION        130  130A           ATOM PAIR      ENERGY CONTRIBUTION    RADIAL
 FREQUENCY          2734.97         C 26 -- H 27         +54.0% ( 71.5%)     98.4%
 TRANSITION DIPOLE   0.8957         C 26 -- H 28         +37.8% ( 59.9%)     97.1%
 TRAVEL (Ang.)       0.2390         C 14 -- H 15          +5.0% ( 21.7%)    100.0%
 REDUCED MASS        0.4316         C 18 -- H 19          +1.8% ( 12.9%)     99.9%
 EFFECTIVE MASS      1.2017
 FORCE CONSTANT      1.9021

 VIBRATION        131  131A           ATOM PAIR      ENERGY CONTRIBUTION    RADIAL
 FREQUENCY          2737.76         C 14 -- H 15         +77.7% ( 88.4%)    100.0%
 TRANSITION DIPOLE   1.2347         C 18 -- H 19         +11.7% ( 34.3%)     99.8%
 TRAVEL (Ang.)       0.2042         C 26 -- H 27          +3.6% ( 18.9%)     98.4%
 REDUCED MASS        0.5906         C 26 -- H 28          +2.4% ( 15.5%)     96.9%
 EFFECTIVE MASS      1.3814
 FORCE CONSTANT      2.6082

 VIBRATION        132  132A           ATOM PAIR      ENERGY CONTRIBUTION    RADIAL
 FREQUENCY          2773.18         C  2 -- H  5         +96.8% ( 99.4%)    100.0%
 TRANSITION DIPOLE   1.1518         C  2 -- C  3          +1.2% ( 10.9%)     37.2%
 TRAVEL (Ang.)       0.1633         C  1 -- C  2          +1.1% ( 10.8%)     24.9%
 REDUCED MASS        0.9115         C  3 -- H  6          +0.3% (  5.6%)     92.8%
 EFFECTIVE MASS      1.4164
 FORCE CONSTANT      4.1301

 VIBRATION        133  133A           ATOM PAIR      ENERGY CONTRIBUTION    RADIAL
 FREQUENCY          2812.29         C  7 -- H 10         +35.4% ( 55.9%)     97.8%
 TRANSITION DIPOLE   0.5759         C  7 -- H  9         +33.0% ( 53.9%)     97.2%
 TRAVEL (Ang.)       0.2711         C  7 -- H  8         +31.0% ( 52.2%)     97.3%
 REDUCED MASS        0.3263         C  7 -- N 11          +0.2% (  3.7%)     99.3%
 EFFECTIVE MASS      1.0936
 FORCE CONSTANT      1.5205

 VIBRATION        134  134A           ATOM PAIR      ENERGY CONTRIBUTION    RADIAL
 FREQUENCY          2819.38         C 30 -- H 31         +43.8% ( 62.0%)     98.3%
 TRANSITION DIPOLE   0.7956         C 30 -- H 32         +30.5% ( 51.7%)     96.9%
 TRAVEL (Ang.)       0.2658         C 30 -- H 33         +25.0% ( 46.8%)     95.8%
 REDUCED MASS        0.3384         C 29 -- C 30          +0.2% (  4.5%)     87.6%
 EFFECTIVE MASS      1.1229
 FORCE CONSTANT      1.5850

 VIBRATION        135  135A           ATOM PAIR      ENERGY CONTRIBUTION    RADIAL
 FREQUENCY          2823.76         C 20 -- H 23         +42.9% ( 61.6%)     98.2%
 TRANSITION DIPOLE   1.0384         C 20 -- H 22         +40.4% ( 59.8%)     98.1%
 TRAVEL (Ang.)       0.2592         C 20 -- H 21         +15.1% ( 36.6%)     92.9%
 REDUCED MASS        0.3554         C 14 -- H 15          +0.3% (  4.9%)     93.0%
 EFFECTIVE MASS      1.1253
 FORCE CONSTANT      1.6695

      SYMMETRY NUMBER FOR POINT-GROUP C1  =  1


          SYSTEM IS A GROUND STATE



 DA_TS_4H2O_PM6_D3H4_THERMO


          MOLECULE IS NOT LINEAR

          THERE ARE  135 GENUINE VIBRATIONS IN THIS SYSTEM
          THIS THERMODYNAMICS CALCULATION IS LIMITED TO
          MOLECULES WHICH HAVE NO INTERNAL ROTATIONS




                    CALCULATED THERMODYNAMIC PROPERTIES
                                          *
   TEMP. (K)   PARTITION FUNCTION   H.O.F.    ENTHALPY  HEAT CAPACITY ENTROPY
                                   KCAL/MOL   CAL/MOLE    CAL/K/MOL  CAL/K/MOL


 298.00  VIB.     0.1569D+19                 19825.0358   108.3278   149.7853
         ROT.     0.1065D+08                   888.2813     2.9808    35.1364
         INT.     0.1672D+26                 20713.3171   111.3086   184.9217
         TRA.     0.5621D+28                  1480.4688     4.9680    43.2139
         TOT.                     -338.478   22193.7859   116.2767   228.1356

 200.00  VIB.     0.1176D+14                 10326.4083    85.2710   111.4387
         ROT.     0.5857D+07                   596.1620     2.9808    33.9477
         INT.     0.6888D+20                 10922.5703    88.2518   145.3864
         TRA.     0.3091D+28                   993.6033     4.9680    41.2328
         TOT.                     -348.756   11916.1735    93.2199   186.6191

 210.00  VIB.     0.4264D+14                 11191.3285    87.7075   115.6582
         ROT.     0.6302D+07                   625.9700     2.9808    34.0931
         INT.     0.2687D+21                 11817.2986    90.6883   149.7513
         TRA.     0.3325D+28                  1043.2834     4.9680    41.4751
         TOT.                     -347.811   12860.5820    95.6563   191.2264

 220.00  VIB.     0.1513D+15                 12080.4613    90.1148   119.7940
         ROT.     0.6757D+07                   655.7781     2.9808    34.2318
         INT.     0.1022D+22                 12736.2394    93.0956   154.0257
         TRA.     0.3566D+28                  1092.9636     4.9680    41.7063
         TOT.                     -346.843   13829.2030    98.0636   195.7320

 230.00  VIB.     0.5259D+15                 12993.5478    92.4992   123.8524
         ROT.     0.7223D+07                   685.5862     2.9808    34.3643
         INT.     0.3799D+22                 13679.1341    95.4800   158.2167
         TRA.     0.3811D+28                  1142.6437     4.9680    41.9271
         TOT.                     -345.850   14821.7778   100.4480   200.1438

 240.00  VIB.     0.1793D+16                 13930.3847    94.8655   127.8392
         ROT.     0.7699D+07                   715.3943     2.9808    34.4911
         INT.     0.1380D+23                 14645.7791    97.8463   162.3303
         TRA.     0.4063D+28                  1192.3239     4.9680    42.1385
         TOT.                     -344.834   15838.1030   102.8143   204.4689

 250.00  VIB.     0.6000D+16                 14890.8077    97.2168   131.7595
         ROT.     0.8185D+07                   745.2024     2.9808    34.6128
         INT.     0.4911D+23                 15636.0101   100.1976   166.3723
         TRA.     0.4319D+28                  1242.0041     4.9680    42.3413
         TOT.                     -343.794   16878.0142   105.1656   208.7137

 260.00  VIB.     0.1973D+17                 15874.6777    99.5551   135.6180
         ROT.     0.8681D+07                   775.0105     2.9808    34.7297
         INT.     0.1713D+24                 16649.6882   102.5359   170.3477
         TRA.     0.4581D+28                  1291.6842     4.9680    42.5362
         TOT.                     -342.731   17941.3724   107.5039   212.8839

 270.00  VIB.     0.6378D+17                 16881.8694   101.8812   139.4189
         ROT.     0.9187D+07                   804.8186     2.9808    34.8422
         INT.     0.5860D+24                 17686.6880   104.8620   174.2611
         TRA.     0.4848D+28                  1341.3644     4.9680    42.7237
         TOT.                     -341.644   19028.0524   109.8301   216.9848

 280.00  VIB.     0.2029D+18                 17912.2620   104.1952   143.1659
         ROT.     0.9702D+07                   834.6267     2.9808    34.9506
         INT.     0.1969D+25                 18746.8887   107.1761   178.1166
         TRA.     0.5120D+28                  1391.0445     4.9680    42.9044
         TOT.                     -340.534   20137.9333   112.1441   221.0210

 290.00  VIB.     0.6360D+18                 18965.7320   106.4966   146.8625
         ROT.     0.1023D+08                   864.4348     2.9808    35.0552
         INT.     0.6504D+25                 19830.1669   109.4774   181.9177
         TRA.     0.5396D+28                  1440.7247     4.9680    43.0787
         TOT.                     -339.401   21270.8916   114.4454   224.9964

 300.00  VIB.     0.1964D+19                 20042.1479   108.7842   150.5115
         ROT.     0.1076D+08                   894.2429     2.9808    35.1563
         INT.     0.2113D+26                 20936.3908   111.7650   185.6678
         TRA.     0.5678D+28                  1490.4049     4.9680    43.2471
         TOT.                     -338.245   22426.7957   116.7330   228.9149

 310.00  VIB.     0.5983D+19                 21141.3661   111.0568   154.1156
         ROT.     0.1130D+08                   924.0510     2.9808    35.2540
         INT.     0.6762D+26                 22065.4172   114.0376   189.3696
         TRA.     0.5964D+28                  1540.0850     4.9680    43.4100
         TOT.                     -337.066   23605.5022   119.0056   232.7796

 320.00  VIB.     0.1798D+20                 22263.2290   113.3129   157.6772
         ROT.     0.1185D+08                   953.8591     2.9808    35.3487
         INT.     0.2131D+27                 23217.0881   116.2937   193.0258
         TRA.     0.6255D+28                  1589.7652     4.9680    43.5678
         TOT.                     -335.865   24806.8533   121.2617   236.5936

 330.00  VIB.     0.5337D+20                 23407.5630   115.5508   161.1983
         ROT.     0.1241D+08                   983.6672     2.9808    35.4404
         INT.     0.6624D+27                 24391.2303   118.5316   196.6387
         TRA.     0.6550D+28                  1639.4454     4.9680    43.7206
         TOT.                     -334.641   26030.6756   123.4996   240.3593

 340.00  VIB.     0.1565D+21                 24574.1789   117.7690   164.6808
         ROT.     0.1298D+08                  1013.4753     2.9808    35.5294
         INT.     0.2031D+28                 25587.6543   120.7498   200.2102
         TRA.     0.6850D+28                  1689.1255     4.9680    43.8689
         TOT.                     -333.395   27276.7798   125.7178   244.0791

 350.00  VIB.     0.4534D+21                 25762.8715   119.9659   168.1264
         ROT.     0.1356D+08                  1043.2834     2.9808    35.6158
         INT.     0.6148D+28                 26806.1549   122.9467   203.7422
         TRA.     0.7155D+28                  1738.8057     4.9680    44.0129
         TOT.                     -332.127   28544.9606   127.9147   247.7551

 360.00  VIB.     0.1299D+22                 26973.4206   122.1400   171.5365
         ROT.     0.1414D+08                  1073.0915     2.9808    35.6998
         INT.     0.1838D+29                 28046.5121   125.1208   207.2362
         TRA.     0.7464D+28                  1788.4859     4.9680    44.1529
         TOT.                     -330.837   29834.9980   130.0889   251.3891

 370.00  VIB.     0.3684D+22                 28205.5921   124.2901   174.9124
         ROT.     0.1474D+08                  1102.8996     2.9808    35.7814
         INT.     0.5429D+29                 29308.4917   127.2710   210.6938
         TRA.     0.7777D+28                  1838.1660     4.9680    44.2890
         TOT.                     -329.525   31146.6577   132.2390   254.9828

 380.00  VIB.     0.1034D+23                 29459.1393   126.4150   178.2552
         ROT.     0.1534D+08                  1132.7077     2.9808    35.8609
         INT.     0.1585D+30                 30591.8470   129.3958   214.1162
         TRA.     0.8094D+28                  1887.8462     4.9680    44.4215
         TOT.                     -328.192   32479.6932   134.3638   258.5377

 390.00  VIB.     0.2871D+23                 30733.8047   128.5136   181.5661
         ROT.     0.1595D+08                  1162.5158     2.9808    35.9384
         INT.     0.4579D+30                 31896.3205   131.4944   217.5045
         TRA.     0.8416D+28                  1937.5263     4.9680    44.5506
         TOT.                     -326.838   33833.8468   136.4624   262.0550

 400.00  VIB.     0.7899D+23                 32029.3210   130.5851   184.8460
         ROT.     0.1657D+08                  1192.3239     2.9808    36.0138
         INT.     0.1308D+31                 33221.6449   133.5659   220.8598
         TRA.     0.8741D+28                  1987.2065     4.9680    44.6763
         TOT.                     -325.463   35208.8514   138.5339   265.5361

   *: NOTE: HEATS OF FORMATION ARE RELATIVE TO THE
            ELEMENTS IN THEIR STANDARD STATE AT 298K
              (=  Standard Enthalpy of Formation).

            Hvib:  Zero-point energy is not included.
                   frequencies of less than zero cm-1 are not included.
            Hrot = (3/2)RT
            Htra = (3/2)RT + pV = (5/2)RT

            Heat capacity is Cp, not Cv

          For more information, see: HTTP://OpenMOPAC.net/Manual/thermochemistry.html


           FORCE CONSTANT IN CARTESIAN COORDINATES (Millidynes/A)

    ATOM   CHEMICAL       X               Y               Z
   NUMBER   SYMBOL  FORCE CONSTANT  FORCE CONSTANT  FORCE CONSTANT

      1       C       11.731770       10.204496        2.483536
      2       C        8.197811       10.250098        1.913151
      3       C        7.641525        8.297472        1.426799
      4       C        7.185019       15.192560        2.627323
      5       H        1.757391        3.261727        0.369059
      6       H        3.186277        0.958307        1.253511
      7       C        6.856442        6.499856        5.811446
      8       H        0.828785        1.918518        2.669660
      9       H        1.995810        2.796663        0.637023
     10       H        0.978541        1.369087        3.091702
     11       N       12.131528        8.560090        0.936139
     12       O        1.339191       12.216839        0.599123
     13       O        6.528677        7.168653        0.422231
     14       C       10.658026        8.962592        2.616163
     15       H        2.847883        2.173231        0.391121
     16       C        8.525434        9.710529        3.126337
     17       H        3.848059        0.976309        0.466652
     18       C       10.941374        8.553648        2.668247
     19       H        2.886055        2.104848        0.406517
     20       C        6.360506        7.431708        5.702749
     21       H        0.752745        1.228534        3.023543
     22       H        2.732607        1.644044        1.057184
     23       H        2.770315        0.764272        1.903589
     24       C        7.491551        9.354970        1.357514
     25       H        3.493829        0.823072        1.144287
     26       C        6.342339        7.179647        6.047287
     27       H        1.309193        1.036995        3.152663
     28       H        2.422942        2.046017        1.088295
     29       C       10.033854        7.310072        7.843784
     30       C        6.564003        6.826024        6.238201
     31       H        0.582884        2.126405        2.625980
     32       H        0.904437        1.525257        2.893740
     33       H        3.543726        0.996352        0.686186
     34       O        4.279119        2.886492        6.145136
     35       O        7.349467        1.925268        5.313306
     36       H        1.163434        2.757767        0.184693
     37       H        0.643517        0.650332        3.041664
     38       H        0.710437        3.024729        0.675756
     39       H        0.578624        2.006016        1.699810
     40       O        1.124872        3.410648        2.566817
     41       H        0.877250        1.339663        2.087983
     42       O        1.762257        2.194295        3.013651
     43       H        1.252691        0.597058        2.413510
     44       O        1.955499        1.728752        3.376566
     45       H        1.230663        1.527718        1.620465
     46       O        2.377119        4.432654        0.287209
     47       H        0.982579        3.277599        0.070671

 **********************
 *                    *
 * JOB ENDED NORMALLY *
 *                    *
 **********************



 TOTAL JOB TIME:            11.56 SECONDS

 == MOPAC DONE ==
