 Entering Gaussian System, Link 0=g09
 Input=freq_m062x_Diels_Alder_4H2O_TS_PM6_freq_1_gd3.com
 Output=freq_m062x_Diels_Alder_4H2O_TS_PM6_freq_1_gd3.log
 Initial command:
 /apps/applications/gaussian/G09.D01/2/default/g09/l1.exe "/local/725834.1.40core-192G.q/Gau-412452.inp" -scrdir="/local/725834.1.40core-192G.q/"
 Entering Link 1 = /apps/applications/gaussian/G09.D01/2/default/g09/l1.exe PID=    412453.
  
 Copyright (c) 1988,1990,1992,1993,1995,1998,2003,2009,2013,
            Gaussian, Inc.  All Rights Reserved.
  
 This is part of the Gaussian(R) 09 program.  It is based on
 the Gaussian(R) 03 system (copyright 2003, Gaussian, Inc.),
 the Gaussian(R) 98 system (copyright 1998, Gaussian, Inc.),
 the Gaussian(R) 94 system (copyright 1995, Gaussian, Inc.),
 the Gaussian 92(TM) system (copyright 1992, Gaussian, Inc.),
 the Gaussian 90(TM) system (copyright 1990, Gaussian, Inc.),
 the Gaussian 88(TM) system (copyright 1988, Gaussian, Inc.),
 the Gaussian 86(TM) system (copyright 1986, Carnegie Mellon
 University), and the Gaussian 82(TM) system (copyright 1983,
 Carnegie Mellon University). Gaussian is a federally registered
 trademark of Gaussian, Inc.
  
 This software contains proprietary and confidential information,
 including trade secrets, belonging to Gaussian, Inc.
  
 This software is provided under written license and may be
 used, copied, transmitted, or stored only in accord with that
 written license.
  
 The following legend is applicable only to US Government
 contracts under FAR:
  
                    RESTRICTED RIGHTS LEGEND
  
 Use, reproduction and disclosure by the US Government is
 subject to restrictions as set forth in subparagraphs (a)
 and (c) of the Commercial Computer Software - Restricted
 Rights clause in FAR 52.227-19.
  
 Gaussian, Inc.
 340 Quinnipiac St., Bldg. 40, Wallingford CT 06492
  
  
 ---------------------------------------------------------------
 Warning -- This program may not be used in any manner that
 competes with the business of Gaussian, Inc. or will provide
 assistance to any competitor of Gaussian, Inc.  The licensee
 of this program is prohibited from giving any competitor of
 Gaussian, Inc. access to this program.  By using this program,
 the user acknowledges that Gaussian, Inc. is engaged in the
 business of creating and licensing software in the field of
 computational chemistry and represents and warrants to the
 licensee that it is not a competitor of Gaussian, Inc. and that
 it will not use this program in any manner prohibited above.
 ---------------------------------------------------------------
  

 Cite this work as:
 Gaussian 09, Revision D.01,
 M. J. Frisch, G. W. Trucks, H. B. Schlegel, G. E. Scuseria, 
 M. A. Robb, J. R. Cheeseman, G. Scalmani, V. Barone, B. Mennucci, 
 G. A. Petersson, H. Nakatsuji, M. Caricato, X. Li, H. P. Hratchian, 
 A. F. Izmaylov, J. Bloino, G. Zheng, J. L. Sonnenberg, M. Hada, 
 M. Ehara, K. Toyota, R. Fukuda, J. Hasegawa, M. Ishida, T. Nakajima, 
 Y. Honda, O. Kitao, H. Nakai, T. Vreven, J. A. Montgomery, Jr., 
 J. E. Peralta, F. Ogliaro, M. Bearpark, J. J. Heyd, E. Brothers, 
 K. N. Kudin, V. N. Staroverov, T. Keith, R. Kobayashi, J. Normand, 
 K. Raghavachari, A. Rendell, J. C. Burant, S. S. Iyengar, J. Tomasi, 
 M. Cossi, N. Rega, J. M. Millam, M. Klene, J. E. Knox, J. B. Cross, 
 V. Bakken, C. Adamo, J. Jaramillo, R. Gomperts, R. E. Stratmann, 
 O. Yazyev, A. J. Austin, R. Cammi, C. Pomelli, J. W. Ochterski, 
 R. L. Martin, K. Morokuma, V. G. Zakrzewski, G. A. Voth, 
 P. Salvador, J. J. Dannenberg, S. Dapprich, A. D. Daniels, 
 O. Farkas, J. B. Foresman, J. V. Ortiz, J. Cioslowski, 
 and D. J. Fox, Gaussian, Inc., Wallingford CT, 2013.
 
 ******************************************
 Gaussian 09:  ES64L-G09RevD.01 24-Apr-2013
                 6-Sep-2020 
 ******************************************
 %nprocshared=4
 Will use up to    4 processors via shared memory.
 %chk=freq_m062x_Diels_Alder_4H2O_TS_PM6_freq_1_gd3.chk
 ----------------------------------------------------------------------
 # freq scrf=(cpcm,solvent=toluene) geom=connectivity def2svp empirical
 dispersion=gd3 m062x
 ----------------------------------------------------------------------
 1/10=4,30=1,38=1,57=2/1,3;
 2/12=2,17=6,18=5,40=1/2;
 3/5=43,7=101,11=2,16=1,25=1,30=1,70=2101,71=2,72=13,74=-55,124=31,140=1/1,2,3;
 4//1;
 5/5=2,38=5,53=13,98=1/2;
 8/6=4,10=90,11=11/1;
 11/6=1,8=1,9=11,15=111,16=1/1,2,10;
 10/6=1/2;
 6/7=2,8=2,9=2,10=2,18=1,28=1/1;
 7/8=1,10=1,25=1/1,2,3,16;
 1/10=4,30=1/3;
 99//99;
 -------------------
 Title Card Required
 -------------------
 Symbolic Z-matrix:
 Charge =  0 Multiplicity = 1
 C                     2.36372   1.08208   0.64537 
 C                     1.94057  -0.34702   0.70004 
 C                     0.55847  -0.37378   0.55746 
 C                     0.09058   1.03389   0.49221 
 H                     2.56743  -1.07146   1.21534 
 H                    -0.11056  -1.17566   0.8719 
 C                     1.18148   3.27853   0.27427 
 H                     0.78499   3.74259   1.18848 
 H                     2.20851   3.62345   0.11025 
 H                     0.54843   3.55717  -0.57834 
 N                     1.21686   1.83767   0.401 
 O                    -1.05043   1.45479   0.5014 
 O                     3.46976   1.56073   0.77721 
 C                     2.08303  -2.05357  -1.56608 
 H                     2.47602  -3.07146  -1.49209 
 C                     0.70314  -1.88644  -1.76533 
 H                     0.07045  -2.7764   -1.83331 
 C                     2.92483  -1.00048  -1.24987 
 H                     2.64564   0.00134  -1.58981 
 C                     4.37749  -1.19687  -0.94065 
 H                     4.66172  -0.64733  -0.034 
 H                     4.60372  -2.25952  -0.77894 
 H                     4.99964  -0.8249   -1.76871 
 C                     0.09591  -0.65086  -1.64099 
 H                     0.68719   0.24744  -1.83857 
 C                    -1.3925   -0.46127  -1.77901 
 H                    -1.74759  -0.89744  -2.72705 
 H                    -1.63547   0.60786  -1.77348 
 C                    -3.14527  -0.68764  -0.12696 
 C                    -3.9132    0.42197  -0.78275 
 H                    -4.17999   0.1284   -1.80825 
 H                    -4.81548   0.60144  -0.18952 
 H                    -3.30244   1.3316   -0.8475 
 O                    -2.03457  -1.13984  -0.70124 
 O                    -3.50348  -1.24011   0.89273 
 H                     4.46587   0.3713    1.88616 
 H                    -2.36005   3.69209  -1.63608 
 H                    -2.03784  -2.46499   1.33229 
 H                    -5.16289  -0.58547   1.60919 
 O                    -1.23253  -2.92574   1.62138 
 H                    -1.16639  -2.6915    2.55424 
 O                    -5.91991  -0.00476   1.79187 
 H                    -5.52722   0.69798   2.32227 
 O                    -1.70997   2.98139  -1.66861 
 H                    -1.58557   2.71163  -0.74354 
 O                     4.67591  -0.45007   2.35978 
 H                     5.62614  -0.55404   2.23969 
 

 GradGradGradGradGradGradGradGradGradGradGradGradGradGradGradGradGradGrad
 Berny optimization.
 Initialization pass.
 Trust Radius=3.00D-01 FncErr=1.00D-07 GrdErr=1.00D-07
 Number of steps in this run=      2 maximum allowed number of steps=      2.
 GradGradGradGradGradGradGradGradGradGradGradGradGradGradGradGradGradGrad

                          Input orientation:                          
 ---------------------------------------------------------------------
 Center     Atomic      Atomic             Coordinates (Angstroms)
 Number     Number       Type             X           Y           Z
 ---------------------------------------------------------------------
      1          6           0        2.363715    1.082081    0.645368
      2          6           0        1.940574   -0.347021    0.700044
      3          6           0        0.558473   -0.373783    0.557457
      4          6           0        0.090578    1.033893    0.492213
      5          1           0        2.567431   -1.071457    1.215341
      6          1           0       -0.110560   -1.175657    0.871897
      7          6           0        1.181476    3.278529    0.274265
      8          1           0        0.784987    3.742592    1.188481
      9          1           0        2.208509    3.623449    0.110254
     10          1           0        0.548429    3.557173   -0.578340
     11          7           0        1.216861    1.837667    0.400997
     12          8           0       -1.050432    1.454788    0.501400
     13          8           0        3.469755    1.560731    0.777210
     14          6           0        2.083033   -2.053571   -1.566082
     15          1           0        2.476022   -3.071465   -1.492094
     16          6           0        0.703140   -1.886442   -1.765331
     17          1           0        0.070454   -2.776395   -1.833306
     18          6           0        2.924830   -1.000484   -1.249870
     19          1           0        2.645640    0.001335   -1.589806
     20          6           0        4.377491   -1.196874   -0.940648
     21          1           0        4.661715   -0.647333   -0.034003
     22          1           0        4.603718   -2.259519   -0.778940
     23          1           0        4.999637   -0.824896   -1.768714
     24          6           0        0.095911   -0.650863   -1.640988
     25          1           0        0.687192    0.247439   -1.838574
     26          6           0       -1.392503   -0.461272   -1.779006
     27          1           0       -1.747588   -0.897442   -2.727046
     28          1           0       -1.635473    0.607864   -1.773484
     29          6           0       -3.145270   -0.687642   -0.126964
     30          6           0       -3.913196    0.421967   -0.782754
     31          1           0       -4.179992    0.128395   -1.808249
     32          1           0       -4.815476    0.601443   -0.189521
     33          1           0       -3.302437    1.331596   -0.847498
     34          8           0       -2.034573   -1.139841   -0.701239
     35          8           0       -3.503481   -1.240111    0.892732
     36          1           0        4.465867    0.371295    1.886161
     37          1           0       -2.360045    3.692091   -1.636084
     38          1           0       -2.037843   -2.464990    1.332289
     39          1           0       -5.162889   -0.585469    1.609193
     40          8           0       -1.232528   -2.925736    1.621384
     41          1           0       -1.166385   -2.691503    2.554244
     42          8           0       -5.919910   -0.004756    1.791869
     43          1           0       -5.527217    0.697981    2.322267
     44          8           0       -1.709966    2.981387   -1.668611
     45          1           0       -1.585573    2.711632   -0.743542
     46          8           0        4.675909   -0.450074    2.359778
     47          1           0        5.626142   -0.554044    2.239693
 ---------------------------------------------------------------------
                    Distance matrix (angstroms):
                    1          2          3          4          5
     1  C    0.000000
     2  C    1.491432   0.000000
     3  C    2.320812   1.389694   0.000000
     4  C    2.278800   2.317887   1.484835   0.000000
     5  H    2.236984   1.087791   2.226089   3.330197   0.000000
     6  H    3.357191   2.218856   1.090633   2.250939   2.701934
     7  C    2.521862   3.728556   3.715873   2.505185   4.661424
     8  H    3.140967   4.277720   4.170617   2.881674   5.133507
     9  H    2.601728   4.022968   4.347467   3.367094   4.836547
    10  H    3.304362   4.337633   4.091766   2.778966   5.358906
    11  N    1.394956   2.320787   2.312675   1.386682   3.309108
    12  O    3.437446   3.497441   2.436266   1.216199   4.469962
    13  O    1.212358   2.446194   3.502313   3.431854   2.816835
    14  C    3.847286   2.840411   3.107312   4.211756   2.989231
    15  H    4.672612   3.537622   3.892961   5.146045   3.367283
    16  C    4.169066   3.158977   2.775682   3.741670   3.608904
    17  H    5.127447   3.977068   3.424391   4.463938   4.293711
    18  C    2.871211   2.279899   3.042833   3.899555   2.491994
    19  H    2.498699   2.421133   3.017900   3.453885   3.004305
    20  C    3.429924   3.058216   4.184100   5.040539   2.817860
    21  H    2.955202   2.834364   4.154666   4.898849   2.475231
    22  H    4.267617   3.596857   4.658966   5.729819   3.087898
    23  H    4.051227   3.959924   5.033737   5.715396   3.857590
    24  C    3.656973   2.995919   2.263603   2.718267   3.800517
    25  H    3.110840   2.892910   2.478598   2.531210   3.821149
    26  C    4.729556   4.155496   3.045164   3.097335   5.001951
    27  H    5.674020   5.064627   4.047233   4.180016   5.847400
    28  H    4.697790   4.451770   3.348181   2.879954   5.423799
    29  C    5.837579   5.163891   3.779504   3.717227   5.880820
    30  C    6.471081   6.087418   4.735526   4.246198   6.944150
    31  H    7.053358   6.631658   5.319943   4.934554   7.490625
    32  H    7.243538   6.880052   5.512565   4.972036   7.699321
    33  H    5.864826   5.718549   4.448465   3.660055   6.669732
    34  O    5.108349   4.288817   2.982457   3.265840   4.985619
    35  O    6.314883   5.520188   4.166822   4.271858   6.081817
    36  H    2.542406   2.880964   4.193844   4.639535   2.477013
    37  H    5.859273   6.345648   5.464495   4.195381   7.423074
    38  H    5.694496   4.551190   3.422626   4.180680   4.812916
    39  H    7.769134   7.165375   5.821077   5.609714   7.755588
    40  O    5.472492   4.191326   3.294251   4.324847   4.247695
    41  H    5.508661   4.311363   3.511997   4.439651   4.284693
    42  O    8.432919   7.943326   6.605255   6.236494   8.573517
    43  H    8.076282   7.713076   6.426419   5.917901   8.359397
    44  O    5.055367   5.478619   4.621511   3.421089   6.560400
    45  H    4.492369   4.886002   3.976093   2.674207   5.949490
    46  O    3.260819   3.201155   4.495271   5.168677   2.478212
    47  H    3.982739   3.999599   5.342629   6.018114   3.266914
                    6          7          8          9         10
     6  H    0.000000
     7  C    4.676141   0.000000
     8  H    5.009132   1.099249   0.000000
     9  H    5.384199   1.095749   1.789744   0.000000
    10  H    4.993709   1.097874   1.792204   1.798449   0.000000
    11  N    3.326246   1.446857   2.106035   2.063229   2.088685
    12  O    2.817777   2.891200   3.012456   3.934054   2.853457
    13  O    4.507265   2.905169   3.483912   2.508062   3.789122
    14  C    3.395044   5.712353   6.547369   5.920676   5.900093
    15  H    3.984087   6.717016   7.515082   6.889191   6.963433
    16  C    2.849964   5.573660   6.357494   6.011893   5.573673
    17  H    3.148532   6.506791   7.220730   7.021874   6.474371
    18  C    3.707583   4.865411   5.746412   4.872762   5.183674
    19  H    3.878393   4.044569   5.017760   4.025046   4.250334
    20  C    4.840286   5.632030   6.468199   5.389285   6.115059
    21  H    4.886143   5.255424   5.982886   4.927333   5.907055
    22  H    5.111207   6.594767   7.380975   6.413814   7.093625
    23  H    5.762809   5.965753   6.882603   5.577516   6.358677
    24  C    2.575389   4.504083   5.270974   5.079337   4.363664
    25  H    3.163584   3.727722   4.624794   4.184469   3.544261
    26  C    3.030018   4.982710   5.587478   5.763813   4.621333
    27  H    3.963541   5.918278   6.578389   6.643751   5.452727
    28  H    3.536149   4.388728   4.945542   5.236260   3.859562
    29  C    3.231926   5.883216   6.066654   6.877843   5.644963
    30  C    4.444132   5.935732   6.081549   6.965789   5.456867
    31  H    5.044206   6.557862   6.833288   7.530538   5.968849
    32  H    5.140129   6.583716   6.567411   7.652369   6.136693
    33  H    4.408029   5.015414   5.163831   6.044866   4.455873
    34  O    2.485531   5.551268   5.946353   6.430490   5.361804
    35  O    3.393597   6.538305   6.580711   7.542766   6.449493
    36  H    4.936140   4.673055   5.039968   4.338896   5.618710
    37  H    5.919892   4.045100   4.227522   4.891431   3.097781
    38  H    2.364056   6.668691   6.820786   7.522896   6.826841
    39  H    5.139840   7.547415   7.367926   8.619705   7.386876
    40  O    2.209823   6.792279   6.980284   7.550899   7.073804
    41  H    2.498569   6.808233   6.860812   7.565819   7.197195
    42  O    5.997158   7.969490   7.704696   9.058857   7.755297
    43  H    5.912213   7.473962   7.099229   8.561123   7.314504
    44  O    5.127699   3.496212   3.868746   4.350983   2.573047
    45  H    4.460529   3.002310   3.227251   3.994426   2.301347
    46  O    5.064637   5.519321   5.838635   5.267069   6.459617
    47  H    5.930179   6.189231   6.557660   5.802256   7.115236
                   11         12         13         14         15
    11  N    0.000000
    12  O    2.301585   0.000000
    13  O    2.300817   4.529833   0.000000
    14  C    4.445378   5.138255   4.525173   0.000000
    15  H    5.410070   6.074279   5.253045   1.093628   0.000000
    16  C    4.338879   4.401920   5.099184   1.404186   2.149895
    17  H    5.253183   4.960862   6.097598   2.155077   2.447499
    18  C    3.701030   4.989791   3.311468   1.384776   2.132853
    19  H    3.062160   4.488498   2.951889   2.130664   3.079029
    20  C    4.582361   6.210730   3.373338   2.527773   2.726494
    21  H    4.269832   6.110171   2.637116   3.312759   3.574871
    22  H    5.445180   6.885111   4.278059   2.648747   2.386406
    23  H    5.109431   6.852278   3.809657   3.171322   3.390018
    24  C    3.408667   3.215229   4.703366   2.433486   3.398001
    25  H    2.797330   3.154759   4.038529   2.705045   3.786170
    26  C    4.104426   2.998091   5.853571   3.828851   4.675565
    27  H    5.104256   4.054858   6.748562   4.166309   4.908194
    28  H    3.791648   2.496928   5.785961   4.577504   5.524584
    29  C    5.067950   3.061567   7.044946   5.592135   6.256606
    30  C    5.451877   3.303209   7.631398   6.534268   7.316375
    31  H    6.076874   4.109494   8.200903   6.636648   7.391994
    32  H    6.185956   3.921878   8.396419   7.518873   8.267581
    33  H    4.715814   2.627970   6.968125   6.401485   7.293356
    34  O    4.544480   3.024396   6.306864   4.305524   4.970120
    35  O    5.656514   3.665115   7.515589   6.157647   6.692960
    36  H    3.861606   5.789739   1.907032   4.845189   5.217728
    37  H    4.514736   3.359977   6.659824   7.263503   8.315886
    38  H    5.474784   4.126744   6.844573   5.054843   5.359098
    39  H    6.930551   4.722516   8.934255   8.046184   8.611104
    40  O    5.493529   4.525098   6.553814   4.681192   4.844412
    41  H    5.552451   4.628104   6.537059   5.286091   5.457504
    42  O    7.500836   5.244749   9.573197   8.917431   9.522646
    43  H    7.104418   4.891821   9.169354   8.978096   9.633790
    44  O    3.762670   2.733942   5.901679   6.304614   7.361431
    45  H    3.150781   1.848219   5.403110   6.069794   7.106412
    46  O    4.586458   6.314511   2.828898   4.970572   5.152486
    47  H    5.342550   7.185660   3.355761   5.411666   5.494261
                   16         17         18         19         20
    16  C    0.000000
    17  H    1.094042   0.000000
    18  C    2.446738   3.411996   0.000000
    19  H    2.714372   3.795611   1.094141   0.000000
    20  C    3.828376   4.673574   1.498136   2.203728   0.000000
    21  H    4.494797   5.371226   2.149376   2.627899   1.097626
    22  H    4.040626   4.682876   2.150723   3.098876   1.098427
    23  H    4.425695   5.301827   2.145892   2.501193   1.100512
    24  C    1.382333   2.134367   2.877150   2.632318   4.372703
    25  H    2.135197   3.086092   2.628861   1.989465   4.063326
    26  C    2.534367   2.739158   4.382933   4.068956   5.876801
    27  H    2.812309   2.763062   4.901444   4.626183   6.387290
    28  H    3.419172   3.790379   4.863879   4.327764   6.332964
    29  C    4.351049   4.197067   6.181011   6.012423   7.583754
    30  C    5.254024   5.215616   7.000012   6.621676   8.448732
    31  H    5.282650   5.148274   7.215584   6.830308   8.702849
    32  H    6.255228   6.163127   7.975139   7.615063   9.397275
    33  H    5.219467   5.405904   6.661783   6.140052   8.085984
    34  O    3.030640   2.896726   4.991602   4.898594   6.416785
    35  O    5.017838   4.750207   6.780217   6.746545   8.091531
    36  H    5.708668   6.562168   3.753833   3.941122   3.233854
    37  H    6.365519   6.912853   7.078088   6.219381   8.353442
    38  H    4.176476   3.816134   5.782772   6.046190   6.923212
    39  H    6.891316   6.636176   8.588229   8.458786   9.894158
    40  O    4.036927   3.695260   5.406877   5.824060   6.405098
    41  H    4.775141   4.559339   5.836854   6.241479   6.721811
    42  O    7.749787   7.530494   9.406013   9.208931  10.720273
    43  H    7.887018   7.789351   9.331776   9.087641  10.599072
    44  O    5.433985   6.029019   6.124702   5.278089   7.419227
    45  H    5.236845   5.835105   5.863438   5.095590   7.132559
    46  O    5.904453   6.648604   4.049542   4.463740   3.396995
    47  H    6.484709   7.238359   4.435476   4.884353   3.476626
                   21         22         23         24         25
    21  H    0.000000
    22  H    1.776918   0.000000
    23  H    1.776216   1.787330   0.000000
    24  C    4.840349   4.863252   4.908475   0.000000
    25  H    4.455775   4.769365   4.444318   1.093435   0.000000
    26  C    6.303428   6.339439   6.402482   1.506775   2.197942
    27  H    6.956594   6.781553   6.815329   2.153790   2.833423
    28  H    6.652510   6.938192   6.788042   2.144677   2.351365
    29  C    7.807642   7.933643   8.309855   3.577552   4.300204
    30  C    8.673703   8.929065   9.053473   4.237979   4.723218
    31  H    9.051270   9.160522   9.229080   4.349548   4.868734
    32  H    9.560375   9.861731  10.043144   5.272262   5.755350
    33  H    8.246554   8.683783   8.626907   4.013544   4.251443
    34  O    6.747447   6.732505   7.121714   2.379325   3.259767
    35  O    8.238971   8.340285   8.919569   4.441010   5.218676
    36  H    2.182427   3.747392   3.882511   5.708073   5.307295
    37  H    8.408471   9.200563   8.636300   4.989288   4.603508
    38  H    7.074935   6.972076   7.863349   4.084647   4.983719
    39  H    9.961263  10.192754  10.711887   6.182470   6.841365
    40  O    6.532498   6.345642   7.399066   4.193193   5.072048
    41  H    6.696596   6.677635   7.758351   4.832967   5.600891
    42  O   10.757207  11.065250  11.514638   6.956440   7.543044
    43  H   10.544013  11.000006  11.396049   7.010445   7.492294
    44  O    7.512514   8.253558   7.714699   4.056500   3.640017
    45  H    7.128443   7.938572   7.544733   3.865122   3.526585
    46  O    2.401937   3.623652   4.158093   6.084639   5.832885
    47  H    2.471541   3.614712   4.066103   6.756664   6.455065
                   26         27         28         29         30
    26  C    0.000000
    27  H    1.102320   0.000000
    28  H    1.096411   1.785440   0.000000
    29  C    2.419231   2.959385   2.582412   0.000000
    30  C    2.850706   3.195461   2.490808   1.500334   0.000000
    31  H    2.849326   2.795196   2.589532   2.136185   1.099547
    32  H    3.920787   4.254130   3.552661   2.110744   1.094644
    33  H    2.780275   3.304371   2.039610   2.149696   1.097562
    34  O    1.426286   2.060343   2.088890   1.329633   2.444404
    35  O    3.492993   4.037744   3.743417   1.213803   2.395334
    36  H    6.960396   7.842091   7.118660   7.943767   8.793996
    37  H    4.266965   4.757007   3.171173   4.698519   3.719430
    38  H    3.756528   4.361153   4.387500   2.552407   4.040405
    39  H    5.070614   5.528524   5.030826   2.663732   2.880637
    40  O    4.202598   4.825775   4.916688   3.424086   4.916602
    41  H    4.878741   5.607894   5.462151   3.888486   5.326746
    42  O    5.784200   6.214962   5.607446   3.441930   3.292063
    43  H    5.938027   6.505884   5.650572   3.686781   3.510328
    44  O    3.459027   4.020823   2.377006   4.230667   3.491360
    45  H    3.343169   4.121402   2.342885   3.790500   3.265261
    46  O    7.345426   8.205927   7.618178   8.210430   9.187420
    47  H    8.088259   8.897096   8.377749   9.086065  10.054191
                   31         32         33         34         35
    31  H    0.000000
    32  H    1.802192   0.000000
    33  H    1.772241   1.804257   0.000000
    34  O    2.727034   3.320745   2.781523   0.000000
    35  O    3.102543   2.506776   3.111671   2.169905   0.000000
    36  H    9.405240   9.513399   8.291056   7.157785   8.191095
    37  H    4.005219   4.204021   2.661185   4.932285   5.659415
    38  H    4.601894   4.408419   4.556834   2.427193   1.960009
    39  H    3.626927   2.182849   3.629291   3.928331   1.922370
    40  O    5.456889   5.343958   5.338987   3.037643   2.920530
    41  H    6.005414   5.629174   5.685059   3.709390   3.213904
    42  O    4.000737   2.348012   3.950096   4.753930   2.858965
    43  H    4.381850   2.612465   3.924095   4.971694   3.145676
    44  O    3.776254   4.182826   2.435570   4.245668   5.253401
    45  H    3.812837   3.897706   2.205205   3.877787   4.687434
    46  O    9.804798   9.883876   8.781513   7.407845   8.347383
    47  H   10.630702  10.782561   9.633582   8.226712   9.253919
                   36         37         38         39         40
    36  H    0.000000
    37  H    8.368212   0.000000
    38  H    7.116848   6.842858   0.000000
    39  H    9.680137   6.056837   3.657210   0.000000
    40  O    6.588795   7.461771   0.971800   4.574356   0.000000
    41  H    6.445877   7.728774   1.517867   4.615251   0.964089
    42  O   10.393011   6.171724   4.618919   0.971431   5.525644
    43  H   10.007929   5.887632   4.812502   1.512763   5.662766
    44  O    7.588801   0.963722   6.227032   5.948877   6.778356
    45  H    7.000889   1.535493   5.595627   5.404019   6.123515
    46  O    0.971122   9.090055   7.084496   9.868316   6.448547
    47  H    1.525607   9.840249   7.950583  10.807484   7.283446
                   41         42         43         44         45
    41  H    0.000000
    42  O    5.513241   0.000000
    43  H    5.528044   0.964038   0.000000
    44  O    7.092931   6.214145   5.975990   0.000000
    45  H    6.343893   5.709076   5.384286   0.971594   0.000000
    46  O    6.260529  10.620368  10.267581   8.293506   7.670276
    47  H    7.127840  11.567782  11.223716   9.032862   8.460092
                   46         47
    46  O    0.000000
    47  H    0.963417   0.000000
 Stoichiometry    C13H25NO8
 Framework group  C1[X(C13H25NO8)]
 Deg. of freedom   135
 Full point group                 C1      NOp   1
 Largest Abelian subgroup         C1      NOp   1
 Largest concise Abelian subgroup C1      NOp   1
                         Standard orientation:                         
 ---------------------------------------------------------------------
 Center     Atomic      Atomic             Coordinates (Angstroms)
 Number     Number       Type             X           Y           Z
 ---------------------------------------------------------------------
      1          6           0        2.363715    1.082081    0.645368
      2          6           0        1.940574   -0.347021    0.700044
      3          6           0        0.558473   -0.373783    0.557457
      4          6           0        0.090578    1.033893    0.492213
      5          1           0        2.567431   -1.071457    1.215341
      6          1           0       -0.110560   -1.175657    0.871897
      7          6           0        1.181476    3.278529    0.274265
      8          1           0        0.784987    3.742592    1.188481
      9          1           0        2.208509    3.623449    0.110254
     10          1           0        0.548429    3.557173   -0.578340
     11          7           0        1.216861    1.837667    0.400997
     12          8           0       -1.050432    1.454788    0.501400
     13          8           0        3.469755    1.560731    0.777210
     14          6           0        2.083033   -2.053571   -1.566082
     15          1           0        2.476022   -3.071465   -1.492094
     16          6           0        0.703140   -1.886442   -1.765331
     17          1           0        0.070454   -2.776395   -1.833306
     18          6           0        2.924830   -1.000484   -1.249870
     19          1           0        2.645640    0.001335   -1.589806
     20          6           0        4.377491   -1.196874   -0.940648
     21          1           0        4.661715   -0.647333   -0.034003
     22          1           0        4.603718   -2.259519   -0.778940
     23          1           0        4.999637   -0.824896   -1.768714
     24          6           0        0.095911   -0.650863   -1.640988
     25          1           0        0.687192    0.247439   -1.838574
     26          6           0       -1.392503   -0.461272   -1.779006
     27          1           0       -1.747588   -0.897442   -2.727046
     28          1           0       -1.635473    0.607864   -1.773484
     29          6           0       -3.145270   -0.687642   -0.126964
     30          6           0       -3.913196    0.421967   -0.782754
     31          1           0       -4.179992    0.128395   -1.808249
     32          1           0       -4.815476    0.601443   -0.189521
     33          1           0       -3.302437    1.331596   -0.847498
     34          8           0       -2.034573   -1.139841   -0.701239
     35          8           0       -3.503481   -1.240111    0.892732
     36          1           0        4.465867    0.371295    1.886161
     37          1           0       -2.360045    3.692091   -1.636084
     38          1           0       -2.037843   -2.464990    1.332289
     39          1           0       -5.162889   -0.585469    1.609193
     40          8           0       -1.232528   -2.925736    1.621384
     41          1           0       -1.166385   -2.691503    2.554244
     42          8           0       -5.919910   -0.004756    1.791869
     43          1           0       -5.527217    0.697981    2.322267
     44          8           0       -1.709966    2.981387   -1.668611
     45          1           0       -1.585573    2.711632   -0.743542
     46          8           0        4.675909   -0.450074    2.359778
     47          1           0        5.626142   -0.554044    2.239693
 ---------------------------------------------------------------------
 Rotational constants (GHZ):      0.3694126      0.1620537      0.1464816
 Standard basis: def2SVP (5D, 7F)
 There are   455 symmetry adapted cartesian basis functions of A   symmetry.
 There are   433 symmetry adapted basis functions of A   symmetry.
   433 basis functions,   725 primitive gaussians,   455 cartesian basis functions
    87 alpha electrons       87 beta electrons
       nuclear repulsion energy      2066.8592229336 Hartrees.
 NAtoms=   47 NActive=   47 NUniq=   47 SFac= 1.00D+00 NAtFMM=   60 NAOKFM=F Big=F
 Integral buffers will be    131072 words long.
 Raffenetti 2 integral format.
 Two-electron integral symmetry is turned on.
 Nuclear repulsion after empirical dispersion term =     2066.8551249428 Hartrees.
 Force inversion solution in PCM.
 ------------------------------------------------------------------------------
 Polarizable Continuum Model (PCM)
 =================================
 Model                : C-PCM.
 Atomic radii         : UFF (Universal Force Field).
 Polarization charges : Total charges.
 Charge compensation  : None.
 Solution method      : Matrix inversion.
 Cavity type          : Scaled VdW (van der Waals Surface) (Alpha=1.100).
 Cavity algorithm     : GePol (No added spheres)
                        Default sphere list used, NSphG=   47.
                        Lebedev-Laikov grids with approx.  5.0 points / Ang**2.
                        Smoothing algorithm: Karplus/York (Gamma=1.0000).
                        Polarization charges: spherical gaussians, with
                                              point-specific exponents (IZeta= 3).
                        Self-potential: point-specific (ISelfS= 7).
                        Self-field    : sphere-specific E.n sum rule (ISelfD= 2).
 1st derivatives      : Analytical E(r).r(x)/FMM algorithm (CHGder, D1EAlg=3).
                        Cavity 1st derivative terms included.
 2nd derivatives      : Analytical E(r).r(xy)/FMM algorithm (CHGder, D2EAlg=3).
                        Cavity 2nd derivative terms included.
 Solvent              : Toluene, Eps=   2.374100 Eps(inf)=   2.238315
 ------------------------------------------------------------------------------
 One-electron integrals computed using PRISM.
   1 Symmetry operations used in ECPInt.
 ECPInt:  NShTT=   21528 NPrTT=   76216 LenC2=   19204 LenP2D=   46919.
 LDataN:  DoStor=T MaxTD1= 4 Len=   56
 NBasis=   433 RedAO= T EigKep=  3.40D-04  NBF=   433
 NBsUse=   433 1.00D-06 EigRej= -1.00D+00 NBFU=   433
 ExpMin= 1.22D-01 ExpMax= 2.27D+03 ExpMxC= 3.41D+02 IAcc=1 IRadAn=         1 AccDes= 0.00D+00
 Harris functional with IExCor= 1009 and IRadAn=       1 diagonalized for initial guess.
 HarFok:  IExCor= 1009 AccDes= 0.00D+00 IRadAn=         1 IDoV= 1 UseB2=F ITyADJ=14
 ICtDFT=  3500011 ScaDFX=  1.000000  1.000000  1.000000  1.000000
 FoFCou: FMM=F IPFlag=           0 FMFlag=      100000 FMFlg1=           0
         NFxFlg=           0 DoJE=T BraDBF=F KetDBF=T FulRan=T
         wScrn=  0.000000 ICntrl=     500 IOpCl=  0 I1Cent=   200000004 NGrid=           0
         NMat0=    1 NMatS0=      1 NMatT0=    0 NMatD0=    1 NMtDS0=    0 NMtDT0=    0
 Petite list used in FoFCou.
 Requested convergence on RMS density matrix=1.00D-08 within 128 cycles.
 Requested convergence on MAX density matrix=1.00D-06.
 Requested convergence on             energy=1.00D-06.
 No special actions if energy rises.
 Inv3:  Mode=2 IEnd=    21177032.
 Iteration    1 A*A^-1 deviation from unit magnitude is 8.77D-15 for   3250.
 Iteration    1 A*A^-1 deviation from orthogonality  is 2.57D-15 for    580    345.
 Iteration    1 A^-1*A deviation from unit magnitude is 8.77D-15 for   3250.
 Iteration    1 A^-1*A deviation from orthogonality  is 1.96D-15 for   3231   3210.
 Error on total polarization charges =  0.00504
 SCF Done:  E(RM062X) =  -1165.59624991     A.U. after   15 cycles
            NFock= 15  Conv=0.26D-08     -V/T= 2.0091
 DoSCS=F DFT=T ScalE2(SS,OS)=  1.000000  1.000000
 Range of M.O.s used for correlation:     1   433
 NBasis=   433 NAE=    87 NBE=    87 NFC=     0 NFV=     0
 NROrb=    433 NOA=    87 NOB=    87 NVA=   346 NVB=   346
 PrsmSu:  requested number of processors reduced to:   1 ShMem   1 Linda.
   1 Symmetry operations used in ECPInt.
 ECPInt:  NShTT=   21528 NPrTT=   76216 LenC2=   19204 LenP2D=   46919.
 LDataN:  DoStor=T MaxTD1= 5 Len=  102
 Number of processors reduced to   1 by ecpmxn.
 Symmetrizing basis deriv contribution to polar:
 IMax=3 JMax=2 DiffMx= 0.00D+00
 G2DrvN: will do    12 centers at a time, making    4 passes.
 Calling FoFCou, ICntrl=  3107 FMM=F I1Cent=   0 AccDes= 0.00D+00.
 Calling FoFCou, ICntrl=  3107 FMM=F I1Cent=   0 AccDes= 0.00D+00.
 Calling FoFCou, ICntrl=  3107 FMM=F I1Cent=   0 AccDes= 0.00D+00.
 Calling FoFCou, ICntrl=  3107 FMM=F I1Cent=   0 AccDes= 0.00D+00.
 NEqPCM:  Using equilibrium solvation (IEInf=0, Eps=   2.3741, EpsInf=   2.2383)
 G2PCM: DoFxE=T DoFxN=T DoGrad=T DoDP/DQ/DG/TGxP=FFFF NFrqRd=   0 IEInf=0 SqF1=F DoCFld=F IF1Alg=4.
 End of G2Drv F.D. properties file   721 does not exist.
 End of G2Drv F.D. properties file   722 does not exist.
 End of G2Drv F.D. properties file   788 does not exist.
          IDoAtm=11111111111111111111111111111111111111111111111
 NEqPCM:  Using equilibrium solvation (IEInf=0, Eps=   2.3741, EpsInf=   2.2383)
          Differentiating once with respect to electric field.
                with respect to dipole field.
          Differentiating once with respect to nuclear coordinates.
          There are   144 degrees of freedom in the 1st order CPHF.  IDoFFX=6 NUNeed=     3.
    144 vectors produced by pass  0 Test12= 3.01D-14 1.00D-09 XBig12= 1.48D+02 5.71D+00.
 AX will form    16 AO Fock derivatives at one time.
    144 vectors produced by pass  1 Test12= 3.01D-14 1.00D-09 XBig12= 2.35D+01 6.23D-01.
    141 vectors produced by pass  2 Test12= 3.01D-14 1.00D-09 XBig12= 3.29D-01 8.46D-02.
    141 vectors produced by pass  3 Test12= 3.01D-14 1.00D-09 XBig12= 2.28D-03 4.59D-03.
    141 vectors produced by pass  4 Test12= 3.01D-14 1.00D-09 XBig12= 1.05D-05 2.93D-04.
    140 vectors produced by pass  5 Test12= 3.01D-14 1.00D-09 XBig12= 3.65D-08 1.24D-05.
     73 vectors produced by pass  6 Test12= 3.01D-14 1.00D-09 XBig12= 1.03D-10 7.80D-07.
      7 vectors produced by pass  7 Test12= 3.01D-14 1.00D-09 XBig12= 2.60D-13 3.46D-08.
      3 vectors produced by pass  8 Test12= 3.01D-14 1.00D-09 XBig12= 7.73D-16 1.76D-09.
      1 vectors produced by pass  9 Test12= 3.01D-14 1.00D-09 XBig12= 4.41D-16 1.82D-09.
 InvSVY:  IOpt=1 It=  1 EMax= 1.07D-14
 Solved reduced A of dimension   935 with   144 vectors.
 Isotropic polarizability for W=    0.000000      220.30 Bohr**3.
 End of Minotr F.D. properties file   721 does not exist.
 End of Minotr F.D. properties file   722 does not exist.
 End of Minotr F.D. properties file   788 does not exist.

 **********************************************************************

            Population analysis using the SCF density.

 **********************************************************************

 Orbital symmetries:
       Occupied  (A) (A) (A) (A) (A) (A) (A) (A) (A) (A) (A) (A)
                 (A) (A) (A) (A) (A) (A) (A) (A) (A) (A) (A) (A)
                 (A) (A) (A) (A) (A) (A) (A) (A) (A) (A) (A) (A)
                 (A) (A) (A) (A) (A) (A) (A) (A) (A) (A) (A) (A)
                 (A) (A) (A) (A) (A) (A) (A) (A) (A) (A) (A) (A)
                 (A) (A) (A) (A) (A) (A) (A) (A) (A) (A) (A) (A)
                 (A) (A) (A) (A) (A) (A) (A) (A) (A) (A) (A) (A)
                 (A) (A) (A)
       Virtual   (A) (A) (A) (A) (A) (A) (A) (A) (A) (A) (A) (A)
                 (A) (A) (A) (A) (A) (A) (A) (A) (A) (A) (A) (A)
                 (A) (A) (A) (A) (A) (A) (A) (A) (A) (A) (A) (A)
                 (A) (A) (A) (A) (A) (A) (A) (A) (A) (A) (A) (A)
                 (A) (A) (A) (A) (A) (A) (A) (A) (A) (A) (A) (A)
                 (A) (A) (A) (A) (A) (A) (A) (A) (A) (A) (A) (A)
                 (A) (A) (A) (A) (A) (A) (A) (A) (A) (A) (A) (A)
                 (A) (A) (A) (A) (A) (A) (A) (A) (A) (A) (A) (A)
                 (A) (A) (A) (A) (A) (A) (A) (A) (A) (A) (A) (A)
                 (A) (A) (A) (A) (A) (A) (A) (A) (A) (A) (A) (A)
                 (A) (A) (A) (A) (A) (A) (A) (A) (A) (A) (A) (A)
                 (A) (A) (A) (A) (A) (A) (A) (A) (A) (A) (A) (A)
                 (A) (A) (A) (A) (A) (A) (A) (A) (A) (A) (A) (A)
                 (A) (A) (A) (A) (A) (A) (A) (A) (A) (A) (A) (A)
                 (A) (A) (A) (A) (A) (A) (A) (A) (A) (A) (A) (A)
                 (A) (A) (A) (A) (A) (A) (A) (A) (A) (A) (A) (A)
                 (A) (A) (A) (A) (A) (A) (A) (A) (A) (A) (A) (A)
                 (A) (A) (A) (A) (A) (A) (A) (A) (A) (A) (A) (A)
                 (A) (A) (A) (A) (A) (A) (A) (A) (A) (A) (A) (A)
                 (A) (A) (A) (A) (A) (A) (A) (A) (A) (A) (A) (A)
                 (A) (A) (A) (A) (A) (A) (A) (A) (A) (A) (A) (A)
                 (A) (A) (A) (A) (A) (A) (A) (A) (A) (A) (A) (A)
                 (A) (A) (A) (A) (A) (A) (A) (A) (A) (A) (A) (A)
                 (A) (A) (A) (A) (A) (A) (A) (A) (A) (A) (A) (A)
                 (A) (A) (A) (A) (A) (A) (A) (A) (A) (A) (A) (A)
                 (A) (A) (A) (A) (A) (A) (A) (A) (A) (A) (A) (A)
                 (A) (A) (A) (A) (A) (A) (A) (A) (A) (A) (A) (A)
                 (A) (A) (A) (A) (A) (A) (A) (A) (A) (A) (A) (A)
                 (A) (A) (A) (A) (A) (A) (A) (A) (A) (A)
 The electronic state is 1-A.
 Alpha  occ. eigenvalues --  -19.68865 -19.64766 -19.64468 -19.63982 -19.62794
 Alpha  occ. eigenvalues --  -19.61153 -19.60411 -19.60286 -14.81584 -10.70699
 Alpha  occ. eigenvalues --  -10.69083 -10.68886 -10.62758 -10.59947 -10.59206
 Alpha  occ. eigenvalues --  -10.59177 -10.58144 -10.58022 -10.57114 -10.56575
 Alpha  occ. eigenvalues --  -10.56417 -10.55414  -1.23772  -1.19822  -1.17830
 Alpha  occ. eigenvalues --   -1.14425  -1.10574  -1.09112  -1.08364  -1.08268
 Alpha  occ. eigenvalues --   -1.07172  -0.94299  -0.91047  -0.88519  -0.84410
 Alpha  occ. eigenvalues --   -0.82589  -0.79633  -0.76918  -0.74906  -0.70131
 Alpha  occ. eigenvalues --   -0.69791  -0.66259  -0.63246  -0.62012  -0.61196
 Alpha  occ. eigenvalues --   -0.59981  -0.59565  -0.59081  -0.58665  -0.57802
 Alpha  occ. eigenvalues --   -0.57762  -0.56952  -0.56589  -0.54984  -0.54825
 Alpha  occ. eigenvalues --   -0.53052  -0.52538  -0.51219  -0.50618  -0.50499
 Alpha  occ. eigenvalues --   -0.49752  -0.48539  -0.48459  -0.47889  -0.47274
 Alpha  occ. eigenvalues --   -0.47228  -0.46479  -0.46205  -0.45679  -0.44861
 Alpha  occ. eigenvalues --   -0.44749  -0.44237  -0.43566  -0.42502  -0.41963
 Alpha  occ. eigenvalues --   -0.41737  -0.39002  -0.38460  -0.37995  -0.37600
 Alpha  occ. eigenvalues --   -0.37251  -0.36890  -0.36480  -0.35305  -0.35002
 Alpha  occ. eigenvalues --   -0.30333  -0.29272
 Alpha virt. eigenvalues --   -0.04790  -0.01758   0.04226   0.07109   0.07742
 Alpha virt. eigenvalues --    0.08744   0.09910   0.10198   0.11107   0.11731
 Alpha virt. eigenvalues --    0.12367   0.12623   0.13144   0.13970   0.14291
 Alpha virt. eigenvalues --    0.16069   0.16431   0.17127   0.17402   0.18305
 Alpha virt. eigenvalues --    0.18893   0.19714   0.20222   0.20295   0.21083
 Alpha virt. eigenvalues --    0.21164   0.22108   0.22507   0.23441   0.24312
 Alpha virt. eigenvalues --    0.24784   0.25346   0.25960   0.26695   0.27146
 Alpha virt. eigenvalues --    0.27630   0.29429   0.29796   0.30544   0.33478
 Alpha virt. eigenvalues --    0.33933   0.35614   0.36688   0.38104   0.39522
 Alpha virt. eigenvalues --    0.40396   0.41751   0.43196   0.44106   0.45591
 Alpha virt. eigenvalues --    0.46361   0.46937   0.47851   0.48227   0.49176
 Alpha virt. eigenvalues --    0.49896   0.50459   0.50812   0.51782   0.52334
 Alpha virt. eigenvalues --    0.53846   0.55581   0.56752   0.57549   0.58793
 Alpha virt. eigenvalues --    0.60734   0.61078   0.61684   0.62282   0.63107
 Alpha virt. eigenvalues --    0.64041   0.64350   0.64594   0.65148   0.66160
 Alpha virt. eigenvalues --    0.66498   0.66558   0.67577   0.68047   0.68327
 Alpha virt. eigenvalues --    0.68716   0.69072   0.69792   0.69875   0.70406
 Alpha virt. eigenvalues --    0.70637   0.71119   0.71552   0.71672   0.72101
 Alpha virt. eigenvalues --    0.72574   0.73066   0.73301   0.73650   0.74089
 Alpha virt. eigenvalues --    0.74723   0.75014   0.76335   0.76605   0.77144
 Alpha virt. eigenvalues --    0.77849   0.78577   0.79150   0.80150   0.80327
 Alpha virt. eigenvalues --    0.81114   0.81778   0.83068   0.84337   0.85624
 Alpha virt. eigenvalues --    0.87767   0.88925   0.90022   0.90851   0.91945
 Alpha virt. eigenvalues --    0.93760   0.95719   0.97773   0.98014   0.99282
 Alpha virt. eigenvalues --    1.00165   1.01187   1.01483   1.03078   1.04389
 Alpha virt. eigenvalues --    1.05279   1.06716   1.07872   1.08201   1.09279
 Alpha virt. eigenvalues --    1.09858   1.10312   1.10529   1.12164   1.13834
 Alpha virt. eigenvalues --    1.14382   1.14935   1.16544   1.17342   1.19074
 Alpha virt. eigenvalues --    1.19466   1.20814   1.22127   1.22336   1.24005
 Alpha virt. eigenvalues --    1.25240   1.26958   1.26975   1.28213   1.29866
 Alpha virt. eigenvalues --    1.30610   1.31252   1.32562   1.33542   1.34028
 Alpha virt. eigenvalues --    1.36257   1.36731   1.38241   1.38987   1.39294
 Alpha virt. eigenvalues --    1.40224   1.42474   1.43438   1.44528   1.44971
 Alpha virt. eigenvalues --    1.46095   1.46481   1.46729   1.48054   1.48834
 Alpha virt. eigenvalues --    1.49951   1.50703   1.51538   1.52387   1.52960
 Alpha virt. eigenvalues --    1.53925   1.56458   1.57041   1.57389   1.58572
 Alpha virt. eigenvalues --    1.59479   1.59980   1.61011   1.61706   1.62532
 Alpha virt. eigenvalues --    1.63278   1.63500   1.64206   1.64377   1.65549
 Alpha virt. eigenvalues --    1.66351   1.66957   1.69387   1.71697   1.73759
 Alpha virt. eigenvalues --    1.74314   1.74550   1.74849   1.76224   1.78147
 Alpha virt. eigenvalues --    1.79198   1.80098   1.80777   1.80994   1.82714
 Alpha virt. eigenvalues --    1.83094   1.83686   1.83893   1.84567   1.85109
 Alpha virt. eigenvalues --    1.85749   1.86376   1.86616   1.86787   1.87118
 Alpha virt. eigenvalues --    1.87596   1.88533   1.89266   1.89742   1.90424
 Alpha virt. eigenvalues --    1.91379   1.93346   1.94586   1.94871   1.96112
 Alpha virt. eigenvalues --    1.96944   1.97821   1.98817   1.99974   2.01584
 Alpha virt. eigenvalues --    2.02136   2.03012   2.03841   2.03982   2.05361
 Alpha virt. eigenvalues --    2.07073   2.07934   2.10420   2.10825   2.11337
 Alpha virt. eigenvalues --    2.11913   2.13399   2.15426   2.15981   2.17574
 Alpha virt. eigenvalues --    2.21598   2.22108   2.23636   2.26367   2.28598
 Alpha virt. eigenvalues --    2.28879   2.29501   2.30389   2.30861   2.31068
 Alpha virt. eigenvalues --    2.31777   2.32222   2.32889   2.34361   2.35568
 Alpha virt. eigenvalues --    2.37903   2.39414   2.39861   2.40783   2.41479
 Alpha virt. eigenvalues --    2.42097   2.43680   2.46261   2.46640   2.47341
 Alpha virt. eigenvalues --    2.48230   2.48708   2.50117   2.50925   2.53050
 Alpha virt. eigenvalues --    2.55911   2.56994   2.57309   2.60738   2.64290
 Alpha virt. eigenvalues --    2.65177   2.66747   2.67199   2.70091   2.70678
 Alpha virt. eigenvalues --    2.73343   2.74003   2.75947   2.77189   2.78209
 Alpha virt. eigenvalues --    2.79368   2.79715   2.80655   2.82842   2.83504
 Alpha virt. eigenvalues --    2.83761   2.85825   2.86989   2.88119   2.89395
 Alpha virt. eigenvalues --    2.90832   2.92026   2.93869   2.95262   2.96008
 Alpha virt. eigenvalues --    2.96709   3.00122   3.01687   3.02737   3.03219
 Alpha virt. eigenvalues --    3.04184   3.04782   3.06213   3.07283   3.07397
 Alpha virt. eigenvalues --    3.07775   3.08373   3.09529   3.12351   3.17521
 Alpha virt. eigenvalues --    3.19114   3.20468   3.21727   3.23889   3.24782
 Alpha virt. eigenvalues --    3.26132   3.26277   3.26774   3.27156   3.33485
 Alpha virt. eigenvalues --    3.37590   3.44167   3.48488   3.56315   3.57609
 Alpha virt. eigenvalues --    3.57856   3.58959   3.60174   3.67756   3.70193
 Alpha virt. eigenvalues --    3.71602   3.73538   3.87373   3.88251   3.88824
 Alpha virt. eigenvalues --    3.89338
          Condensed to atoms (all electrons):
               1          2          3          4          5          6
     1  C    4.700130   0.145852   0.072838  -0.118588  -0.038205   0.010104
     2  C    0.145852   5.770515   0.001560   0.103064   0.406883  -0.053886
     3  C    0.072838   0.001560   5.832858   0.111010  -0.032668   0.327073
     4  C   -0.118588   0.103064   0.111010   4.752298   0.008126  -0.039826
     5  H   -0.038205   0.406883  -0.032668   0.008126   0.571287  -0.006427
     6  H    0.010104  -0.053886   0.327073  -0.039826  -0.006427   0.662313
     7  C   -0.022826   0.008826   0.009933  -0.019089  -0.000098  -0.000119
     8  H    0.000797  -0.000962   0.001153  -0.005149   0.000018   0.000029
     9  H   -0.006300   0.003872  -0.001508   0.006601  -0.000016   0.000005
    10  H    0.003801  -0.000681   0.000986  -0.002653  -0.000003  -0.000011
    11  N    0.308314  -0.151672  -0.109604   0.264346   0.004402   0.003926
    12  O    0.000455   0.006192  -0.082785   0.659106  -0.000045   0.000205
    13  O    0.668390  -0.089628   0.006946  -0.000088  -0.001547  -0.000032
    14  C   -0.004284   0.005902  -0.053680   0.004357  -0.004060  -0.005952
    15  H   -0.000107   0.001373  -0.001093   0.000076   0.000751  -0.000110
    16  C    0.004975  -0.060023  -0.015314  -0.005480  -0.002142   0.004524
    17  H    0.000036  -0.000529  -0.000470  -0.000017  -0.000013   0.002388
    18  C   -0.012682   0.143166  -0.048923   0.002976  -0.002098   0.002004
    19  H   -0.004961   0.003267  -0.028129   0.006374   0.002851  -0.000455
    20  C    0.001322  -0.028863   0.005231  -0.000309  -0.004659   0.000009
    21  H   -0.000110  -0.011364   0.003146  -0.000153   0.001583  -0.000022
    22  H    0.000169  -0.001090  -0.000324   0.000018   0.001646  -0.000010
    23  H   -0.000328   0.002805  -0.000212   0.000006   0.000086   0.000001
    24  C    0.000740  -0.048860   0.159012  -0.011923   0.001289  -0.006838
    25  H    0.007212  -0.025315  -0.000867  -0.005364  -0.000100   0.003725
    26  C   -0.000537   0.006724  -0.043509   0.008896  -0.000062  -0.009797
    27  H    0.000004  -0.000115   0.001887   0.000176   0.000000   0.000054
    28  H    0.000006   0.000326  -0.002670   0.002232   0.000000  -0.000120
    29  C    0.000001   0.000079  -0.003703   0.001786  -0.000001   0.003067
    30  C    0.000000  -0.000001   0.000233  -0.000994   0.000000   0.000349
    31  H    0.000000   0.000000  -0.000019   0.000027   0.000000   0.000011
    32  H    0.000000   0.000000   0.000000   0.000032   0.000000   0.000000
    33  H   -0.000004   0.000011  -0.000370  -0.000694   0.000000  -0.000026
    34  O    0.000000   0.000742   0.007375  -0.001924  -0.000004  -0.000410
    35  O    0.000000  -0.000007  -0.000325   0.000062   0.000000   0.000021
    36  H   -0.004707  -0.001406   0.000078  -0.000086  -0.007298   0.000017
    37  H    0.000000   0.000000  -0.000011  -0.000223   0.000000   0.000000
    38  H   -0.000008   0.000263   0.004752  -0.000151   0.000000  -0.011805
    39  H    0.000000   0.000000   0.000002  -0.000001   0.000000  -0.000005
    40  O    0.000008  -0.000710  -0.036393  -0.000216   0.000028   0.101699
    41  H    0.000000   0.000119   0.002204  -0.000046   0.000003  -0.004177
    42  O    0.000000   0.000000   0.000000   0.000000   0.000000   0.000000
    43  H    0.000000   0.000000   0.000000   0.000000   0.000000   0.000000
    44  O   -0.000002   0.000002  -0.000034   0.001907   0.000000   0.000001
    45  H    0.000017  -0.000128   0.001525  -0.005546   0.000001  -0.000047
    46  O   -0.003088  -0.004744   0.000473  -0.000012   0.030532  -0.000013
    47  H   -0.000110   0.000301  -0.000026   0.000001  -0.001760   0.000001
               7          8          9         10         11         12
     1  C   -0.022826   0.000797  -0.006300   0.003801   0.308314   0.000455
     2  C    0.008826  -0.000962   0.003872  -0.000681  -0.151672   0.006192
     3  C    0.009933   0.001153  -0.001508   0.000986  -0.109604  -0.082785
     4  C   -0.019089  -0.005149   0.006601  -0.002653   0.264346   0.659106
     5  H   -0.000098   0.000018  -0.000016  -0.000003   0.004402  -0.000045
     6  H   -0.000119   0.000029   0.000005  -0.000011   0.003926   0.000205
     7  C    4.534298   0.410492   0.395182   0.377951   0.242285   0.012660
     8  H    0.410492   0.589154  -0.020230  -0.024248  -0.027158   0.000779
     9  H    0.395182  -0.020230   0.568720  -0.012664  -0.024940   0.000238
    10  H    0.377951  -0.024248  -0.012664   0.591512  -0.022876  -0.003427
    11  N    0.242285  -0.027158  -0.024940  -0.022876   7.074683  -0.099903
    12  O    0.012660   0.000779   0.000238  -0.003427  -0.099903   7.774387
    13  O   -0.002348   0.000119   0.013738   0.000195  -0.088951  -0.000013
    14  C    0.000020   0.000000   0.000003  -0.000006  -0.000134   0.000026
    15  H    0.000000   0.000000   0.000000   0.000000  -0.000006   0.000000
    16  C    0.000007   0.000002  -0.000001   0.000009   0.000238   0.000013
    17  H    0.000000   0.000000   0.000000   0.000000  -0.000012  -0.000007
    18  C   -0.000047  -0.000006  -0.000068   0.000045  -0.002438   0.000002
    19  H   -0.000027   0.000014   0.000011  -0.000113   0.000532   0.000039
    20  C   -0.000002   0.000001  -0.000007  -0.000002   0.000184   0.000000
    21  H   -0.000007  -0.000002   0.000007   0.000002   0.000185   0.000000
    22  H    0.000000   0.000000   0.000000   0.000000  -0.000002   0.000000
    23  H    0.000000   0.000000   0.000000   0.000000  -0.000001   0.000000
    24  C    0.000049  -0.000033   0.000051   0.000085  -0.008870  -0.009973
    25  H   -0.001238   0.000142  -0.000101  -0.000293   0.011188  -0.002297
    26  C   -0.000009  -0.000002  -0.000002  -0.000101  -0.000001   0.009143
    27  H    0.000000   0.000000   0.000000   0.000004  -0.000026   0.000246
    28  H   -0.000063  -0.000017  -0.000001   0.000450  -0.000295   0.001987
    29  C   -0.000012  -0.000001   0.000000   0.000000   0.000157   0.015205
    30  C   -0.000019   0.000001   0.000000   0.000102  -0.000039  -0.007100
    31  H    0.000000   0.000000   0.000000   0.000000   0.000001   0.000156
    32  H    0.000000   0.000000   0.000000  -0.000001   0.000000  -0.000018
    33  H    0.000140  -0.000005  -0.000001  -0.000616   0.000151   0.006360
    34  O    0.000002   0.000000   0.000000  -0.000001  -0.000022  -0.003394
    35  O    0.000000   0.000000   0.000000   0.000000   0.000000  -0.000577
    36  H   -0.000005   0.000019  -0.000061  -0.000001   0.000614   0.000001
    37  H    0.000309  -0.000011  -0.000004  -0.001040   0.000005   0.000325
    38  H    0.000000   0.000000   0.000000   0.000000  -0.000001  -0.000069
    39  H    0.000000   0.000000   0.000000   0.000000   0.000000  -0.000007
    40  O    0.000000   0.000000   0.000000   0.000000  -0.000001  -0.000002
    41  H    0.000000   0.000000   0.000000   0.000000   0.000002   0.000001
    42  O    0.000000   0.000000   0.000000   0.000000   0.000000   0.000000
    43  H    0.000000   0.000000   0.000000   0.000000   0.000000   0.000004
    44  O   -0.009687   0.000016   0.000095   0.028670   0.000161  -0.016127
    45  H    0.004394   0.000012  -0.000001  -0.000153  -0.003868   0.038740
    46  O    0.000000   0.000000   0.000003   0.000000  -0.000012   0.000000
    47  H    0.000000   0.000000  -0.000001   0.000000  -0.000005   0.000000
              13         14         15         16         17         18
     1  C    0.668390  -0.004284  -0.000107   0.004975   0.000036  -0.012682
     2  C   -0.089628   0.005902   0.001373  -0.060023  -0.000529   0.143166
     3  C    0.006946  -0.053680  -0.001093  -0.015314  -0.000470  -0.048923
     4  C   -0.000088   0.004357   0.000076  -0.005480  -0.000017   0.002976
     5  H   -0.001547  -0.004060   0.000751  -0.002142  -0.000013  -0.002098
     6  H   -0.000032  -0.005952  -0.000110   0.004524   0.002388   0.002004
     7  C   -0.002348   0.000020   0.000000   0.000007   0.000000  -0.000047
     8  H    0.000119   0.000000   0.000000   0.000002   0.000000  -0.000006
     9  H    0.013738   0.000003   0.000000  -0.000001   0.000000  -0.000068
    10  H    0.000195  -0.000006   0.000000   0.000009   0.000000   0.000045
    11  N   -0.088951  -0.000134  -0.000006   0.000238  -0.000012  -0.002438
    12  O   -0.000013   0.000026   0.000000   0.000013  -0.000007   0.000002
    13  O    7.746698   0.000209  -0.000003   0.000014   0.000000  -0.002267
    14  C    0.000209   4.983301   0.440430   0.372480  -0.048431   0.433431
    15  H   -0.000003   0.440430   0.634248  -0.050063  -0.012419  -0.067799
    16  C    0.000014   0.372480  -0.050063   5.003636   0.445080   0.002415
    17  H    0.000000  -0.048431  -0.012419   0.445080   0.625574   0.013451
    18  C   -0.002267   0.433431  -0.067799   0.002415   0.013451   4.986681
    19  H    0.000506   0.000471   0.007117  -0.032831  -0.000239   0.364110
    20  C   -0.002792  -0.060205  -0.013079   0.012122  -0.000194   0.393706
    21  H    0.011398   0.007752   0.000147  -0.000667   0.000011  -0.020207
    22  H    0.000112  -0.014517   0.005771   0.000791  -0.000015  -0.021011
    23  H   -0.000192   0.000017   0.000193  -0.000488   0.000001  -0.010464
    24  C    0.000055  -0.000257   0.014208   0.364905  -0.075606  -0.047367
    25  H   -0.000235  -0.036189  -0.000247   0.005885   0.006770   0.019628
    26  C    0.000001   0.010616  -0.000171  -0.049627  -0.009191   0.000566
    27  H    0.000000   0.000487  -0.000005  -0.017069   0.000687  -0.000083
    28  H    0.000001  -0.000695   0.000006   0.011766   0.000545   0.000091
    29  C    0.000000   0.000020  -0.000001  -0.000415  -0.000020  -0.000003
    30  C    0.000000   0.000000   0.000000   0.000132   0.000023   0.000000
    31  H    0.000000   0.000000   0.000000  -0.000019   0.000004   0.000000
    32  H    0.000000   0.000000   0.000000   0.000001  -0.000001   0.000000
    33  H    0.000000   0.000002   0.000000  -0.000128  -0.000004  -0.000001
    34  O    0.000000  -0.000221  -0.000002   0.003759   0.003286   0.000017
    35  O    0.000000   0.000000   0.000000  -0.000003   0.000001   0.000000
    36  H    0.037435  -0.000067   0.000004   0.000001   0.000000   0.000283
    37  H    0.000000   0.000000   0.000000   0.000001   0.000000   0.000000
    38  H    0.000000   0.000003   0.000001   0.000173   0.000017   0.000000
    39  H    0.000000   0.000000   0.000000   0.000000   0.000000   0.000000
    40  O    0.000000  -0.000111  -0.000003   0.000217   0.000876   0.000013
    41  H    0.000000   0.000032   0.000001  -0.000033  -0.000064  -0.000004
    42  O    0.000000   0.000000   0.000000   0.000000   0.000000   0.000000
    43  H    0.000000   0.000000   0.000000   0.000000   0.000000   0.000000
    44  O    0.000000   0.000000   0.000000  -0.000001   0.000000   0.000000
    45  H   -0.000001   0.000004   0.000000   0.000009  -0.000001   0.000003
    46  O   -0.012399   0.000065  -0.000006  -0.000001   0.000000  -0.000727
    47  H    0.000149  -0.000003   0.000001   0.000000   0.000000   0.000118
              19         20         21         22         23         24
     1  C   -0.004961   0.001322  -0.000110   0.000169  -0.000328   0.000740
     2  C    0.003267  -0.028863  -0.011364  -0.001090   0.002805  -0.048860
     3  C   -0.028129   0.005231   0.003146  -0.000324  -0.000212   0.159012
     4  C    0.006374  -0.000309  -0.000153   0.000018   0.000006  -0.011923
     5  H    0.002851  -0.004659   0.001583   0.001646   0.000086   0.001289
     6  H   -0.000455   0.000009  -0.000022  -0.000010   0.000001  -0.006838
     7  C   -0.000027  -0.000002  -0.000007   0.000000   0.000000   0.000049
     8  H    0.000014   0.000001  -0.000002   0.000000   0.000000  -0.000033
     9  H    0.000011  -0.000007   0.000007   0.000000   0.000000   0.000051
    10  H   -0.000113  -0.000002   0.000002   0.000000   0.000000   0.000085
    11  N    0.000532   0.000184   0.000185  -0.000002  -0.000001  -0.008870
    12  O    0.000039   0.000000   0.000000   0.000000   0.000000  -0.009973
    13  O    0.000506  -0.002792   0.011398   0.000112  -0.000192   0.000055
    14  C    0.000471  -0.060205   0.007752  -0.014517   0.000017  -0.000257
    15  H    0.007117  -0.013079   0.000147   0.005771   0.000193   0.014208
    16  C   -0.032831   0.012122  -0.000667   0.000791  -0.000488   0.364905
    17  H   -0.000239  -0.000194   0.000011  -0.000015   0.000001  -0.075606
    18  C    0.364110   0.393706  -0.020207  -0.021011  -0.010464  -0.047367
    19  H    0.636803  -0.036775  -0.002962   0.006125  -0.006365   0.019436
    20  C   -0.036775   4.632105   0.310472   0.398829   0.371093   0.000265
    21  H   -0.002962   0.310472   0.688310  -0.020348  -0.011098   0.000183
    22  H    0.006125   0.398829  -0.020348   0.613591  -0.020197   0.000033
    23  H   -0.006365   0.371093  -0.011098  -0.020197   0.610481  -0.000025
    24  C    0.019436   0.000265   0.000183   0.000033  -0.000025   5.232038
    25  H    0.000829   0.000543  -0.000052  -0.000010  -0.000006   0.348964
    26  C    0.000633  -0.000025  -0.000001   0.000003   0.000001   0.316011
    27  H   -0.000003   0.000002   0.000000   0.000000   0.000000  -0.018521
    28  H   -0.000024  -0.000001   0.000000   0.000000   0.000000  -0.008650
    29  C    0.000000   0.000000   0.000000   0.000000   0.000000   0.006778
    30  C    0.000000   0.000000   0.000000   0.000000   0.000000  -0.001394
    31  H    0.000000   0.000000   0.000000   0.000000   0.000000   0.000918
    32  H    0.000000   0.000000   0.000000   0.000000   0.000000  -0.000037
    33  H    0.000000   0.000000   0.000000   0.000000   0.000000   0.000214
    34  O   -0.000008   0.000000   0.000000   0.000000   0.000000  -0.088104
    35  O    0.000000   0.000000   0.000000   0.000000   0.000000   0.000119
    36  H    0.000047   0.002545  -0.006690  -0.000030  -0.000093  -0.000008
    37  H    0.000000   0.000000   0.000000   0.000000   0.000000  -0.000003
    38  H    0.000000   0.000000   0.000000   0.000000   0.000000  -0.000468
    39  H    0.000000   0.000000   0.000000   0.000000   0.000000   0.000002
    40  O    0.000000   0.000000   0.000000   0.000000   0.000000  -0.000172
    41  H    0.000000   0.000000   0.000000   0.000000   0.000000   0.000062
    42  O    0.000000   0.000000   0.000000   0.000000   0.000000   0.000000
    43  H    0.000000   0.000000   0.000000   0.000000   0.000000   0.000000
    44  O   -0.000005   0.000000   0.000000   0.000000   0.000000   0.000461
    45  H    0.000008   0.000000   0.000000   0.000000   0.000000  -0.000476
    46  O   -0.000004  -0.017936   0.048732   0.000137   0.000250  -0.000001
    47  H    0.000001  -0.000729   0.005348   0.000075  -0.000043   0.000000
              25         26         27         28         29         30
     1  C    0.007212  -0.000537   0.000004   0.000006   0.000001   0.000000
     2  C   -0.025315   0.006724  -0.000115   0.000326   0.000079  -0.000001
     3  C   -0.000867  -0.043509   0.001887  -0.002670  -0.003703   0.000233
     4  C   -0.005364   0.008896   0.000176   0.002232   0.001786  -0.000994
     5  H   -0.000100  -0.000062   0.000000   0.000000  -0.000001   0.000000
     6  H    0.003725  -0.009797   0.000054  -0.000120   0.003067   0.000349
     7  C   -0.001238  -0.000009   0.000000  -0.000063  -0.000012  -0.000019
     8  H    0.000142  -0.000002   0.000000  -0.000017  -0.000001   0.000001
     9  H   -0.000101  -0.000002   0.000000  -0.000001   0.000000   0.000000
    10  H   -0.000293  -0.000101   0.000004   0.000450   0.000000   0.000102
    11  N    0.011188  -0.000001  -0.000026  -0.000295   0.000157  -0.000039
    12  O   -0.002297   0.009143   0.000246   0.001987   0.015205  -0.007100
    13  O   -0.000235   0.000001   0.000000   0.000001   0.000000   0.000000
    14  C   -0.036189   0.010616   0.000487  -0.000695   0.000020   0.000000
    15  H   -0.000247  -0.000171  -0.000005   0.000006  -0.000001   0.000000
    16  C    0.005885  -0.049627  -0.017069   0.011766  -0.000415   0.000132
    17  H    0.006770  -0.009191   0.000687   0.000545  -0.000020   0.000023
    18  C    0.019628   0.000566  -0.000083   0.000091  -0.000003   0.000000
    19  H    0.000829   0.000633  -0.000003  -0.000024   0.000000   0.000000
    20  C    0.000543  -0.000025   0.000002  -0.000001   0.000000   0.000000
    21  H   -0.000052  -0.000001   0.000000   0.000000   0.000000   0.000000
    22  H   -0.000010   0.000003   0.000000   0.000000   0.000000   0.000000
    23  H   -0.000006   0.000001   0.000000   0.000000   0.000000   0.000000
    24  C    0.348964   0.316011  -0.018521  -0.008650   0.006778  -0.001394
    25  H    0.643632  -0.032184   0.003058  -0.008001   0.000004   0.000041
    26  C   -0.032184   4.592943   0.399311   0.320390  -0.044278   0.014010
    27  H    0.003058   0.399311   0.608081  -0.028809  -0.001547   0.000065
    28  H   -0.008001   0.320390  -0.028809   0.662879  -0.010943   0.009233
    29  C    0.000004  -0.044278  -0.001547  -0.010943   4.517974   0.373782
    30  C    0.000041   0.014010   0.000065   0.009233   0.373782   4.900371
    31  H   -0.000009   0.000103   0.000211  -0.000700  -0.006059   0.363986
    32  H   -0.000001   0.001149  -0.000029  -0.000535  -0.002017   0.310469
    33  H   -0.000025  -0.010042   0.000667  -0.000726   0.003517   0.299244
    34  O    0.003323   0.290644  -0.027033  -0.023368   0.331628  -0.091407
    35  O   -0.000001   0.001843  -0.000043   0.000201   0.589108  -0.072851
    36  H    0.000005   0.000000   0.000000   0.000000   0.000000   0.000000
    37  H   -0.000037   0.000929  -0.000012  -0.004010  -0.000041   0.000189
    38  H    0.000010  -0.000008  -0.000022   0.000114  -0.005081   0.001654
    39  H    0.000000  -0.000027   0.000003   0.000000  -0.004098   0.002460
    40  O   -0.000005   0.000064  -0.000003  -0.000015  -0.000652  -0.000050
    41  H    0.000000   0.000001   0.000000   0.000001   0.000314  -0.000002
    42  O    0.000000   0.000002   0.000000  -0.000001   0.001838  -0.021301
    43  H    0.000000   0.000000   0.000000   0.000001   0.000423   0.001326
    44  O    0.000636  -0.016610   0.000136   0.052755   0.000321  -0.017041
    45  H   -0.000355   0.005166  -0.000085  -0.013540  -0.000452   0.001886
    46  O    0.000000   0.000000   0.000000   0.000000   0.000000   0.000000
    47  H    0.000000   0.000000   0.000000   0.000000   0.000000   0.000000
              31         32         33         34         35         36
     1  C    0.000000   0.000000  -0.000004   0.000000   0.000000  -0.004707
     2  C    0.000000   0.000000   0.000011   0.000742  -0.000007  -0.001406
     3  C   -0.000019   0.000000  -0.000370   0.007375  -0.000325   0.000078
     4  C    0.000027   0.000032  -0.000694  -0.001924   0.000062  -0.000086
     5  H    0.000000   0.000000   0.000000  -0.000004   0.000000  -0.007298
     6  H    0.000011   0.000000  -0.000026  -0.000410   0.000021   0.000017
     7  C    0.000000   0.000000   0.000140   0.000002   0.000000  -0.000005
     8  H    0.000000   0.000000  -0.000005   0.000000   0.000000   0.000019
     9  H    0.000000   0.000000  -0.000001   0.000000   0.000000  -0.000061
    10  H    0.000000  -0.000001  -0.000616  -0.000001   0.000000  -0.000001
    11  N    0.000001   0.000000   0.000151  -0.000022   0.000000   0.000614
    12  O    0.000156  -0.000018   0.006360  -0.003394  -0.000577   0.000001
    13  O    0.000000   0.000000   0.000000   0.000000   0.000000   0.037435
    14  C    0.000000   0.000000   0.000002  -0.000221   0.000000  -0.000067
    15  H    0.000000   0.000000   0.000000  -0.000002   0.000000   0.000004
    16  C   -0.000019   0.000001  -0.000128   0.003759  -0.000003   0.000001
    17  H    0.000004  -0.000001  -0.000004   0.003286   0.000001   0.000000
    18  C    0.000000   0.000000  -0.000001   0.000017   0.000000   0.000283
    19  H    0.000000   0.000000   0.000000  -0.000008   0.000000   0.000047
    20  C    0.000000   0.000000   0.000000   0.000000   0.000000   0.002545
    21  H    0.000000   0.000000   0.000000   0.000000   0.000000  -0.006690
    22  H    0.000000   0.000000   0.000000   0.000000   0.000000  -0.000030
    23  H    0.000000   0.000000   0.000000   0.000000   0.000000  -0.000093
    24  C    0.000918  -0.000037   0.000214  -0.088104   0.000119  -0.000008
    25  H   -0.000009  -0.000001  -0.000025   0.003323  -0.000001   0.000005
    26  C    0.000103   0.001149  -0.010042   0.290644   0.001843   0.000000
    27  H    0.000211  -0.000029   0.000667  -0.027033  -0.000043   0.000000
    28  H   -0.000700  -0.000535  -0.000726  -0.023368   0.000201   0.000000
    29  C   -0.006059  -0.002017   0.003517   0.331628   0.589108   0.000000
    30  C    0.363986   0.310469   0.299244  -0.091407  -0.072851   0.000000
    31  H    0.571142  -0.009687  -0.009391   0.000678   0.001156   0.000000
    32  H   -0.009687   0.603075  -0.004458   0.003605  -0.003237   0.000000
    33  H   -0.009391  -0.004458   0.619593   0.002005   0.000861   0.000000
    34  O    0.000678   0.003605   0.002005   8.009467  -0.088953   0.000000
    35  O    0.001156  -0.003237   0.000861  -0.088953   7.849764   0.000000
    36  H    0.000000   0.000000   0.000000   0.000000   0.000000   0.488496
    37  H   -0.000009   0.000022   0.002199  -0.000007   0.000000   0.000000
    38  H   -0.000086  -0.000032  -0.000074   0.002285   0.040437   0.000000
    39  H    0.000030  -0.011548   0.000164   0.000453   0.040070   0.000000
    40  O    0.000002   0.000001   0.000003  -0.000873  -0.010223   0.000000
    41  H    0.000000   0.000000  -0.000001  -0.000030   0.000509   0.000000
    42  O    0.000138   0.061675  -0.000032  -0.000002  -0.012405   0.000000
    43  H    0.000034  -0.001794  -0.000134   0.000002   0.000863   0.000000
    44  O    0.000181   0.000097   0.046938   0.000041   0.000000   0.000000
    45  H   -0.000126   0.000004  -0.001120  -0.000131   0.000008   0.000000
    46  O    0.000000   0.000000   0.000000   0.000000   0.000000   0.323615
    47  H    0.000000   0.000000   0.000000   0.000000   0.000000  -0.022270
              37         38         39         40         41         42
     1  C    0.000000  -0.000008   0.000000   0.000008   0.000000   0.000000
     2  C    0.000000   0.000263   0.000000  -0.000710   0.000119   0.000000
     3  C   -0.000011   0.004752   0.000002  -0.036393   0.002204   0.000000
     4  C   -0.000223  -0.000151  -0.000001  -0.000216  -0.000046   0.000000
     5  H    0.000000   0.000000   0.000000   0.000028   0.000003   0.000000
     6  H    0.000000  -0.011805  -0.000005   0.101699  -0.004177   0.000000
     7  C    0.000309   0.000000   0.000000   0.000000   0.000000   0.000000
     8  H   -0.000011   0.000000   0.000000   0.000000   0.000000   0.000000
     9  H   -0.000004   0.000000   0.000000   0.000000   0.000000   0.000000
    10  H   -0.001040   0.000000   0.000000   0.000000   0.000000   0.000000
    11  N    0.000005  -0.000001   0.000000  -0.000001   0.000002   0.000000
    12  O    0.000325  -0.000069  -0.000007  -0.000002   0.000001   0.000000
    13  O    0.000000   0.000000   0.000000   0.000000   0.000000   0.000000
    14  C    0.000000   0.000003   0.000000  -0.000111   0.000032   0.000000
    15  H    0.000000   0.000001   0.000000  -0.000003   0.000001   0.000000
    16  C    0.000001   0.000173   0.000000   0.000217  -0.000033   0.000000
    17  H    0.000000   0.000017   0.000000   0.000876  -0.000064   0.000000
    18  C    0.000000   0.000000   0.000000   0.000013  -0.000004   0.000000
    19  H    0.000000   0.000000   0.000000   0.000000   0.000000   0.000000
    20  C    0.000000   0.000000   0.000000   0.000000   0.000000   0.000000
    21  H    0.000000   0.000000   0.000000   0.000000   0.000000   0.000000
    22  H    0.000000   0.000000   0.000000   0.000000   0.000000   0.000000
    23  H    0.000000   0.000000   0.000000   0.000000   0.000000   0.000000
    24  C   -0.000003  -0.000468   0.000002  -0.000172   0.000062   0.000000
    25  H   -0.000037   0.000010   0.000000  -0.000005   0.000000   0.000000
    26  C    0.000929  -0.000008  -0.000027   0.000064   0.000001   0.000002
    27  H   -0.000012  -0.000022   0.000003  -0.000003   0.000000   0.000000
    28  H   -0.004010   0.000114   0.000000  -0.000015   0.000001  -0.000001
    29  C   -0.000041  -0.005081  -0.004098  -0.000652   0.000314   0.001838
    30  C    0.000189   0.001654   0.002460  -0.000050  -0.000002  -0.021301
    31  H   -0.000009  -0.000086   0.000030   0.000002   0.000000   0.000138
    32  H    0.000022  -0.000032  -0.011548   0.000001   0.000000   0.061675
    33  H    0.002199  -0.000074   0.000164   0.000003  -0.000001  -0.000032
    34  O   -0.000007   0.002285   0.000453  -0.000873  -0.000030  -0.000002
    35  O    0.000000   0.040437   0.040070  -0.010223   0.000509  -0.012405
    36  H    0.000000   0.000000   0.000000   0.000000   0.000000   0.000000
    37  H    0.496576   0.000000   0.000000   0.000000   0.000000   0.000000
    38  H    0.000000   0.480479   0.000064   0.332116  -0.025136   0.000000
    39  H    0.000000   0.000064   0.476828   0.000003  -0.000005   0.339981
    40  O    0.000000   0.332116   0.000003   7.620265   0.326580   0.000000
    41  H    0.000000  -0.025136  -0.000005   0.326580   0.518163   0.000000
    42  O    0.000000   0.000000   0.339981   0.000000   0.000000   7.655487
    43  H    0.000000  -0.000008  -0.030309   0.000000   0.000000   0.331089
    44  O    0.328040   0.000000   0.000000   0.000000   0.000000   0.000000
    45  H   -0.012092   0.000000  -0.000001   0.000000   0.000000   0.000000
    46  O    0.000000   0.000000   0.000000   0.000000   0.000000   0.000000
    47  H    0.000000   0.000000   0.000000   0.000000   0.000000   0.000000
              43         44         45         46         47
     1  C    0.000000  -0.000002   0.000017  -0.003088  -0.000110
     2  C    0.000000   0.000002  -0.000128  -0.004744   0.000301
     3  C    0.000000  -0.000034   0.001525   0.000473  -0.000026
     4  C    0.000000   0.001907  -0.005546  -0.000012   0.000001
     5  H    0.000000   0.000000   0.000001   0.030532  -0.001760
     6  H    0.000000   0.000001  -0.000047  -0.000013   0.000001
     7  C    0.000000  -0.009687   0.004394   0.000000   0.000000
     8  H    0.000000   0.000016   0.000012   0.000000   0.000000
     9  H    0.000000   0.000095  -0.000001   0.000003  -0.000001
    10  H    0.000000   0.028670  -0.000153   0.000000   0.000000
    11  N    0.000000   0.000161  -0.003868  -0.000012  -0.000005
    12  O    0.000004  -0.016127   0.038740   0.000000   0.000000
    13  O    0.000000   0.000000  -0.000001  -0.012399   0.000149
    14  C    0.000000   0.000000   0.000004   0.000065  -0.000003
    15  H    0.000000   0.000000   0.000000  -0.000006   0.000001
    16  C    0.000000  -0.000001   0.000009  -0.000001   0.000000
    17  H    0.000000   0.000000  -0.000001   0.000000   0.000000
    18  C    0.000000   0.000000   0.000003  -0.000727   0.000118
    19  H    0.000000  -0.000005   0.000008  -0.000004   0.000001
    20  C    0.000000   0.000000   0.000000  -0.017936  -0.000729
    21  H    0.000000   0.000000   0.000000   0.048732   0.005348
    22  H    0.000000   0.000000   0.000000   0.000137   0.000075
    23  H    0.000000   0.000000   0.000000   0.000250  -0.000043
    24  C    0.000000   0.000461  -0.000476  -0.000001   0.000000
    25  H    0.000000   0.000636  -0.000355   0.000000   0.000000
    26  C    0.000000  -0.016610   0.005166   0.000000   0.000000
    27  H    0.000000   0.000136  -0.000085   0.000000   0.000000
    28  H    0.000001   0.052755  -0.013540   0.000000   0.000000
    29  C    0.000423   0.000321  -0.000452   0.000000   0.000000
    30  C    0.001326  -0.017041   0.001886   0.000000   0.000000
    31  H    0.000034   0.000181  -0.000126   0.000000   0.000000
    32  H   -0.001794   0.000097   0.000004   0.000000   0.000000
    33  H   -0.000134   0.046938  -0.001120   0.000000   0.000000
    34  O    0.000002   0.000041  -0.000131   0.000000   0.000000
    35  O    0.000863   0.000000   0.000008   0.000000   0.000000
    36  H    0.000000   0.000000   0.000000   0.323615  -0.022270
    37  H    0.000000   0.328040  -0.012092   0.000000   0.000000
    38  H   -0.000008   0.000000   0.000000   0.000000   0.000000
    39  H   -0.030309   0.000000  -0.000001   0.000000   0.000000
    40  O    0.000000   0.000000   0.000000   0.000000   0.000000
    41  H    0.000000   0.000000   0.000000   0.000000   0.000000
    42  O    0.331089   0.000000   0.000000   0.000000   0.000000
    43  H    0.522466   0.000000   0.000001   0.000000   0.000000
    44  O    0.000000   7.626467   0.298172   0.000000   0.000000
    45  H    0.000001   0.298172   0.489976   0.000000   0.000000
    46  O    0.000000   0.000000   0.000000   7.645156   0.330623
    47  H    0.000000   0.000000   0.000000   0.330623   0.503821
 Mulliken charges:
               1
     1  C    0.291675
     2  C   -0.131858
     3  C   -0.087636
     4  C    0.285055
     5  H    0.071722
     6  H    0.018563
     7  C    0.059050
     8  H    0.075076
     9  H    0.077379
    10  H    0.065077
    11  N   -0.370536
    12  O   -0.300521
    13  O   -0.285470
    14  C   -0.030814
    15  H    0.040786
    16  C    0.001151
    17  H    0.048482
    18  C   -0.126511
    19  H    0.063724
    20  C    0.037150
    21  H   -0.003593
    22  H    0.050255
    23  H    0.064575
    24  C   -0.138292
    25  H    0.057335
    26  C    0.237035
    27  H    0.078327
    28  H    0.040201
    29  C    0.233325
    30  C   -0.067359
    31  H    0.087327
    32  H    0.053262
    33  H    0.045784
    34  O   -0.333417
    35  O   -0.336397
    36  H    0.189562
    37  H    0.188905
    38  H    0.180580
    39  H    0.185941
    40  O   -0.332443
    41  H    0.181507
    42  O   -0.356470
    43  H    0.176038
    44  O   -0.325591
    45  H    0.198194
    46  O   -0.340642
    47  H    0.184507
 Sum of Mulliken charges =   0.00000
 Mulliken charges with hydrogens summed into heavy atoms:
               1
     1  C    0.291675
     2  C   -0.060136
     3  C   -0.069073
     4  C    0.285055
     7  C    0.276583
    11  N   -0.370536
    12  O   -0.300521
    13  O   -0.285470
    14  C    0.009973
    16  C    0.049633
    18  C   -0.062787
    20  C    0.148387
    24  C   -0.080957
    26  C    0.355562
    29  C    0.233325
    30  C    0.119014
    34  O   -0.333417
    35  O   -0.336397
    40  O    0.029644
    42  O    0.005510
    44  O    0.061508
    46  O    0.033427
 APT charges:
               1
     1  C    1.417539
     2  C   -0.270378
     3  C   -0.219885
     4  C    1.468879
     5  H    0.112048
     6  H    0.152999
     7  C    0.320530
     8  H   -0.013215
     9  H    0.057314
    10  H    0.036738
    11  N   -1.057117
    12  O   -1.099996
    13  O   -1.052090
    14  C   -0.149902
    15  H    0.053322
    16  C   -0.020927
    17  H    0.070469
    18  C    0.155165
    19  H    0.012678
    20  C   -0.044682
    21  H    0.058317
    22  H    0.000994
    23  H   -0.013476
    24  C   -0.094673
    25  H    0.030247
    26  C    0.571186
    27  H   -0.045110
    28  H    0.039019
    29  C    1.598889
    30  C   -0.235959
    31  H    0.054323
    32  H    0.104053
    33  H    0.113470
    34  O   -1.099977
    35  O   -1.093565
    36  H    0.456863
    37  H    0.310357
    38  H    0.426333
    39  H    0.455429
    40  O   -0.706740
    41  H    0.292328
    42  O   -0.715909
    43  H    0.291111
    44  O   -0.762175
    45  H    0.465158
    46  O   -0.736636
    47  H    0.306652
 Sum of APT charges =   0.00000
 APT charges with hydrogens summed into heavy atoms:
               1
     1  C    1.417539
     2  C   -0.158330
     3  C   -0.066886
     4  C    1.468879
     7  C    0.401367
    11  N   -1.057117
    12  O   -1.099996
    13  O   -1.052090
    14  C   -0.096580
    16  C    0.049543
    18  C    0.167843
    20  C    0.001154
    24  C   -0.064427
    26  C    0.565095
    29  C    1.598889
    30  C    0.035887
    34  O   -1.099977
    35  O   -1.093565
    40  O    0.011921
    42  O    0.030630
    44  O    0.013340
    46  O    0.026879
 Electronic spatial extent (au):  <R**2>=           8169.3836
 Charge=              0.0000 electrons
 Dipole moment (field-independent basis, Debye):
    X=              3.2073    Y=              4.0256    Z=             -3.3985  Tot=              6.1678
 Quadrupole moment (field-independent basis, Debye-Ang):
[...]
 553979,-0.00031185,0.00017429,-0.00009870,0.00009715,0.00012116,-0.000
 25307,0.00032226,0.00003966,0.00002189,-0.00006356,-0.00002588,0.00000
 792,-0.00020867,-0.00016654,0.00045526,0.00003027,0.00001979,-0.000159
 00,0.27813010,-0.00125343,-0.00014002,-0.00021329,-0.00020385,0.000389
 82,0.00023245,0.00065234,-0.00038907,-0.00075406,-0.00847976,0.0003271
 8,0.00012930,0.00004671,0.00006541,-0.00005559,-0.00002583,0.00011642,
 -0.00006027,-0.00004169,-0.00107878,0.00085601,0.00000998,0.00017611,0
 .00003097,-0.00004803,0.00019564,-0.00015137,0.00046822,-0.00093049,-0
 .00037792,0.00248824,0.00143195,-0.00032480,0.00806222,-0.00532153,0.0
 0914961,0.00111340,0.00049886,0.00011970,0.00047807,0.00012847,-0.0000
 7401,0.00007080,-0.00003196,0.00007677,0.00025842,0.00028470,0.0001508
 6,-0.00006231,0.00003554,0.00002470,-0.00015258,-0.00036920,-0.0002613
 0,-0.00002980,-0.00005577,0.00006794,0.00005956,0.00008091,-0.00004343
 ,0.00000936,-0.00001784,0.00001162,0.00002114,-0.00002909,-0.00000280,
 0.00008914,-0.00003106,-0.00000687,-0.00049421,-0.00079295,-0.00030945
 ,-0.00000270,0.00026623,0.00015681,-0.00046391,0.00138105,-0.00004394,
 0.00025417,-0.00078473,-0.00010355,-0.00027539,-0.00140939,0.00008141,
 0.00045771,0.00123917,-0.00239707,-0.00073658,-0.00038628,0.00128871,0
 .00015045,-0.00001664,-0.00013492,-0.00024190,-0.00072276,-0.00014515,
 0.00069621,-0.00120654,-0.00041040,-0.00085945,-0.00160416,0.00129186,
 -0.00026454,-0.00100470,0.00185381,-0.00014804,0.00003480,-0.00015187,
 0.26965216,-0.29430718,-0.03233021,-0.00018094,0.00031140,-0.00024352,
 0.00034954,-0.00002885,-0.00034555,0.00011544,-0.00028770,0.00026022,-
 0.00001521,0.00003761,-0.00006831,-0.00038276,0.00005016,0.00046032,0.
 00006312,-0.00007813,-0.00010715,-0.30123302,0.36174122,0.00221938,-0.
 00117683,0.00028597,0.00049309,0.00030590,-0.00017600,-0.00145622,0.00
 080079,0.00040774,0.00941149,-0.00144506,-0.00056301,-0.00004363,0.000
 03063,0.00007733,-0.00009122,-0.00009074,0.00003396,-0.00065983,-0.000
 22741,0.00056714,0.00015380,-0.00000694,0.00005844,-0.00022436,0.00013
 357,-0.00039202,0.00007040,0.00042000,-0.00110738,-0.00327321,-0.00000
 647,-0.00025973,-0.01015459,0.00880592,-0.00626558,-0.00136737,-0.0000
 3102,-0.00016039,-0.00060512,-0.00017403,0.00008191,-0.00000069,0.0000
 1278,-0.00007388,0.00038345,-0.00034292,0.00019545,0.00001939,0.000025
 21,-0.00005514,0.00022374,0.00049464,0.00032349,0.00000320,-0.00001235
 ,-0.00015482,-0.00004803,-0.00004767,0.00001150,0.00002436,0.00000307,
 0.00000018,-0.00000864,0.00002741,0.00000790,-0.00005936,0.00001341,0.
 00000840,-0.00020024,0.00038496,0.00012989,-0.00002438,-0.00002854,-0.
 00028555,0.00006994,0.00018180,0.00018814,0.00004037,0.00026552,0.0000
 1154,-0.00037408,-0.00001282,-0.00118617,0.00011935,-0.00047681,0.0001
 9969,0.00011778,0.00008696,0.00047134,0.00020964,0.00037423,-0.0000071
 3,0.00006096,0.00014359,0.00006082,-0.00010876,0.00021128,-0.00149392,
 0.00003726,-0.00001463,0.00032444,0.00000644,0.00016018,-0.00017309,0.
 00019565,-0.00013064,0.00016321,-0.00024544,0.00702692,-0.04377030,-0.
 00002910,-0.00010430,0.00001130,-0.00010592,-0.00001861,0.00005645,0.0
 0008559,0.00020643,-0.00006434,-0.00001796,-0.00005755,0.00003710,0.00
 013249,0.00001743,-0.00006140,-0.00005437,-0.00000451,0.00002764,0.032
 13143,-0.11084660,0.51493017,-0.00245944,0.00150780,-0.00027030,-0.000
 44826,-0.00043581,0.00012091,0.00101877,-0.00089598,-0.00043463,-0.007
 85262,0.00528722,-0.00205839,-0.00000217,-0.00005000,-0.00004781,0.000
 17081,0.00007463,-0.00001872,0.00011080,0.00052570,-0.00132612,-0.0000
 1135,-0.00011455,0.00004608,0.00028636,-0.00019049,0.00052925,-0.00117
 388,-0.00101505,0.00111172,0.00201221,-0.00028029,0.00076545,0.0007042
 6,-0.00414251,0.00317023,0.00139063,-0.00012829,0.00018604,0.00048020,
 0.00013847,-0.00005332,-0.00000864,-0.00001461,0.00004902,-0.00048059,
 0.00022049,-0.00021464,0.00000899,-0.00005859,0.00003300,-0.00019947,-
 0.00035862,-0.00025492,-0.00000949,0.00001982,0.00013570,0.00003362,0.
 00001459,0.00000150,-0.00002990,0.00000935,-0.00000849,0.00001052,-0.0
 0002932,-0.00000813,0.00003574,-0.00000422,-0.00000622,0.00035462,-0.0
 0014363,-0.00007069,-0.00012647,0.00005851,0.00024781,0.00047206,-0.00
 012150,-0.00021931,-0.00011590,-0.00004292,0.00004322,0.00064756,-0.00
 063592,0.00009030,0.00199260,-0.00136825,0.00080330,-0.00023691,0.0004
 1475,0.00002360,0.00007084,0.00025914,0.00003289,0.00002687,0.00027691
 ,0.00009376,-0.00185577,-0.00186239,-0.00054080,-0.00116568,0.00045173
 ,0.00011139,-0.00054067,0.00063357,-0.00065810,-0.00019350,0.00014728,
 -0.00018144,-0.00562141,0.00955121,-0.03018455,0.00022751,-0.00010795,
 0.00007654,-0.00005759,-0.00009004,0.00014799,-0.00025812,-0.00007971,
 -0.00000034,0.00005007,0.00003002,-0.00001736,0.00014021,0.00012587,-0
 .00027793,-0.00002858,-0.00002610,0.00010774,-0.03067624,0.02990994,-0
 .02691662,0.04318028,0.00260660,-0.00092750,0.00035853,0.00073623,-0.0
 0024441,-0.00036382,-0.00165707,0.00100506,0.00099065,0.01628180,-0.00
 274823,0.00025441,-0.00008040,-0.00001941,0.00011804,-0.00008882,-0.00
 014156,0.00005239,0.00004111,0.00216845,-0.00089380,0.00000156,-0.0003
 0596,-0.00007292,0.00010730,-0.00028229,0.00023713,-0.00097850,-0.0002
 3895,0.00035730,-0.00567624,-0.00134718,-0.00009094,-0.00920298,-0.000
 47452,-0.00213906,-0.00191617,-0.00045097,-0.00020293,-0.00095836,-0.0
 0029012,0.00007509,-0.00002948,0.00002415,-0.00011009,0.00039242,-0.00
 054090,0.00009708,0.00004133,0.00001956,-0.00006376,0.00027129,0.00077
 050,0.00061780,-0.00000102,0.00002868,-0.00018474,-0.00006747,-0.00008
 004,0.00002239,0.00001361,0.00001403,-0.00000356,-0.00001913,0.0000385
 4,0.00001043,-0.00009148,0.00002661,0.00001106,-0.00005370,0.00078537,
 0.00026945,-0.00000196,-0.00006024,-0.00036790,0.00003859,-0.00081101,
 0.00032210,-0.00006814,0.00057425,-0.00000416,-0.00025184,-0.00076357,
 -0.00142924,-0.00112370,-0.00084207,0.00107343,0.00025230,-0.00030474,
 0.00023594,0.00013568,0.00023379,-0.00000119,0.00011002,0.00026261,0.0
 0009255,-0.00184964,-0.00031017,-0.00068739,0.00078984,0.00020905,-0.0
 0035202,0.00035373,0.00037909,-0.00077877,0.00023299,-0.00012001,0.000
 22956,0.00470411,-0.01032399,0.03224270,0.00000530,-0.00016826,0.00010
 745,-0.00020923,0.00004549,0.00015603,0.00006637,0.00026619,-0.0001720
 9,-0.00001503,-0.00004792,0.00006005,0.00020426,-0.00007177,-0.0001811
 5,-0.00003816,0.00005869,0.00003270,0.03451711,-0.05775204,0.09503269,
 -0.03735680,0.07268393,-0.00261624,0.00154573,-0.00041305,-0.00067656,
 -0.00036641,0.00027886,0.00232982,-0.00107389,-0.00044368,-0.01475365,
 0.00185453,0.00118871,0.00010324,-0.00002390,-0.00010741,0.00013780,0.
 00010757,-0.00004422,0.00001669,-0.00111935,0.00058661,-0.00023501,0.0
 0006974,-0.00033867,0.00002665,0.00001124,-0.00009974,0.00060788,0.000
 24018,0.00052442,0.00515516,0.00071197,0.00011369,0.00945049,-0.002636
 65,-0.00299798,0.00176303,0.00011275,0.00021681,0.00079482,0.00024243,
 -0.00007688,-0.00002188,-0.00000505,0.00008235,-0.00062024,0.00047571,
 -0.00027383,-0.00001412,-0.00003040,0.00006115,-0.00026030,-0.00065813
 ,-0.00049223,0.00000636,0.00001744,0.00018322,0.00004904,0.00004944,-0
 .00000047,-0.00003161,-0.00000499,-0.00000415,0.00000658,-0.00002868,-
 0.00001123,0.00005468,-0.00001314,-0.00001287,0.00043404,-0.00048907,-
 0.00007352,0.00006177,-0.00002409,0.00025031,0.00044225,-0.00063540,0.
 00032658,-0.00018492,0.00018624,0.00000471,0.00006276,-0.00156001,-0.0
 0007256,0.00081383,-0.00025195,0.00084693,0.00002149,0.00036023,-0.000
 64909,-0.00012911,-0.00011694,0.00002070,0.00006775,0.00021330,0.00004
 825,-0.00050671,-0.00077821,0.00128661,-0.00028940,0.00052363,-0.00055
 561,-0.00021031,0.00030944,-0.00060044,-0.00021811,0.00014532,-0.00019
 015,0.00499751,-0.00597097,0.00288026,0.00015276,-0.00001055,0.0000664
 0,0.00000152,-0.00001018,0.00008482,-0.00019820,-0.00016634,0.00001143
 ,0.00003414,0.00005863,-0.00002982,0.00000842,0.00002318,-0.00014831,0
 .00003557,0.00000710,0.00003288,-0.06253495,0.13357399,-0.46229910,0.0
 5570914,-0.12476570,0.46069765,0.00615373,0.00056756,0.00127349,-0.002
 08009,-0.00234975,-0.00038779,0.00042418,0.00112877,-0.00015467,0.0012
 3807,-0.00010080,0.00003862,-0.00064779,0.00106007,-0.00054785,0.00006
 851,0.00013557,-0.00016172,-0.00009167,-0.00054823,0.00000797,-0.00002
 270,0.00012071,0.00002166,0.00004693,-0.00008270,0.00003534,-0.0000462
 4,0.00009407,0.00001337,-0.00211688,0.00069602,-0.00005542,-0.00122646
 ,0.00057045,-0.00003377,-0.00477608,0.00477192,-0.00585870,0.00049553,
 0.00023084,-0.00007504,-0.00000506,-0.00004572,0.00006311,-0.00045420,
 0.00029400,-0.00038368,-0.00001282,-0.00000270,0.00005556,-0.00051504,
 -0.00011176,0.00048133,0.00003573,-0.00000881,0.00012182,0.00090679,0.
 00008180,-0.00022968,-0.00136475,0.00027281,-0.00008771,-0.00002644,-0
 .00010616,-0.00003451,0.00008438,-0.00017001,-0.00016824,0.00010632,-0
 .00048676,-0.00043829,-0.00003920,0.00001683,0.00014838,0.00023273,0.0
 0003299,-0.00012759,-0.00009635,-0.00004089,0.00002358,-0.00000212,-0.
 00002473,0.00004693,0.00051881,-0.00003552,-0.00026189,-0.00005113,0.0
 0003226,0.00000673,0.00000681,-0.00000390,-0.00000126,-0.00000053,0.00
 000180,-0.00001057,0.00003734,-0.00001881,0.00001421,-0.00047939,0.000
 05632,0.00012205,-0.00020761,-0.00006600,0.00019175,-0.06259558,0.1002
 6688,-0.05183628,0.00002300,-0.00002694,0.00001551,0.00008218,0.000061
 65,-0.00002244,0.00007669,-0.00001000,-0.00004319,-0.00017071,-0.00024
 928,0.00010286,0.00004852,0.00007356,-0.00005454,-0.00007602,0.0000064
 3,0.00005265,0.00002393,-0.00000613,-0.00001988,-0.00013505,0.00015079
 ,-0.00017004,0.00015465,-0.00020613,0.00018518,0.58886157,-0.00861648,
 -0.00422928,-0.00104606,0.00093902,0.00079896,0.00064703,-0.00055162,0
 .00060990,-0.00040371,-0.00168870,-0.00168814,-0.00013325,0.00075052,-
 0.00058232,-0.00007244,0.00002100,-0.00003767,0.00008251,0.00000770,0.
 00036249,-0.00002432,-0.00002062,-0.00005450,-0.00001814,-0.00006628,0
 .00011160,-0.00007440,0.00003519,-0.00002719,-0.00000868,0.00364787,0.
 00056471,0.00004355,0.00098328,0.00018395,0.00010143,0.00983540,-0.000
 92905,0.00632644,-0.00075321,-0.00025621,-0.00001857,0.00003745,0.0000
 8471,-0.00001758,0.00056360,-0.00031731,0.00021185,-0.00000321,-0.0000
 0040,-0.00004691,0.00105219,0.00024814,0.00006334,-0.00012865,0.000043
 24,-0.00018915,-0.00007491,0.00102143,-0.00082598,0.00015966,-0.001501
 34,-0.00005073,0.00002962,0.00029989,0.00054434,-0.00028307,-0.0000517
 2,-0.00054141,-0.00023635,0.00051895,0.00046303,0.00001219,-0.00001026
 ,-0.00015742,0.00002749,-0.00004025,-0.00000921,0.00000510,0.00002047,
 -0.00000574,-0.00001896,0.00000583,-0.00002004,-0.00009901,-0.00009838
 ,0.00007372,0.00000768,0.00001095,-0.00000179,0.00000099,0.00000356,0.
 00000251,-0.00000118,0.00000019,0.00000345,-0.00002694,0.00000276,-0.0
 0001169,0.00007428,0.00003071,-0.00001305,0.00001708,0.00007617,-0.000
 06470,0.05509616,-0.36383606,0.21096246,-0.00002349,0.00000347,-0.0000
 0931,0.00001813,-0.00006242,0.00003114,-0.00001387,-0.00001284,0.00000
 932,-0.00004326,0.00013152,-0.00006217,0.00003696,-0.00004535,0.000012
 04,0.00001793,0.00001913,-0.00001460,-0.00000839,-0.00000758,0.0000064
 6,0.00012044,-0.00001177,0.00010531,-0.00011867,0.00007715,-0.00011256
 ,-0.13571172,0.40522749,0.00542081,0.00082263,0.00017311,-0.00055032,-
 0.00115019,0.00033793,-0.00022916,0.00078103,-0.00005303,0.00133352,-0
 .00033599,-0.00020302,-0.00020168,0.00029168,-0.00118613,0.00003019,0.
 00019563,-0.00011650,-0.00002705,-0.00058457,-0.00001760,-0.00006043,0
 .00014004,0.00002569,0.00005855,-0.00008303,0.00001297,-0.00003637,0.0
 0009211,0.00001718,-0.00238787,0.00046035,-0.00020494,-0.00134866,0.00
 059468,0.00003739,-0.00648992,0.00395226,-0.00217264,-0.00119094,-0.00
 001551,-0.00000761,0.00009458,0.00003326,-0.00004243,0.00023502,-0.000
 10812,-0.00003826,-0.00010212,-0.00002079,-0.00002158,0.00211221,-0.00
 057441,-0.00006010,-0.00021310,0.00011714,0.00009751,0.00025207,0.0019
 9470,-0.00098692,-0.00024186,-0.00083800,-0.00240674,-0.00009932,-0.00
 026143,0.00009937,-0.00050595,-0.00051515,-0.00143258,-0.00024632,0.00
 011186,0.00002502,-0.00003260,-0.00003976,0.00005912,0.00046705,0.0000
 5168,-0.00032984,-0.00015822,-0.00004582,0.00003480,-0.00002339,-0.000
 03605,0.00005220,0.00072556,-0.00005997,-0.00051025,-0.00007111,0.0000
 3362,0.00003187,0.00001466,-0.00000189,0.00000124,-0.00000259,0.000002
 98,-0.00001822,0.00004184,-0.00002476,0.00000236,-0.00072096,0.0000912
 5,0.00032198,-0.00025709,-0.00012365,0.00037892,-0.02526478,0.20235155
 ,-0.12872736,0.00002532,-0.00002640,0.00000436,0.00003808,0.00008875,-
 0.00007659,0.00008686,-0.00001586,-0.00007024,-0.00009186,-0.00024041,
 0.00020196,-0.00002562,0.00004630,-0.00008359,-0.00007858,0.00000709,0
 .00008824,0.00001720,-0.00000414,-0.00003321,-0.00014092,0.00017699,-0
 .00013510,0.00015038,-0.00022218,0.00015513,-0.02534874,-0.22234972,0.
 15772827,-0.00070489,-0.00019469,0.00003450,0.00003192,-0.00015327,0.0
 0000982,0.00003666,-0.00004015,-0.00005731,-0.00021159,0.00001137,-0.0
 0000588,-0.00039272,0.00023566,-0.00002146,-0.00000316,-0.00002460,0.0
 0001042,0.00000856,0.00007658,-0.00000035,0.00000252,-0.00001448,-0.00
 000413,-0.00000642,0.00001113,-0.00000607,0.00000529,-0.00001105,-0.00
 000020,0.00035982,-0.00004999,0.00004823,0.00019353,-0.00007028,0.0000
 1521,0.00077539,-0.00017983,0.00031139,0.00021663,0.00001569,-0.000021
 79,-0.00001321,-0.00000923,0.00000008,-0.00004578,0.00002541,0.0000106
 8,0.00001631,0.00000350,0.00000135,-0.00039351,0.00010368,0.00006134,0
 .00003796,-0.00002116,-0.00001547,0.00019078,-0.00028578,0.00017017,-0
 .00027732,0.00007932,-0.00089529,0.00002509,0.00002042,-0.00005528,0.0
 0007375,0.00002953,0.00022626,0.00002566,-0.00001910,-0.00001112,0.000
 00561,0.00000726,-0.00000870,-0.00006561,-0.00000661,0.00003721,0.0000
 2237,0.00000808,-0.00000449,0.00000359,0.00000348,-0.00000812,-0.00010
 949,0.00001590,0.00005930,0.00001166,-0.00000785,-0.00000178,-0.000002
 57,0.00000051,-0.00000002,0.00000007,-0.00000040,0.00000181,-0.0000067
 0,0.00000348,-0.00000175,0.00010592,-0.00001352,-0.00003916,0.00004655
 ,0.00001096,-0.00004277,-0.01318831,-0.00419925,0.00524857,-0.00000473
 ,0.00000570,-0.00000400,-0.00001567,-0.00000830,0.00000347,-0.00001691
 ,0.00000289,0.00000945,0.00003355,0.00003216,-0.00001468,-0.00001149,-
 0.00000975,0.00000872,0.00001680,-0.00000256,-0.00001185,-0.00000519,0
 .00000194,0.00000466,0.00002620,-0.00003122,0.00003001,-0.00002752,0.0
 0003789,-0.00002906,-0.52238648,0.07499168,0.05504360,0.53561706,-0.00
 032769,-0.00020438,0.00022048,-0.00056410,-0.00037137,-0.00020208,0.00
 008608,0.00015419,-0.00004261,0.00000407,-0.00002924,0.00001086,0.0004
 6715,0.00048237,0.00036127,0.00001639,0.00001126,-0.00002366,0.0000005
 0,0.00001636,0.00000601,0.00000632,-0.00000329,0.00000004,0.00000351,0
 .00000429,0.00000957,0.00000211,-0.00000192,-0.00000142,0.00008193,-0.
 00000116,-0.00012435,-0.00003704,0.00003525,0.00000056,0.00038094,-0.0
 0094478,0.00120352,0.00010569,0.00007650,-0.00001754,-0.00000737,-0.00
 001708,0.00000077,-0.00009008,0.00003914,-0.00004541,-0.00000217,0.000
 00173,0.00000618,-0.00014361,-0.00010018,0.00011127,0.00004559,-0.0000
 0661,0.00001981,0.00002862,-0.00007486,0.00002344,-0.00005416,0.000311
 15,-0.00014290,-0.00005136,-0.00015991,-0.00015232,0.00004899,-0.00001
 846,0.00006009,0.00002658,-0.00008196,-0.00007515,-0.00000460,0.000006
 13,0.00002112,0.00001306,0.00000380,-0.00000976,-0.00000761,-0.0000021
 2,0.00000188,0.00000147,-0.00000037,0.00000240,0.00003171,0.00001055,-
 0.00001882,-0.00000240,-0.00000075,0.00000168,0.00000082,-0.00000003,-
 0.00000044,0.00000052,0.00000069,-0.00000044,0.00000323,0.00000029,0.0
 0000098,-0.00003057,-0.00000412,0.00000612,-0.00001021,-0.00001618,0.0
 0001468,0.04066941,-0.00421102,-0.00568359,0.00000524,0.00000122,0.000
 00303,0.00000247,0.00001495,-0.00000498,0.00000428,0.00000322,-0.00000
 174,-0.00000573,-0.00004436,0.00001252,0.00000098,0.00001771,-0.000004
 38,-0.00000500,-0.00000486,0.00000257,0.00000227,0.00000180,-0.0000010
 8,-0.00001961,-0.00000400,-0.00001415,0.00001523,-0.00000332,0.0000127
 2,0.02968935,-0.03665734,0.01524023,-0.07038114,0.04177106,0.00027390,
 0.00021126,0.00008912,-0.00035418,-0.00025985,0.00006653,0.00009926,-0
 .00003425,-0.00010304,-0.00010689,0.00019231,0.00001502,-0.00019715,0.
 00012641,-0.00015786,-0.00000508,-0.00003174,0.00000618,-0.00000987,0.
 00004989,0.00000047,0.00001040,-0.00000982,-0.00000437,-0.00000357,-0.
 00000150,0.00000787,-0.00000258,-0.00000712,0.00000092,0.00000043,-0.0
 0005636,0.00006238,0.00011281,-0.00008506,0.00000051,-0.00032729,0.000
 81307,-0.00091772,0.00042995,0.00001651,-0.00002212,-0.00003068,-0.000
 02106,0.00001952,-0.00012973,0.00007890,-0.00003962,0.00002954,0.00000
 474,0.00001336,-0.00066493,0.00016389,0.00027193,0.00009144,-0.0000366
 5,0.00001290,0.00043270,-0.00035435,-0.00018230,-0.00117661,0.00012014
 ,-0.00115218,0.00002280,-0.00003439,-0.00003702,0.00009284,0.00001161,
 0.00019800,0.00008029,-0.00010531,-0.00007771,0.00000163,0.00001604,0.
 00001469,-0.00010291,-0.00000724,0.00007114,0.00002929,0.00000646,-0.0
 0000625,0.00000791,0.00000619,-0.00000727,-0.00014087,0.00002406,0.000
 10152,0.00001404,-0.00000749,-0.00000733,-0.00000409,-0.00000030,-0.00
 000040,-0.00000003,-0.00000087,0.00000355,-0.00000555,0.00000409,0.000
 00189,0.00014398,-0.00002223,-0.00007558,0.00005482,0.00001966,-0.0000
 7460,-0.02207635,0.00336507,0.00234640,-0.00000478,0.00000496,-0.00000
 089,-0.00000900,-0.00001230,0.00001262,-0.00001908,0.00000416,0.000015
 13,0.00002324,0.00003403,-0.00003261,-0.00000252,-0.00001060,0.0000163
 5,0.00001764,-0.00000251,-0.00001952,-0.00000424,0.00000137,0.00000745
 ,0.00002129,-0.00003067,0.00001286,-0.00001809,0.00003047,-0.00001347,
 0.08349139,0.00661338,-0.02095213,-0.06008550,-0.01078698,0.02051569\\
 0.00000153,-0.00000093,-0.00000174,0.00000065,-0.00000159,-0.00000186,
 -0.00000022,-0.00000010,-0.00000049,0.00000284,-0.00000084,-0.00000004
 ,-0.00000025,-0.00000185,-0.00000142,-0.00000047,0.00000071,0.00000043
 ,0.00000254,-0.00000156,-0.00000094,0.00000368,-0.00000032,-0.00000085
 ,0.00000326,-0.00000144,-0.00000221,0.00000212,0.00000019,-0.00000011,
 0.00000117,-0.00000085,-0.00000142,0.00000066,0.00000045,0.00000079,0.
 00000162,-0.00000249,-0.00000231,-0.00000193,-0.00000143,-0.00000030,-
 0.00000321,-0.00000124,-0.00000147,-0.00000231,-0.00000095,-0.00000015
 ,-0.00000312,-0.00000004,0.00000041,-0.00000201,-0.00000220,-0.0000016
 3,-0.00000132,-0.00000136,-0.00000188,-0.00000136,-0.00000225,-0.00000
 299,-0.00000035,-0.00000436,-0.00000259,-0.00000192,-0.00000333,-0.000
 00316,-0.00000191,-0.00000401,-0.00000373,-0.00000211,0.00000022,-0.00
 000136,-0.00000124,-0.00000056,-0.00000020,0.00000055,0.00000058,0.000
 00014,-0.00000246,0.00000094,0.00000165,-0.00000305,0.00000125,0.00000
 174,0.00000048,0.00000188,0.00000459,0.00000022,0.00000173,0.00000126,
 -0.00000122,0.00000292,0.00000351,-0.00000022,0.00000380,0.00000419,0.
 00000079,0.00000245,0.00000239,-0.00000164,0.00000249,0.00000183,-0.00
 000144,0.00000108,0.00000155,0.00000180,-0.00000302,-0.00000322,0.0000
 0159,0.00000133,0.00000145,-0.00000075,0.00000258,0.00000307,-0.000000
 23,0.00000533,0.00000273,0.00000021,0.00000154,0.00000043,-0.00000077,
 0.00000041,0.00000080,0.00000354,0.00000048,0.00000539,0.00000125,0.00
 000740,0.00000325,0.00000128,0.00000120,0.00000154,0.00000127,0.000001
 86,0.00000038,0.00000165,-0.00000226,-0.00000319,0.00000078,-0.0000038
 2,-0.00000423\\\@


 ... THE UNIVERSE IS NOT ONLY QUEERER THAN WE SUPPOSE,
 BUT QUEERER THAN WE CAN SUPPOSE ... 

                                   -- J. B. S. HALDANE
 Job cpu time:       0 days  5 hours 10 minutes 13.2 seconds.
 File lengths (MBytes):  RWF=   1036 Int=      0 D2E=      0 Chk=     23 Scr=      1
 Normal termination of Gaussian 09 at Sun Sep  6 20:47:40 2020.
