 Entering Gaussian System, Link 0=g09
 Input=m062x_PM6_2H2O_diene_pm6_cpcmtoluene_1_gd3.com
 Output=m062x_PM6_2H2O_diene_pm6_cpcmtoluene_1_gd3.log
 Initial command:
 /apps/applications/gaussian/G09.D01/2/default/g09/l1.exe "/local/725665.1.40core-192G.q/Gau-297895.inp" -scrdir="/local/725665.1.40core-192G.q/"
 Entering Link 1 = /apps/applications/gaussian/G09.D01/2/default/g09/l1.exe PID=    297897.
  
 Copyright (c) 1988,1990,1992,1993,1995,1998,2003,2009,2013,
            Gaussian, Inc.  All Rights Reserved.
  
 This is part of the Gaussian(R) 09 program.  It is based on
 the Gaussian(R) 03 system (copyright 2003, Gaussian, Inc.),
 the Gaussian(R) 98 system (copyright 1998, Gaussian, Inc.),
 the Gaussian(R) 94 system (copyright 1995, Gaussian, Inc.),
 the Gaussian 92(TM) system (copyright 1992, Gaussian, Inc.),
 the Gaussian 90(TM) system (copyright 1990, Gaussian, Inc.),
 the Gaussian 88(TM) system (copyright 1988, Gaussian, Inc.),
 the Gaussian 86(TM) system (copyright 1986, Carnegie Mellon
 University), and the Gaussian 82(TM) system (copyright 1983,
 Carnegie Mellon University). Gaussian is a federally registered
 trademark of Gaussian, Inc.
  
 This software contains proprietary and confidential information,
 including trade secrets, belonging to Gaussian, Inc.
  
 This software is provided under written license and may be
 used, copied, transmitted, or stored only in accord with that
 written license.
  
 The following legend is applicable only to US Government
 contracts under FAR:
  
                    RESTRICTED RIGHTS LEGEND
  
 Use, reproduction and disclosure by the US Government is
 subject to restrictions as set forth in subparagraphs (a)
 and (c) of the Commercial Computer Software - Restricted
 Rights clause in FAR 52.227-19.
  
 Gaussian, Inc.
 340 Quinnipiac St., Bldg. 40, Wallingford CT 06492
  
  
 ---------------------------------------------------------------
 Warning -- This program may not be used in any manner that
 competes with the business of Gaussian, Inc. or will provide
 assistance to any competitor of Gaussian, Inc.  The licensee
 of this program is prohibited from giving any competitor of
 Gaussian, Inc. access to this program.  By using this program,
 the user acknowledges that Gaussian, Inc. is engaged in the
 business of creating and licensing software in the field of
 computational chemistry and represents and warrants to the
 licensee that it is not a competitor of Gaussian, Inc. and that
 it will not use this program in any manner prohibited above.
 ---------------------------------------------------------------
  

 Cite this work as:
 Gaussian 09, Revision D.01,
 M. J. Frisch, G. W. Trucks, H. B. Schlegel, G. E. Scuseria, 
 M. A. Robb, J. R. Cheeseman, G. Scalmani, V. Barone, B. Mennucci, 
 G. A. Petersson, H. Nakatsuji, M. Caricato, X. Li, H. P. Hratchian, 
 A. F. Izmaylov, J. Bloino, G. Zheng, J. L. Sonnenberg, M. Hada, 
 M. Ehara, K. Toyota, R. Fukuda, J. Hasegawa, M. Ishida, T. Nakajima, 
 Y. Honda, O. Kitao, H. Nakai, T. Vreven, J. A. Montgomery, Jr., 
 J. E. Peralta, F. Ogliaro, M. Bearpark, J. J. Heyd, E. Brothers, 
 K. N. Kudin, V. N. Staroverov, T. Keith, R. Kobayashi, J. Normand, 
 K. Raghavachari, A. Rendell, J. C. Burant, S. S. Iyengar, J. Tomasi, 
 M. Cossi, N. Rega, J. M. Millam, M. Klene, J. E. Knox, J. B. Cross, 
 V. Bakken, C. Adamo, J. Jaramillo, R. Gomperts, R. E. Stratmann, 
 O. Yazyev, A. J. Austin, R. Cammi, C. Pomelli, J. W. Ochterski, 
 R. L. Martin, K. Morokuma, V. G. Zakrzewski, G. A. Voth, 
 P. Salvador, J. J. Dannenberg, S. Dapprich, A. D. Daniels, 
 O. Farkas, J. B. Foresman, J. V. Ortiz, J. Cioslowski, 
 and D. J. Fox, Gaussian, Inc., Wallingford CT, 2013.
 
 ******************************************
 Gaussian 09:  ES64L-G09RevD.01 24-Apr-2013
                 6-Sep-2020 
 ******************************************
 %nprocshared=4
 Will use up to    4 processors via shared memory.
 %chk=m062x_PM6_2H2O_diene_pm6_cpcmtoluene_1_gd3.chk
 ----------------------------------------------------------------------
 # opt freq scrf=(cpcm,solvent=toluene) geom=connectivity def2svp m062x
  empiricaldispersion=gd3
 ----------------------------------------------------------------------
 1/14=-1,18=20,19=15,26=3,38=1,57=2/1,3;
 2/9=110,12=2,17=6,18=5,40=1/2;
 3/5=43,7=101,11=2,16=1,25=1,30=1,70=2101,71=1,72=13,74=-55,124=31/1,2,3;
 4//1;
 5/5=2,38=5,53=13/2;
 6/7=2,8=2,9=2,10=2,28=1/1;
 7//1,2,3,16;
 1/14=-1,18=20,19=15,26=3/3(2);
 2/9=110/2;
 99//99;
 2/9=110/2;
 3/5=43,7=101,11=2,16=1,25=1,30=1,70=2105,71=1,72=13,74=-55,124=31/1,2,3;
 4/5=5,16=3,69=1/1;
 5/5=2,38=5,53=13/2;
 7//1,2,3,16;
 1/14=-1,18=20,19=15,26=3/3(-5);
 2/9=110/2;
 6/7=2,8=2,9=2,10=2,19=2,28=1/1;
 99/9=1/99;
 -------------------
 Title Card Required
 -------------------
 Symbolic Z-matrix:
 Charge =  0 Multiplicity = 1
 C                    -3.28149   0.44396  -0.3737 
 H                    -3.50879   1.32529  -0.98407 
 C                    -1.85597   0.11203  -0.22282 
 H                    -1.14379   0.94169  -0.28371 
 C                    -4.29717  -0.22108   0.19341 
 H                    -4.06626  -1.06721   0.85205 
 C                    -5.74431   0.11428   0.01196 
 H                    -6.22708   0.32429   0.9788 
 H                    -5.87281   0.98886  -0.64003 
 H                    -6.28976  -0.73205  -0.43452 
 C                    -1.38307  -1.12506  -0.02766 
 H                    -2.06144  -1.98412  -0.01035 
 C                     0.06254  -1.46673   0.15302 
 H                     0.3911   -2.15126  -0.64573 
 H                     0.2194   -1.98223   1.11601 
 C                     2.15489  -0.26705   0.00969 
 C                     2.88474  -1.57833  -0.05778 
 H                     2.62474  -2.10166  -0.98915 
 H                     3.95851  -1.3652   -0.03721 
 H                     2.60323  -2.22588   0.7832 
 O                     0.83001  -0.27048   0.12299 
 O                     2.71093   0.80832  -0.03884 
 O                     5.54014   0.32837   0.01258 
 H                     4.64616   0.7057    0.04355 
 H                     5.77091   0.38826  -0.92146 
 O                     0.45788   2.68856   0.1693 
 H                     0.14655   2.24591   0.96713 
 H                     1.25673   2.1793   -0.03946 
 
 Add virtual bond connecting atoms H24        and O22        Dist= 3.67D+00.
 Add virtual bond connecting atoms H28        and O22        Dist= 3.78D+00.

 GradGradGradGradGradGradGradGradGradGradGradGradGradGradGradGradGradGrad
 Berny optimization.
 Initialization pass.
                           ----------------------------
                           !    Initial Parameters    !
                           ! (Angstroms and Degrees)  !
 --------------------------                            --------------------------
 ! Name  Definition              Value          Derivative Info.                !
 --------------------------------------------------------------------------------
 ! R1    R(1,2)                  1.0959         estimate D2E/DX2                !
 ! R2    R(1,3)                  1.4714         estimate D2E/DX2                !
 ! R3    R(1,5)                  1.34           estimate D2E/DX2                !
 ! R4    R(3,4)                  1.0951         estimate D2E/DX2                !
 ! R5    R(3,11)                 1.3387         estimate D2E/DX2                !
 ! R6    R(5,6)                  1.0968         estimate D2E/DX2                !
 ! R7    R(5,7)                  1.4965         estimate D2E/DX2                !
 ! R8    R(7,8)                  1.1009         estimate D2E/DX2                !
 ! R9    R(7,9)                  1.0984         estimate D2E/DX2                !
 ! R10   R(7,10)                 1.1014         estimate D2E/DX2                !
 ! R11   R(11,12)                1.0947         estimate D2E/DX2                !
 ! R12   R(11,13)                1.4964         estimate D2E/DX2                !
 ! R13   R(13,14)                1.1021         estimate D2E/DX2                !
 ! R14   R(13,15)                1.1035         estimate D2E/DX2                !
 ! R15   R(13,21)                1.4216         estimate D2E/DX2                !
 ! R16   R(16,17)                1.5022         estimate D2E/DX2                !
 ! R17   R(16,21)                1.3297         estimate D2E/DX2                !
 ! R18   R(16,22)                1.2116         estimate D2E/DX2                !
 ! R19   R(17,18)                1.0995         estimate D2E/DX2                !
 ! R20   R(17,19)                1.0949         estimate D2E/DX2                !
 ! R21   R(17,20)                1.0981         estimate D2E/DX2                !
 ! R22   R(22,24)                1.9397         estimate D2E/DX2                !
 ! R23   R(22,28)                1.9986         estimate D2E/DX2                !
 ! R24   R(23,24)                0.9708         estimate D2E/DX2                !
 ! R25   R(23,25)                0.964          estimate D2E/DX2                !
 ! R26   R(26,27)                0.9641         estimate D2E/DX2                !
 ! R27   R(26,28)                0.9701         estimate D2E/DX2                !
 ! A1    A(2,1,3)              116.0709         estimate D2E/DX2                !
 ! A2    A(2,1,5)              118.5321         estimate D2E/DX2                !
 ! A3    A(3,1,5)              125.3793         estimate D2E/DX2                !
 ! A4    A(1,3,4)              116.9644         estimate D2E/DX2                !
 ! A5    A(1,3,11)             124.4478         estimate D2E/DX2                !
 ! A6    A(4,3,11)             118.5862         estimate D2E/DX2                !
 ! A7    A(1,5,6)              118.5186         estimate D2E/DX2                !
 ! A8    A(1,5,7)              124.7809         estimate D2E/DX2                !
 ! A9    A(6,5,7)              116.6952         estimate D2E/DX2                !
 ! A10   A(5,7,8)              111.1198         estimate D2E/DX2                !
 ! A11   A(5,7,9)              111.3167         estimate D2E/DX2                !
 ! A12   A(5,7,10)             110.8448         estimate D2E/DX2                !
 ! A13   A(8,7,9)              108.549          estimate D2E/DX2                !
 ! A14   A(8,7,10)             106.5838         estimate D2E/DX2                !
 ! A15   A(9,7,10)             108.2561         estimate D2E/DX2                !
 ! A16   A(3,11,12)            120.5677         estimate D2E/DX2                !
 ! A17   A(3,11,13)            124.7411         estimate D2E/DX2                !
 ! A18   A(12,11,13)           114.6802         estimate D2E/DX2                !
 ! A19   A(11,13,14)           110.019          estimate D2E/DX2                !
 ! A20   A(11,13,15)           110.4475         estimate D2E/DX2                !
 ! A21   A(11,13,21)           109.0779         estimate D2E/DX2                !
 ! A22   A(14,13,15)           107.4549         estimate D2E/DX2                !
 ! A23   A(14,13,21)           110.2688         estimate D2E/DX2                !
 ! A24   A(15,13,21)           109.5602         estimate D2E/DX2                !
 ! A25   A(17,16,21)           119.0555         estimate D2E/DX2                !
 ! A26   A(17,16,22)           123.3657         estimate D2E/DX2                !
 ! A27   A(21,16,22)           117.5782         estimate D2E/DX2                !
 ! A28   A(16,17,18)           109.793          estimate D2E/DX2                !
 ! A29   A(16,17,19)           107.8011         estimate D2E/DX2                !
 ! A30   A(16,17,20)           110.8426         estimate D2E/DX2                !
 ! A31   A(18,17,19)           109.9047         estimate D2E/DX2                !
 ! A32   A(18,17,20)           107.9048         estimate D2E/DX2                !
 ! A33   A(19,17,20)           110.5981         estimate D2E/DX2                !
 ! A34   A(13,21,16)           122.8103         estimate D2E/DX2                !
 ! A35   A(16,22,24)           114.1559         estimate D2E/DX2                !
 ! A36   A(16,22,28)           105.9584         estimate D2E/DX2                !
 ! A37   A(24,22,28)           139.6625         estimate D2E/DX2                !
 ! A38   A(24,23,25)           103.1319         estimate D2E/DX2                !
 ! A39   A(22,24,23)           159.7038         estimate D2E/DX2                !
 ! A40   A(27,26,28)           101.7115         estimate D2E/DX2                !
 ! A41   A(22,28,26)           163.5812         estimate D2E/DX2                !
 ! D1    D(2,1,3,4)             28.341          estimate D2E/DX2                !
 ! D2    D(2,1,3,11)          -151.1902         estimate D2E/DX2                !
 ! D3    D(5,1,3,4)           -150.0968         estimate D2E/DX2                !
 ! D4    D(5,1,3,11)            30.372          estimate D2E/DX2                !
 ! D5    D(2,1,5,6)           -176.44           estimate D2E/DX2                !
 ! D6    D(2,1,5,7)              2.6962         estimate D2E/DX2                !
 ! D7    D(3,1,5,6)              1.9628         estimate D2E/DX2                !
 ! D8    D(3,1,5,7)           -178.901          estimate D2E/DX2                !
 ! D9    D(1,3,11,12)            2.5169         estimate D2E/DX2                !
 ! D10   D(1,3,11,13)         -178.755          estimate D2E/DX2                !
 ! D11   D(4,3,11,12)         -177.0072         estimate D2E/DX2                !
 ! D12   D(4,3,11,13)            1.7208         estimate D2E/DX2                !
 ! D13   D(1,5,7,8)           -121.8127         estimate D2E/DX2                !
 ! D14   D(1,5,7,9)             -0.6952         estimate D2E/DX2                !
 ! D15   D(1,5,7,10)           119.8623         estimate D2E/DX2                !
 ! D16   D(6,5,7,8)             57.3377         estimate D2E/DX2                !
 ! D17   D(6,5,7,9)            178.4553         estimate D2E/DX2                !
 ! D18   D(6,5,7,10)           -60.9873         estimate D2E/DX2                !
 ! D19   D(3,11,13,14)        -119.3608         estimate D2E/DX2                !
 ! D20   D(3,11,13,15)         122.1786         estimate D2E/DX2                !
 ! D21   D(3,11,13,21)           1.7129         estimate D2E/DX2                !
 ! D22   D(12,11,13,14)         59.4339         estimate D2E/DX2                !
 ! D23   D(12,11,13,15)        -59.0266         estimate D2E/DX2                !
 ! D24   D(12,11,13,21)       -179.4924         estimate D2E/DX2                !
 ! D25   D(11,13,21,16)       -167.1998         estimate D2E/DX2                !
 ! D26   D(14,13,21,16)        -46.2787         estimate D2E/DX2                !
 ! D27   D(15,13,21,16)         71.7912         estimate D2E/DX2                !
 ! D28   D(21,16,17,18)         66.4141         estimate D2E/DX2                !
 ! D29   D(21,16,17,19)       -173.8778         estimate D2E/DX2                !
 ! D30   D(21,16,17,20)        -52.7054         estimate D2E/DX2                !
 ! D31   D(22,16,17,18)       -113.2981         estimate D2E/DX2                !
 ! D32   D(22,16,17,19)          6.41           estimate D2E/DX2                !
 ! D33   D(22,16,17,20)        127.5824         estimate D2E/DX2                !
 ! D34   D(17,16,21,13)         -1.4824         estimate D2E/DX2                !
 ! D35   D(22,16,21,13)        178.2464         estimate D2E/DX2                !
 ! D36   D(17,16,22,24)         -8.3027         estimate D2E/DX2                !
 ! D37   D(17,16,22,28)        176.0375         estimate D2E/DX2                !
 ! D38   D(21,16,22,24)        171.9811         estimate D2E/DX2                !
 ! D39   D(21,16,22,28)         -3.6786         estimate D2E/DX2                !
 ! D40   D(16,22,24,23)         15.5584         estimate D2E/DX2                !
 ! D41   D(28,22,24,23)       -170.896          estimate D2E/DX2                !
 ! D42   D(16,22,28,26)         47.292          estimate D2E/DX2                !
 ! D43   D(24,22,28,26)       -126.584          estimate D2E/DX2                !
 ! D44   D(25,23,24,22)         86.8272         estimate D2E/DX2                !
 ! D45   D(27,26,28,22)          6.5642         estimate D2E/DX2                !
 --------------------------------------------------------------------------------
 Trust Radius=3.00D-01 FncErr=1.00D-07 GrdErr=1.00D-06
 Number of steps in this run=    123 maximum allowed number of steps=    168.
 GradGradGradGradGradGradGradGradGradGradGradGradGradGradGradGradGradGrad

                          Input orientation:                          
 ---------------------------------------------------------------------
 Center     Atomic      Atomic             Coordinates (Angstroms)
 Number     Number       Type             X           Y           Z
 ---------------------------------------------------------------------
      1          6           0       -3.281488    0.443963   -0.373704
      2          1           0       -3.508788    1.325287   -0.984073
      3          6           0       -1.855973    0.112025   -0.222823
      4          1           0       -1.143788    0.941692   -0.283705
      5          6           0       -4.297165   -0.221076    0.193408
      6          1           0       -4.066263   -1.067206    0.852052
      7          6           0       -5.744311    0.114284    0.011958
      8          1           0       -6.227079    0.324287    0.978797
      9          1           0       -5.872809    0.988856   -0.640028
     10          1           0       -6.289762   -0.732046   -0.434522
     11          6           0       -1.383073   -1.125062   -0.027655
     12          1           0       -2.061444   -1.984120   -0.010352
     13          6           0        0.062544   -1.466733    0.153017
     14          1           0        0.391103   -2.151263   -0.645730
     15          1           0        0.219396   -1.982232    1.116010
     16          6           0        2.154889   -0.267053    0.009688
     17          6           0        2.884736   -1.578327   -0.057775
     18          1           0        2.624739   -2.101660   -0.989148
     19          1           0        3.958505   -1.365204   -0.037210
     20          1           0        2.603230   -2.225876    0.783203
     21          8           0        0.830006   -0.270475    0.122994
     22          8           0        2.710927    0.808316   -0.038840
     23          8           0        5.540141    0.328373    0.012583
     24          1           0        4.646162    0.705704    0.043550
     25          1           0        5.770907    0.388259   -0.921463
     26          8           0        0.457884    2.688559    0.169297
     27          1           0        0.146551    2.245907    0.967125
     28          1           0        1.256726    2.179300   -0.039460
 ---------------------------------------------------------------------
                    Distance matrix (angstroms):
                    1          2          3          4          5
     1  C    0.000000
     2  H    1.095878   0.000000
     3  C    1.471408   2.187077   0.000000
     4  H    2.196724   2.496174   1.095108   0.000000
     5  C    1.339960   2.097436   2.498724   3.394621   0.000000
     6  H    2.098090   3.066946   2.726045   3.723772   1.096843
     7  C    2.514542   2.730599   3.895420   4.683677   1.496537
     8  H    3.243468   3.499138   4.538228   5.273988   2.153793
     9  H    2.661350   2.412498   4.132537   4.742661   2.154346
    10  H    3.230543   3.502634   4.518380   5.413427   2.150774
    11  C    2.487080   3.381954   1.338697   2.096256   3.059083
    12  H    2.741554   3.741004   2.116881   3.078505   2.854521
    13  C    3.887254   4.673624   2.512855   2.728823   4.534353
    14  H    4.505233   5.235458   3.217246   3.471790   5.139030
    15  H    4.512412   5.408270   3.238139   3.516647   4.934794
    16  C    5.496065   5.966602   4.035440   3.525396   6.454833
    17  C    6.497060   7.082807   5.035757   4.757157   7.313339
    18  H    6.460842   7.025962   5.056128   4.895042   7.269649
    19  H    7.470195   7.993482   6.002067   5.604991   8.337764
    20  H    6.564783   7.286343   5.134429   5.021148   7.209891
    21  O    4.202560   4.753650   2.735028   2.351726   5.127892
    22  O    6.012813   6.312335   4.623337   3.864787   7.087097
    23  O    8.830839   9.158072   7.403021   6.718546   9.854298
    24  H    7.942937   8.242761   6.534613   5.803991   8.992468
    25  H    9.069123   9.327094   7.663792   6.966063  10.147921
    26  O    4.394993   4.350087   3.485143   2.412905   5.574679
    27  H    4.098326   4.244552   3.159040   2.220479   5.141134
    28  H    4.870164   4.932723   3.741142   2.711788   6.054894
                    6          7          8          9         10
     6  H    0.000000
     7  C    2.217549   0.000000
     8  H    2.573216   1.100883   0.000000
     9  H    3.117259   1.098396   1.785428   0.000000
    10  H    2.590666   1.101424   1.765570   1.782579   0.000000
    11  C    2.824312   4.534087   5.155381   5.000138   4.939190
    12  H    2.367229   4.238786   4.864121   4.874585   4.430156
    13  C    4.206580   6.019890   6.591587   6.472036   6.421585
    14  H    4.825623   6.573322   7.250363   7.006923   6.833209
    15  H    4.390196   6.417173   6.848058   7.001857   6.807074
    16  C    6.328709   7.908400   8.458501   8.151280   8.469101
    17  C    7.028899   8.793762   9.365874   9.144618   9.221147
    18  H    7.016382   8.715137   9.386837   9.048839   9.036137
    19  H    8.079387   9.815087  10.374622  10.127177  10.275491
    20  H    6.769741   8.703597   9.193255   9.176237   9.099433
    21  O    5.013956   6.586502   7.133624   6.862641   7.156463
    22  O    7.088129   8.483826   9.008764   8.606657   9.140114
    23  O    9.743477  11.286483  11.806822  11.450658  11.885748
    24  H    8.927667  10.407339  10.920052  10.544961  11.040385
    25  H   10.101171  11.556236  12.147705  11.662592  12.122373
    26  O    5.919445   6.717058   7.136792   6.604670   7.589194
    27  H    5.360761   6.337067   6.657020   6.355770   7.229035
    28  H    6.298318   7.299415   7.777227   7.253145   8.098240
                   11         12         13         14         15
    11  C    0.000000
    12  H    1.094745   0.000000
    13  C    1.496392   2.192192   0.000000
    14  H    2.140749   2.539021   1.102057   0.000000
    15  H    2.147235   2.543801   1.103493   1.778140   0.000000
    16  C    3.640707   4.552602   2.416130   2.662848   2.812814
    17  C    4.291917   4.963025   2.832252   2.625291   2.940229
    18  H    4.235655   4.788754   2.876198   2.260426   3.198692
    19  H    5.346982   6.051741   3.901923   3.703315   3.961259
    20  H    4.214249   4.737864   2.725531   2.634563   2.419253
    21  O    2.377127   3.363754   1.421595   2.078686   2.070999
    22  O    4.527572   5.529379   3.496654   3.809069   3.915171
    23  O    7.074248   7.945580   5.765951   5.752787   5.904809
    24  H    6.301464   7.227035   5.073561   5.171353   5.288802
    25  H    7.366713   8.234320   6.097615   5.955459   6.371012
    26  O    4.239295   5.311611   4.174088   4.908422   4.771732
    27  H    3.833115   4.870712   3.801779   4.690012   4.231387
    28  H    4.229360   5.324018   3.841442   4.457650   4.441792
                   16         17         18         19         20
    16  C    0.000000
    17  C    1.502221   0.000000
    18  H    2.141078   1.099514   0.000000
    19  H    2.112147   1.094908   1.796520   0.000000
    20  H    2.153212   1.098093   1.776829   1.802943   0.000000
    21  O    1.329724   2.442349   2.794846   3.318374   2.720991
    22  O    1.211591   2.393038   3.062429   2.506121   3.145421
    23  O    3.437219   3.269806   3.925315   2.317813   3.967807
    24  H    2.674667   2.886120   3.610251   2.183587   3.648948
    25  H    3.791050   3.597694   4.012811   2.672328   4.446770
    26  O    3.411883   4.914009   5.383628   5.360036   5.397320
    27  H    3.356348   4.813818   5.373059   5.346008   5.105482
    28  H    2.606483   4.095182   4.593472   4.456806   4.679255
                   21         22         23         24         25
    21  O    0.000000
    22  O    2.174361   0.000000
    23  O    4.749335   2.870094   0.000000
    24  H    3.939833   1.939704   0.970843   0.000000
    25  H    5.092870   3.212312   0.963992   1.515610   0.000000
    26  O    2.982700   2.941911   5.605745   4.635644   5.891464
    27  H    2.740775   3.107195   5.803352   4.844762   6.216993
    28  H    2.491963   1.998574   4.666507   3.696844   4.935948
                   26         27         28
    26  O    0.000000
    27  H    0.964053   0.000000
    28  H    0.970089   1.500046   0.000000
 Stoichiometry    C8H16O4
 Framework group  C1[X(C8H16O4)]
 Deg. of freedom    78
 Full point group                 C1      NOp   1
 Largest Abelian subgroup         C1      NOp   1
 Largest concise Abelian subgroup C1      NOp   1
                         Standard orientation:                         
 ---------------------------------------------------------------------
 Center     Atomic      Atomic             Coordinates (Angstroms)
 Number     Number       Type             X           Y           Z
 ---------------------------------------------------------------------
      1          6           0       -3.281488    0.443963   -0.373704
      2          1           0       -3.508788    1.325287   -0.984073
      3          6           0       -1.855973    0.112025   -0.222823
      4          1           0       -1.143788    0.941692   -0.283705
      5          6           0       -4.297165   -0.221076    0.193408
      6          1           0       -4.066263   -1.067206    0.852052
      7          6           0       -5.744311    0.114284    0.011958
      8          1           0       -6.227079    0.324287    0.978797
      9          1           0       -5.872809    0.988856   -0.640028
     10          1           0       -6.289762   -0.732046   -0.434522
     11          6           0       -1.383073   -1.125062   -0.027655
     12          1           0       -2.061444   -1.984120   -0.010352
     13          6           0        0.062544   -1.466733    0.153017
     14          1           0        0.391103   -2.151263   -0.645730
     15          1           0        0.219396   -1.982232    1.116010
     16          6           0        2.154889   -0.267053    0.009688
     17          6           0        2.884736   -1.578327   -0.057775
     18          1           0        2.624739   -2.101660   -0.989148
     19          1           0        3.958505   -1.365204   -0.037210
     20          1           0        2.603230   -2.225876    0.783203
     21          8           0        0.830006   -0.270475    0.122994
     22          8           0        2.710927    0.808316   -0.038840
     23          8           0        5.540141    0.328373    0.012583
     24          1           0        4.646162    0.705704    0.043550
     25          1           0        5.770907    0.388259   -0.921463
     26          8           0        0.457884    2.688559    0.169297
     27          1           0        0.146551    2.245907    0.967125
     28          1           0        1.256726    2.179300   -0.039460
 ---------------------------------------------------------------------
 Rotational constants (GHZ):      1.9749601      0.2751723      0.2443711
 Standard basis: def2SVP (5D, 7F)
 There are   260 symmetry adapted cartesian basis functions of A   symmetry.
 There are   248 symmetry adapted basis functions of A   symmetry.
   248 basis functions,   412 primitive gaussians,   260 cartesian basis functions
    48 alpha electrons       48 beta electrons
       nuclear repulsion energy       694.2540024323 Hartrees.
 NAtoms=   28 NActive=   28 NUniq=   28 SFac= 1.00D+00 NAtFMM=   60 NAOKFM=F Big=F
 Integral buffers will be    131072 words long.
 Raffenetti 2 integral format.
 Two-electron integral symmetry is turned on.
 Nuclear repulsion after empirical dispersion term =      694.2528299272 Hartrees.
 ------------------------------------------------------------------------------
 Polarizable Continuum Model (PCM)
 =================================
 Model                : C-PCM.
 Atomic radii         : UFF (Universal Force Field).
 Polarization charges : Total charges.
 Charge compensation  : None.
 Solution method      : On-the-fly selection.
 Cavity type          : Scaled VdW (van der Waals Surface) (Alpha=1.100).
 Cavity algorithm     : GePol (No added spheres)
                        Default sphere list used, NSphG=   28.
                        Lebedev-Laikov grids with approx.  5.0 points / Ang**2.
                        Smoothing algorithm: Karplus/York (Gamma=1.0000).
                        Polarization charges: spherical gaussians, with
                                              point-specific exponents (IZeta= 3).
                        Self-potential: point-specific (ISelfS= 7).
                        Self-field    : sphere-specific E.n sum rule (ISelfD= 2).
 1st derivatives      : Analytical E(r).r(x)/FMM algorithm (CHGder, D1EAlg=3).
                        Cavity 1st derivative terms included.
 Solvent              : Toluene, Eps=   2.374100 Eps(inf)=   2.238315
 ------------------------------------------------------------------------------
 One-electron integrals computed using PRISM.
   1 Symmetry operations used in ECPInt.
 ECPInt:  NShTT=    7260 NPrTT=   25404 LenC2=    6501 LenP2D=   16595.
 LDataN:  DoStor=T MaxTD1= 4 Len=   56
 NBasis=   248 RedAO= T EigKep=  1.15D-03  NBF=   248
 NBsUse=   248 1.00D-06 EigRej= -1.00D+00 NBFU=   248
 ExpMin= 1.22D-01 ExpMax= 2.27D+03 ExpMxC= 3.41D+02 IAcc=1 IRadAn=         1 AccDes= 0.00D+00
 Harris functional with IExCor= 1009 and IRadAn=       1 diagonalized for initial guess.
 HarFok:  IExCor= 1009 AccDes= 0.00D+00 IRadAn=         1 IDoV= 1 UseB2=F ITyADJ=14
 ICtDFT=  3500011 ScaDFX=  1.000000  1.000000  1.000000  1.000000
 FoFCou: FMM=F IPFlag=           0 FMFlag=      100000 FMFlg1=           0
         NFxFlg=           0 DoJE=T BraDBF=F KetDBF=T FulRan=T
         wScrn=  0.000000 ICntrl=     500 IOpCl=  0 I1Cent=   200000004 NGrid=           0
         NMat0=    1 NMatS0=      1 NMatT0=    0 NMatD0=    1 NMtDS0=    0 NMtDT0=    0
 Petite list used in FoFCou.
 Requested convergence on RMS density matrix=1.00D-08 within 128 cycles.
 Requested convergence on MAX density matrix=1.00D-06.
 Requested convergence on             energy=1.00D-06.
 No special actions if energy rises.
 Inv3:  Mode=1 IEnd=    15363507.
 Iteration    1 A*A^-1 deviation from unit magnitude is 5.44D-15 for   2261.
 Iteration    1 A*A^-1 deviation from orthogonality  is 3.75D-15 for   2253   1939.
 Iteration    1 A^-1*A deviation from unit magnitude is 5.55D-15 for   2228.
 Iteration    1 A^-1*A deviation from orthogonality  is 3.12D-15 for   2244   1760.
 Error on total polarization charges =  0.00542
 SCF Done:  E(RM062X) =  -614.621088044     A.U. after   13 cycles
            NFock= 13  Conv=0.37D-08     -V/T= 2.0094

 **********************************************************************

            Population analysis using the SCF density.

 **********************************************************************

 Orbital symmetries:
       Occupied  (A) (A) (A) (A) (A) (A) (A) (A) (A) (A) (A) (A)
                 (A) (A) (A) (A) (A) (A) (A) (A) (A) (A) (A) (A)
                 (A) (A) (A) (A) (A) (A) (A) (A) (A) (A) (A) (A)
                 (A) (A) (A) (A) (A) (A) (A) (A) (A) (A) (A) (A)
       Virtual   (A) (A) (A) (A) (A) (A) (A) (A) (A) (A) (A) (A)
                 (A) (A) (A) (A) (A) (A) (A) (A) (A) (A) (A) (A)
                 (A) (A) (A) (A) (A) (A) (A) (A) (A) (A) (A) (A)
                 (A) (A) (A) (A) (A) (A) (A) (A) (A) (A) (A) (A)
                 (A) (A) (A) (A) (A) (A) (A) (A) (A) (A) (A) (A)
                 (A) (A) (A) (A) (A) (A) (A) (A) (A) (A) (A) (A)
                 (A) (A) (A) (A) (A) (A) (A) (A) (A) (A) (A) (A)
                 (A) (A) (A) (A) (A) (A) (A) (A) (A) (A) (A) (A)
                 (A) (A) (A) (A) (A) (A) (A) (A) (A) (A) (A) (A)
                 (A) (A) (A) (A) (A) (A) (A) (A) (A) (A) (A) (A)
                 (A) (A) (A) (A) (A) (A) (A) (A) (A) (A) (A) (A)
                 (A) (A) (A) (A) (A) (A) (A) (A) (A) (A) (A) (A)
                 (A) (A) (A) (A) (A) (A) (A) (A) (A) (A) (A) (A)
                 (A) (A) (A) (A) (A) (A) (A) (A) (A) (A) (A) (A)
                 (A) (A) (A) (A) (A) (A) (A) (A) (A) (A) (A) (A)
                 (A) (A) (A) (A) (A) (A) (A) (A) (A) (A) (A) (A)
                 (A) (A) (A) (A) (A) (A) (A) (A)
 The electronic state is 1-A.
 Alpha  occ. eigenvalues --  -19.69664 -19.64632 -19.60708 -19.59937 -10.71389
 Alpha  occ. eigenvalues --  -10.63537 -10.57541 -10.56456 -10.55858 -10.55734
 Alpha  occ. eigenvalues --  -10.55305 -10.55079  -1.24597  -1.15279  -1.08698
 Alpha  occ. eigenvalues --   -1.07919  -0.91518  -0.87791  -0.85171  -0.81695
 Alpha  occ. eigenvalues --   -0.74825  -0.69546  -0.65372  -0.60891  -0.59954
 Alpha  occ. eigenvalues --   -0.59783  -0.58631  -0.57138  -0.56086  -0.54160
 Alpha  occ. eigenvalues --   -0.51998  -0.51672  -0.48919  -0.48051  -0.47648
 Alpha  occ. eigenvalues --   -0.47096  -0.45815  -0.44978  -0.44598  -0.43281
 Alpha  occ. eigenvalues --   -0.41686  -0.40716  -0.39294  -0.37717  -0.36962
 Alpha  occ. eigenvalues --   -0.36425  -0.36046  -0.28100
 Alpha virt. eigenvalues --    0.00750   0.03391   0.08123   0.10272   0.11210
 Alpha virt. eigenvalues --    0.11819   0.12316   0.13170   0.13470   0.15093
 Alpha virt. eigenvalues --    0.16744   0.17169   0.17673   0.18936   0.19832
 Alpha virt. eigenvalues --    0.19964   0.22030   0.22116   0.22992   0.24871
 Alpha virt. eigenvalues --    0.25983   0.28892   0.30436   0.33080   0.36991
 Alpha virt. eigenvalues --    0.37790   0.39781   0.41435   0.43332   0.45310
 Alpha virt. eigenvalues --    0.46380   0.47099   0.47940   0.49157   0.50713
 Alpha virt. eigenvalues --    0.51943   0.54697   0.55735   0.56170   0.58485
 Alpha virt. eigenvalues --    0.59626   0.61061   0.61475   0.63302   0.63964
 Alpha virt. eigenvalues --    0.64731   0.65840   0.66764   0.67739   0.67993
 Alpha virt. eigenvalues --    0.68288   0.69452   0.70186   0.70722   0.71209
 Alpha virt. eigenvalues --    0.71401   0.72986   0.73286   0.73502   0.73889
 Alpha virt. eigenvalues --    0.74334   0.75061   0.76106   0.76209   0.76365
 Alpha virt. eigenvalues --    0.77828   0.81243   0.83272   0.88167   0.90542
 Alpha virt. eigenvalues --    0.91441   0.95937   0.97870   1.00380   1.01439
 Alpha virt. eigenvalues --    1.04422   1.06121   1.07596   1.09776   1.10153
 Alpha virt. eigenvalues --    1.12031   1.13903   1.14183   1.16298   1.21302
 Alpha virt. eigenvalues --    1.21684   1.25510   1.25909   1.29015   1.31116
 Alpha virt. eigenvalues --    1.32145   1.33441   1.33885   1.35700   1.36846
 Alpha virt. eigenvalues --    1.39696   1.42889   1.45623   1.46641   1.48684
 Alpha virt. eigenvalues --    1.50490   1.53009   1.54838   1.57062   1.58183
 Alpha virt. eigenvalues --    1.58913   1.59798   1.60689   1.60962   1.62396
 Alpha virt. eigenvalues --    1.63785   1.64763   1.70887   1.72278   1.74229
 Alpha virt. eigenvalues --    1.75225   1.76485   1.77757   1.79765   1.81213
 Alpha virt. eigenvalues --    1.81910   1.82778   1.83569   1.84091   1.84755
 Alpha virt. eigenvalues --    1.85626   1.86459   1.87159   1.87884   1.89480
 Alpha virt. eigenvalues --    1.91002   1.91541   1.93612   1.95249   1.95688
 Alpha virt. eigenvalues --    1.99421   1.99602   2.05248   2.07768   2.08628
 Alpha virt. eigenvalues --    2.09803   2.11677   2.14205   2.16835   2.19786
 Alpha virt. eigenvalues --    2.21603   2.27565   2.29322   2.29965   2.30237
 Alpha virt. eigenvalues --    2.31605   2.32507   2.34082   2.34870   2.38807
 Alpha virt. eigenvalues --    2.39752   2.45426   2.46585   2.47098   2.48325
 Alpha virt. eigenvalues --    2.52891   2.53912   2.55004   2.57901   2.62548
 Alpha virt. eigenvalues --    2.67287   2.69088   2.71149   2.72395   2.75691
 Alpha virt. eigenvalues --    2.77032   2.80814   2.84506   2.85942   2.89082
 Alpha virt. eigenvalues --    2.90697   2.91595   2.93458   2.95021   2.99474
 Alpha virt. eigenvalues --    3.03263   3.04966   3.06110   3.07580   3.07901
 Alpha virt. eigenvalues --    3.09813   3.12216   3.16723   3.20983   3.24653
 Alpha virt. eigenvalues --    3.25667   3.27539   3.37472   3.47250   3.56069
 Alpha virt. eigenvalues --    3.57341   3.67295   3.70910   3.88170   3.90599
          Condensed to atoms (all electrons):
               1          2          3          4          5          6
     1  C    4.861516   0.410642   0.330870  -0.040627   0.630833  -0.032830
     2  H    0.410642   0.644759  -0.041630  -0.009554  -0.050183   0.008557
     3  C    0.330870  -0.041630   4.934105   0.327844  -0.044362  -0.021304
     4  H   -0.040627  -0.009554   0.327844   0.702737   0.010090  -0.000024
     5  C    0.630833  -0.050183  -0.044362   0.010090   4.884496   0.399213
     6  H   -0.032830   0.008557  -0.021304  -0.000024   0.399213   0.644204
     7  C   -0.053617  -0.014643   0.010235  -0.000279   0.388848  -0.045041
     8  H    0.001452   0.000274  -0.000525   0.000012  -0.019762  -0.003503
     9  H   -0.012333   0.007049   0.000564   0.000013  -0.025391   0.006580
    10  H    0.001068   0.000160  -0.000185   0.000002  -0.018662  -0.003265
    11  C   -0.048543   0.010183   0.601637  -0.044020  -0.022475   0.009373
    12  H   -0.019415   0.000082  -0.019104   0.007623   0.008714   0.002291
    13  C    0.010681  -0.000260  -0.059737  -0.027516   0.000167  -0.000101
    14  H   -0.000239   0.000015   0.001642   0.000196   0.000064   0.000025
    15  H    0.000110  -0.000002   0.000622   0.000791  -0.000070  -0.000030
    16  C    0.000000   0.000000  -0.001238   0.001441   0.000000   0.000000
    17  C    0.000003   0.000000   0.000025   0.000173   0.000000   0.000000
    18  H    0.000000   0.000000  -0.000003  -0.000008   0.000000   0.000000
    19  H    0.000000   0.000000   0.000003  -0.000003   0.000000   0.000000
    20  H    0.000000   0.000000  -0.000011   0.000000   0.000000   0.000000
    21  O    0.000511  -0.000004   0.012463   0.003130  -0.000004  -0.000001
    22  O   -0.000001   0.000000  -0.000142  -0.000225   0.000000   0.000000
    23  O    0.000000   0.000000   0.000000   0.000000   0.000000   0.000000
    24  H    0.000000   0.000000   0.000000   0.000000   0.000000   0.000000
    25  H    0.000000   0.000000   0.000000   0.000000   0.000000   0.000000
    26  O    0.000038  -0.000081  -0.020739   0.067772   0.000004   0.000000
    27  H    0.000061   0.000063   0.007329  -0.011672  -0.000018   0.000003
    28  H    0.000014   0.000003   0.001315  -0.003355   0.000000   0.000000
               7          8          9         10         11         12
     1  C   -0.053617   0.001452  -0.012333   0.001068  -0.048543  -0.019415
     2  H   -0.014643   0.000274   0.007049   0.000160   0.010183   0.000082
     3  C    0.010235  -0.000525   0.000564  -0.000185   0.601637  -0.019104
     4  H   -0.000279   0.000012   0.000013   0.000002  -0.044020   0.007623
     5  C    0.388848  -0.019762  -0.025391  -0.018662  -0.022475   0.008714
     6  H   -0.045041  -0.003503   0.006580  -0.003265   0.009373   0.002291
     7  C    4.575701   0.386952   0.401108   0.384573   0.000273  -0.000166
     8  H    0.386952   0.620686  -0.021804  -0.022838   0.000070   0.000028
     9  H    0.401108  -0.021804   0.616749  -0.021437   0.000006   0.000005
    10  H    0.384573  -0.022838  -0.021437   0.620852  -0.000039  -0.000043
    11  C    0.000273   0.000070   0.000006  -0.000039   5.063991   0.393165
    12  H   -0.000166   0.000028   0.000005  -0.000043   0.393165   0.615911
    13  C    0.000004   0.000001   0.000001  -0.000003   0.322228  -0.037093
    14  H    0.000001   0.000000   0.000000   0.000000  -0.033819  -0.001625
    15  H   -0.000002   0.000000   0.000000   0.000000  -0.024374  -0.001428
    16  C    0.000000   0.000000   0.000000   0.000000   0.008015   0.000030
    17  C    0.000000   0.000000   0.000000   0.000000  -0.000805   0.000001
    18  H    0.000000   0.000000   0.000000   0.000000   0.000156   0.000001
    19  H    0.000000   0.000000   0.000000   0.000000  -0.000032   0.000000
    20  H    0.000000   0.000000   0.000000   0.000000   0.000930  -0.000005
    21  O    0.000000   0.000000   0.000000   0.000000  -0.071396   0.002388
    22  O    0.000000   0.000000   0.000000   0.000000   0.000228   0.000004
    23  O    0.000000   0.000000   0.000000   0.000000   0.000000   0.000000
    24  H    0.000000   0.000000   0.000000   0.000000   0.000002   0.000000
    25  H    0.000000   0.000000   0.000000   0.000000   0.000000   0.000000
    26  O    0.000000   0.000000   0.000000   0.000000  -0.000124  -0.000004
    27  H    0.000001   0.000000   0.000000   0.000000  -0.000555  -0.000003
    28  H    0.000000   0.000000   0.000000   0.000000  -0.000289   0.000006
              13         14         15         16         17         18
     1  C    0.010681  -0.000239   0.000110   0.000000   0.000003   0.000000
     2  H   -0.000260   0.000015  -0.000002   0.000000   0.000000   0.000000
     3  C   -0.059737   0.001642   0.000622  -0.001238   0.000025  -0.000003
     4  H   -0.027516   0.000196   0.000791   0.001441   0.000173  -0.000008
     5  C    0.000167   0.000064  -0.000070   0.000000   0.000000   0.000000
     6  H   -0.000101   0.000025  -0.000030   0.000000   0.000000   0.000000
     7  C    0.000004   0.000001  -0.000002   0.000000   0.000000   0.000000
     8  H    0.000001   0.000000   0.000000   0.000000   0.000000   0.000000
     9  H    0.000001   0.000000   0.000000   0.000000   0.000000   0.000000
    10  H   -0.000003   0.000000   0.000000   0.000000   0.000000   0.000000
    11  C    0.322228  -0.033819  -0.024374   0.008015  -0.000805   0.000156
    12  H   -0.037093  -0.001625  -0.001428   0.000030   0.000001   0.000001
    13  C    4.541576   0.399463   0.391338  -0.043089   0.007983  -0.002808
    14  H    0.399463   0.632281  -0.035329  -0.013887   0.013488   0.000335
    15  H    0.391338  -0.035329   0.626704  -0.004649   0.000482  -0.000346
    16  C   -0.043089  -0.013887  -0.004649   4.518177   0.373808  -0.006257
    17  C    0.007983   0.013488   0.000482   0.373808   4.837316   0.372937
    18  H   -0.002808   0.000335  -0.000346  -0.006257   0.372937   0.553724
    19  H    0.000732   0.000025  -0.000042  -0.000692   0.315409  -0.006489
    20  H    0.003216  -0.003047   0.001064  -0.007912   0.369860  -0.012817
    21  O    0.288328  -0.026388  -0.027508   0.342857  -0.097319   0.001638
    22  O    0.001360  -0.000004   0.000033   0.598725  -0.076882   0.000868
    23  O    0.000001   0.000000   0.000000   0.001765  -0.022968   0.000054
    24  H   -0.000018  -0.000004   0.000004  -0.004247   0.003059   0.000141
    25  H    0.000000   0.000000   0.000000   0.000116   0.001343  -0.000094
    26  O   -0.000008  -0.000010   0.000000   0.002406   0.000014   0.000002
    27  H    0.000412   0.000058  -0.000112   0.001638   0.000114  -0.000001
    28  H    0.000107  -0.000003   0.000026  -0.001470   0.001374  -0.000078
              19         20         21         22         23         24
     1  C    0.000000   0.000000   0.000511  -0.000001   0.000000   0.000000
     2  H    0.000000   0.000000  -0.000004   0.000000   0.000000   0.000000
     3  C    0.000003  -0.000011   0.012463  -0.000142   0.000000   0.000000
     4  H   -0.000003   0.000000   0.003130  -0.000225   0.000000   0.000000
     5  C    0.000000   0.000000  -0.000004   0.000000   0.000000   0.000000
     6  H    0.000000   0.000000  -0.000001   0.000000   0.000000   0.000000
     7  C    0.000000   0.000000   0.000000   0.000000   0.000000   0.000000
     8  H    0.000000   0.000000   0.000000   0.000000   0.000000   0.000000
     9  H    0.000000   0.000000   0.000000   0.000000   0.000000   0.000000
    10  H    0.000000   0.000000   0.000000   0.000000   0.000000   0.000000
    11  C   -0.000032   0.000930  -0.071396   0.000228   0.000000   0.000002
    12  H    0.000000  -0.000005   0.002388   0.000004   0.000000   0.000000
    13  C    0.000732   0.003216   0.288328   0.001360   0.000001  -0.000018
    14  H    0.000025  -0.003047  -0.026388  -0.000004   0.000000  -0.000004
    15  H   -0.000042   0.001064  -0.027508   0.000033   0.000000   0.000004
    16  C   -0.000692  -0.007912   0.342857   0.598725   0.001765  -0.004247
    17  C    0.315409   0.369860  -0.097319  -0.076882  -0.022968   0.003059
    18  H   -0.006489  -0.012817   0.001638   0.000868   0.000054   0.000141
    19  H    0.585071  -0.010370   0.003374  -0.002628   0.065000  -0.012448
    20  H   -0.010370   0.568302   0.000157   0.001537   0.000132   0.000029
    21  O    0.003374   0.000157   7.986056  -0.088966  -0.000002   0.000408
    22  O   -0.002628   0.001537  -0.088966   7.835960  -0.011510   0.038302
    23  O    0.065000   0.000132  -0.000002  -0.011510   7.654545   0.336458
    24  H   -0.012448   0.000029   0.000408   0.038302   0.336458   0.480312
    25  H   -0.002070   0.000028   0.000002   0.000677   0.330977  -0.027683
    26  O    0.000000   0.000001  -0.001955  -0.009545   0.000000   0.000001
    27  H   -0.000001  -0.000008   0.003019   0.000551   0.000000  -0.000007
    28  H   -0.000020  -0.000050  -0.000138   0.035580   0.000000   0.000064
              25         26         27         28
     1  C    0.000000   0.000038   0.000061   0.000014
     2  H    0.000000  -0.000081   0.000063   0.000003
     3  C    0.000000  -0.020739   0.007329   0.001315
     4  H    0.000000   0.067772  -0.011672  -0.003355
     5  C    0.000000   0.000004  -0.000018   0.000000
     6  H    0.000000   0.000000   0.000003   0.000000
     7  C    0.000000   0.000000   0.000001   0.000000
     8  H    0.000000   0.000000   0.000000   0.000000
     9  H    0.000000   0.000000   0.000000   0.000000
    10  H    0.000000   0.000000   0.000000   0.000000
    11  C    0.000000  -0.000124  -0.000555  -0.000289
    12  H    0.000000  -0.000004  -0.000003   0.000006
    13  C    0.000000  -0.000008   0.000412   0.000107
    14  H    0.000000  -0.000010   0.000058  -0.000003
    15  H    0.000000   0.000000  -0.000112   0.000026
    16  C    0.000116   0.002406   0.001638  -0.001470
    17  C    0.001343   0.000014   0.000114   0.001374
    18  H   -0.000094   0.000002  -0.000001  -0.000078
    19  H   -0.002070   0.000000  -0.000001  -0.000020
    20  H    0.000028   0.000001  -0.000008  -0.000050
    21  O    0.000002  -0.001955   0.003019  -0.000138
    22  O    0.000677  -0.009545   0.000551   0.035580
    23  O    0.330977   0.000000   0.000000   0.000000
    24  H   -0.027683   0.000001  -0.000007   0.000064
    25  H    0.518390   0.000000   0.000000  -0.000005
    26  O    0.000000   7.629398   0.327124   0.350886
    27  H    0.000000   0.327124   0.529378  -0.034526
    28  H   -0.000005   0.350886  -0.034526   0.471285
 Mulliken charges:
               1
     1  C   -0.040194
     2  H    0.034570
     3  C   -0.019673
     4  H    0.015460
     5  C   -0.141503
     6  H    0.035853
     7  C   -0.033950
     8  H    0.058956
     9  H    0.048888
    10  H    0.059817
    11  C   -0.163787
    12  H    0.048634
    13  C    0.203034
    14  H    0.066762
    15  H    0.072717
    16  C    0.234467
    17  C   -0.099416
    18  H    0.099046
    19  H    0.065182
    20  H    0.088964
    21  O   -0.330648
    22  O   -0.323920
    23  O   -0.354451
    24  H    0.185628
    25  H    0.178319
    26  O   -0.345179
    27  H    0.177152
    28  H    0.179275
 Sum of Mulliken charges =   0.00000
 Mulliken charges with hydrogens summed into heavy atoms:
               1
     1  C   -0.005624
     3  C   -0.004213
     5  C   -0.105650
     7  C    0.133711
    11  C   -0.115153
    13  C    0.342512
    16  C    0.234467
    17  C    0.153775
    21  O   -0.330648
    22  O   -0.323920
    23  O    0.009496
    26  O    0.011248
 Electronic spatial extent (au):  <R**2>=           4383.6818
 Charge=              0.0000 electrons
 Dipole moment (field-independent basis, Debye):
    X=             -2.2202    Y=             -6.1784    Z=             -0.5272  Tot=              6.5864
 Quadrupole moment (field-independent basis, Debye-Ang):
   XX=            -80.7322   YY=            -76.9470   ZZ=            -70.8485
   XY=             -4.9215   XZ=            -10.3639   YZ=             -0.4555
 Traceless Quadrupole moment (field-independent basis, Debye-Ang):
   XX=             -4.5563   YY=             -0.7711   ZZ=              5.3274
   XY=             -4.9215   XZ=            -10.3639   YZ=             -0.4555
 Octapole moment (field-independent basis, Debye-Ang**2):
  XXX=           -100.1200  YYY=            -33.8181  ZZZ=              2.5819  XYY=             13.6821
  XXY=             -5.7129  XXZ=            -54.5140  XZZ=             29.7070  YZZ=              6.5032
  YYZ=              2.7287  XYZ=              0.8355
 Hexadecapole moment (field-independent basis, Debye-Ang**3):
 XXXX=          -5146.2317 YYYY=           -782.1699 ZZZZ=           -108.7094 XXXY=             19.1904
 XXXZ=           -359.0017 YYYX=              2.3060 YYYZ=              2.1399 ZZZX=            -19.7792
 ZZZY=              2.9887 XXYY=           -889.1881 XXZZ=           -768.5216 YYZZ=           -119.8502
 XXYZ=            -37.3832 YYXZ=             -3.4444 ZZXY=              2.8205
 N-N= 6.942528299272D+02 E-N=-2.823239386682D+03  KE= 6.089246077712D+02
   1 Symmetry operations used in ECPInt.
 ECPInt:  NShTT=    7260 NPrTT=   25404 LenC2=    6501 LenP2D=   16595.
 LDataN:  DoStor=T MaxTD1= 5 Len=  102
 D1PCM: C-PCM CHGder 1st derivatives, ID1Alg=3 FixD1E=F DoIter=F DoCFld=F I1PDM=0.
 Calling FoFJK, ICntrl=      2127 FMM=F ISym2X=0 I1Cent= 0 IOpClX= 0 NMat=1 NMatS=1 NMatT=0.
 ***** Axes restored to original set *****
 -------------------------------------------------------------------
 Center     Atomic                   Forces (Hartrees/Bohr)
 Number     Number              X              Y              Z
 -------------------------------------------------------------------
      1        6          -0.000010673   -0.000009087   -0.000003816
      2        1           0.000021652    0.000001483   -0.000007964
      3        6           0.000004876   -0.000010644   -0.000001904
      4        1          -0.000008806    0.000008471   -0.000006813
      5        6           0.000021384    0.000002633    0.000004386
      6        1           0.000011956   -0.000003322    0.000014678
      7        6          -0.000000720   -0.000001836    0.000006445
      8        1           0.000004347   -0.000005313    0.000005456
      9        1           0.000002822   -0.000008115   -0.000000092
     10        1           0.000002873   -0.000012740    0.000008544
     11        6          -0.000022493   -0.000016143    0.000004909
     12        1           0.000005459   -0.000003292    0.000012553
     13        6           0.000008448   -0.000012779    0.000008195
     14        1          -0.000007891    0.000000529    0.000008360
     15        1          -0.000005772    0.000011932    0.000012126
     16        6           0.000007789    0.000004876    0.000001155
     17        6          -0.000006806   -0.000001760    0.000010587
     18        1          -0.000008967   -0.000005718    0.000000019
     19        1           0.000005828    0.000008331   -0.000003178
     20        1          -0.000005467    0.000006273    0.000006303
     21        8          -0.000013781    0.000005070   -0.000005005
     22        8          -0.000002826    0.000015079   -0.000002863
     23        8          -0.000010921    0.000021783   -0.000008461
     24        1          -0.000002195    0.000002487   -0.000008756
     25        1          -0.000000225    0.000003002   -0.000010212
     26        8           0.000015579    0.000003942   -0.000015585
     27        1          -0.000001721    0.000004991   -0.000010144
     28        1          -0.000003750   -0.000010134   -0.000018923
 -------------------------------------------------------------------
 Cartesian Forces:  Max     0.000022493 RMS     0.000009233

 GradGradGradGradGradGradGradGradGradGradGradGradGradGradGradGradGradGrad
 Berny optimization.
 FormGI is forming the generalized inverse of G from B-inverse, IUseBI=4.
 Internal  Forces:  Max     0.000062638 RMS     0.000017311
 Search for a local minimum.
 Step number   1 out of a maximum of  123
 All quantities printed in internal units (Hartrees-Bohrs-Radians)
 Mixed Optimization -- En-DIIS/RFO-DIIS
 Second derivative matrix not updated -- first step.
 ITU=  0
     Eigenvalues ---    0.00230   0.00230   0.00737   0.00812   0.00814
     Eigenvalues ---    0.01144   0.01406   0.01414   0.01424   0.01520
     Eigenvalues ---    0.01657   0.01703   0.02034   0.02035   0.02173
     Eigenvalues ---    0.02621   0.02883   0.02900   0.04184   0.04317
     Eigenvalues ---    0.04766   0.06461   0.07170   0.07317   0.07404
     Eigenvalues ---    0.07461   0.07628   0.11417   0.13922   0.15938
     Eigenvalues ---    0.15987   0.15997   0.15998   0.15999   0.16000
     Eigenvalues ---    0.16000   0.16000   0.16000   0.16000   0.16000
     Eigenvalues ---    0.16000   0.16000   0.16000   0.22000   0.22000
     Eigenvalues ---    0.22001   0.22001   0.22019   0.25000   0.25000
     Eigenvalues ---    0.25000   0.25000   0.25000   0.32145   0.32743
     Eigenvalues ---    0.32759   0.33299   0.33456   0.33525   0.33585
     Eigenvalues ---    0.33736   0.33860   0.33894   0.34034   0.34142
     Eigenvalues ---    0.34229   0.34252   0.34270   0.35572   0.42221
     Eigenvalues ---    0.53205   0.53359   0.54611   0.54623   0.57214
     Eigenvalues ---    0.57498   0.59571   0.99208
 RFO step:  Lambda=-2.24329643D-07 EMin= 2.30000000D-03
 Linear search not attempted -- first point.
 Iteration  1 RMS(Cart)=  0.00136084 RMS(Int)=  0.00000048
 Iteration  2 RMS(Cart)=  0.00000079 RMS(Int)=  0.00000001
 Variable       Old X    -DE/DX   Delta X   Delta X   Delta X     New X
                                 (Linear)    (Quad)   (Total)
    R1        2.07091   0.00000   0.00000   0.00001   0.00001   2.07092
    R2        2.78056  -0.00005   0.00000  -0.00015  -0.00015   2.78040
    R3        2.53216  -0.00003   0.00000  -0.00005  -0.00005   2.53211
    R4        2.06945   0.00000   0.00000   0.00001   0.00001   2.06946
    R5        2.52977  -0.00002   0.00000  -0.00003  -0.00003   2.52974
    R6        2.07273   0.00001   0.00000   0.00003   0.00003   2.07276
    R7        2.82804  -0.00001   0.00000  -0.00004  -0.00004   2.82801
    R8        2.08037   0.00000   0.00000   0.00000   0.00000   2.08036
    R9        2.07567   0.00000   0.00000   0.00000   0.00000   2.07567
   R10        2.08139   0.00000   0.00000   0.00001   0.00001   2.08140
   R11        2.06877   0.00000   0.00000   0.00000   0.00000   2.06877
   R12        2.82777  -0.00004   0.00000  -0.00011  -0.00011   2.82766
   R13        2.08259   0.00000   0.00000  -0.00001  -0.00001   2.08257
   R14        2.08530   0.00000   0.00000   0.00000   0.00000   2.08530
   R15        2.68643   0.00000   0.00000   0.00001   0.00001   2.68643
   R16        2.83879  -0.00001   0.00000  -0.00002  -0.00002   2.83877
   R17        2.51281  -0.00001   0.00000  -0.00002  -0.00002   2.51280
   R18        2.28957   0.00002   0.00000   0.00002   0.00002   2.28959
   R19        2.07778   0.00001   0.00000   0.00003   0.00003   2.07781
   R20        2.06908   0.00001   0.00000   0.00002   0.00002   2.06909
   R21        2.07510   0.00000   0.00000   0.00001   0.00001   2.07510
   R22        3.66551  -0.00001   0.00000  -0.00024  -0.00024   3.66527
   R23        3.77676  -0.00002   0.00000  -0.00043  -0.00043   3.77633
   R24        1.83463  -0.00002   0.00000  -0.00003  -0.00003   1.83460
   R25        1.82168   0.00000   0.00000   0.00000   0.00000   1.82168
   R26        1.82180   0.00000   0.00000   0.00001   0.00001   1.82180
   R27        1.83320  -0.00001   0.00000  -0.00002  -0.00002   1.83318
    A1        2.02582   0.00000   0.00000  -0.00004  -0.00004   2.02578
    A2        2.06878   0.00006   0.00000   0.00029   0.00029   2.06907
    A3        2.18828  -0.00006   0.00000  -0.00026  -0.00026   2.18802
    A4        2.04141  -0.00001   0.00000  -0.00005  -0.00005   2.04136
    A5        2.17202  -0.00001   0.00000  -0.00006  -0.00006   2.17196
    A6        2.06972   0.00002   0.00000   0.00011   0.00011   2.06983
    A7        2.06854  -0.00002   0.00000  -0.00008  -0.00008   2.06846
    A8        2.17784   0.00001   0.00000   0.00006   0.00006   2.17790
    A9        2.03672   0.00000   0.00000   0.00002   0.00002   2.03674
   A10        1.93941   0.00000   0.00000  -0.00003  -0.00003   1.93938
   A11        1.94284   0.00000   0.00000  -0.00002  -0.00002   1.94283
   A12        1.93461  -0.00001   0.00000  -0.00004  -0.00004   1.93457
   A13        1.89454   0.00001   0.00000   0.00005   0.00005   1.89459
   A14        1.86024   0.00000   0.00000   0.00001   0.00001   1.86025
   A15        1.88943   0.00001   0.00000   0.00003   0.00003   1.88946
   A16        2.10430   0.00004   0.00000   0.00017   0.00017   2.10447
   A17        2.17714  -0.00006   0.00000  -0.00028  -0.00028   2.17686
   A18        2.00155   0.00003   0.00000   0.00012   0.00012   2.00167
   A19        1.92019   0.00001   0.00000   0.00000   0.00000   1.92019
   A20        1.92767   0.00001   0.00000   0.00000   0.00000   1.92767
   A21        1.90377  -0.00006   0.00000  -0.00031  -0.00031   1.90346
   A22        1.87544   0.00000   0.00000   0.00012   0.00012   1.87556
   A23        1.92455   0.00003   0.00000   0.00016   0.00016   1.92471
   A24        1.91219   0.00002   0.00000   0.00004   0.00004   1.91222
   A25        2.07791  -0.00003   0.00000  -0.00012  -0.00012   2.07779
   A26        2.15314   0.00004   0.00000   0.00016   0.00016   2.15330
   A27        2.05213  -0.00001   0.00000  -0.00004  -0.00004   2.05208
   A28        1.91625  -0.00001   0.00000  -0.00007  -0.00007   1.91618
   A29        1.88148   0.00000   0.00000   0.00002   0.00002   1.88150
   A30        1.93457   0.00000   0.00000  -0.00003  -0.00003   1.93454
   A31        1.91820   0.00000   0.00000   0.00003   0.00003   1.91823
   A32        1.88329   0.00000   0.00000  -0.00003  -0.00003   1.88326
   A33        1.93030   0.00001   0.00000   0.00008   0.00008   1.93038
   A34        2.14344   0.00002   0.00000   0.00008   0.00008   2.14352
   A35        1.99240   0.00004   0.00000   0.00024   0.00024   1.99264
   A36        1.84932   0.00000   0.00000  -0.00001  -0.00001   1.84931
   A37        2.43757  -0.00004   0.00000  -0.00023  -0.00023   2.43734
   A38        1.79999   0.00000   0.00000   0.00000   0.00000   1.80000
   A39        2.78736   0.00002   0.00000   0.00009   0.00009   2.78745
   A40        1.77520   0.00000   0.00000   0.00000   0.00000   1.77520
   A41        2.85503   0.00001   0.00000   0.00002   0.00002   2.85505
    D1        0.49464   0.00000   0.00000   0.00013   0.00013   0.49478
    D2       -2.63877   0.00000   0.00000  -0.00013  -0.00013  -2.63890
    D3       -2.61968   0.00001   0.00000   0.00033   0.00033  -2.61935
    D4        0.53009   0.00000   0.00000   0.00007   0.00007   0.53016
    D5       -3.07946   0.00000   0.00000   0.00012   0.00012  -3.07933
    D6        0.04706   0.00000   0.00000   0.00014   0.00014   0.04720
    D7        0.03426   0.00000   0.00000  -0.00008  -0.00008   0.03417
    D8       -3.12241   0.00000   0.00000  -0.00006  -0.00006  -3.12248
    D9        0.04393   0.00001   0.00000   0.00032   0.00032   0.04424
   D10       -3.11986   0.00001   0.00000   0.00041   0.00041  -3.11946
   D11       -3.08936   0.00000   0.00000   0.00005   0.00005  -3.08931
   D12        0.03003   0.00000   0.00000   0.00014   0.00014   0.03017
   D13       -2.12603   0.00000   0.00000  -0.00018  -0.00018  -2.12621
   D14       -0.01213   0.00000   0.00000  -0.00015  -0.00015  -0.01229
   D15        2.09199   0.00000   0.00000  -0.00015  -0.00015   2.09184
   D16        1.00073   0.00000   0.00000  -0.00016  -0.00016   1.00057
   D17        3.11463   0.00000   0.00000  -0.00013  -0.00013   3.11450
   D18       -1.06443   0.00000   0.00000  -0.00013  -0.00013  -1.06456
   D19       -2.08324   0.00001   0.00000   0.00046   0.00046  -2.08278
   D20        2.13242  -0.00001   0.00000   0.00031   0.00031   2.13273
   D21        0.02989   0.00001   0.00000   0.00046   0.00046   0.03035
   D22        1.03732   0.00001   0.00000   0.00055   0.00055   1.03787
   D23       -1.03021   0.00000   0.00000   0.00039   0.00039  -1.02982
   D24       -3.13273   0.00001   0.00000   0.00055   0.00055  -3.13219
   D25       -2.91819   0.00001   0.00000   0.00043   0.00043  -2.91775
   D26       -0.80772  -0.00001   0.00000   0.00034   0.00034  -0.80738
   D27        1.25299   0.00002   0.00000   0.00060   0.00060   1.25360
   D28        1.15914  -0.00001   0.00000  -0.00028  -0.00028   1.15886
   D29       -3.03474   0.00000   0.00000  -0.00027  -0.00027  -3.03501
   D30       -0.91988   0.00000   0.00000  -0.00018  -0.00018  -0.92006
   D31       -1.97743   0.00000   0.00000  -0.00014  -0.00014  -1.97756
   D32        0.11188   0.00000   0.00000  -0.00013  -0.00013   0.11175
   D33        2.22673   0.00001   0.00000  -0.00003  -0.00003   2.22670
   D34       -0.02587   0.00001   0.00000   0.00050   0.00050  -0.02537
   D35        3.11099   0.00001   0.00000   0.00036   0.00036   3.11135
   D36       -0.14491   0.00000   0.00000  -0.00012  -0.00012  -0.14503
   D37        3.07243   0.00000   0.00000  -0.00008  -0.00008   3.07235
   D38        3.00164   0.00000   0.00000   0.00003   0.00003   3.00166
   D39       -0.06420   0.00000   0.00000   0.00006   0.00006  -0.06414
   D40        0.27154   0.00000   0.00000   0.00110   0.00110   0.27265
   D41       -2.98270   0.00000   0.00000   0.00108   0.00108  -2.98162
   D42        0.82540   0.00001   0.00000   0.00178   0.00178   0.82718
   D43       -2.20931   0.00000   0.00000   0.00179   0.00179  -2.20752
   D44        1.51542   0.00000   0.00000   0.00025   0.00025   1.51567
   D45        0.11457   0.00000   0.00000   0.00013   0.00013   0.11470
         Item               Value     Threshold  Converged?
 Maximum Force            0.000063     0.000450     YES
 RMS     Force            0.000017     0.000300     YES
 Maximum Displacement     0.005579     0.001800     NO 
 RMS     Displacement     0.001361     0.001200     NO 
 Predicted change in Energy=-1.121642D-07
 GradGradGradGradGradGradGradGradGradGradGradGradGradGradGradGradGradGrad

                          Input orientation:                          
 ---------------------------------------------------------------------
 Center     Atomic      Atomic             Coordinates (Angstroms)
 Number     Number       Type             X           Y           Z
 ---------------------------------------------------------------------
      1          6           0       -3.280763    0.443734   -0.374895
      2          1           0       -3.507719    1.324663   -0.985976
      3          6           0       -1.855453    0.111314   -0.223930
      4          1           0       -1.142960    0.940674   -0.285472
      5          6           0       -4.296398   -0.220468    0.193214
      6          1           0       -4.065397   -1.066038    0.852564
      7          6           0       -5.743522    0.115044    0.012026
      8          1           0       -6.225868    0.325897    0.978889
      9          1           0       -5.872058    0.989117   -0.640622
     10          1           0       -6.289280   -0.731561   -0.433567
     11          6           0       -1.383164   -1.125816   -0.027655
     12          1           0       -2.061795   -1.984653   -0.009694
     13          6           0        0.062303   -1.467573    0.153572
     14          1           0        0.391016   -2.152451   -0.644805
     15          1           0        0.218837   -1.982570    1.116883
     16          6           0        2.154407   -0.267434    0.009809
     17          6           0        2.884372   -1.578606   -0.058124
     18          1           0        2.624064   -2.101765   -0.989525
     19          1           0        3.958137   -1.365386   -0.037884
     20          1           0        2.603126   -2.226344    0.782799
     21          8           0        0.829545   -0.271178    0.123243
     22          8           0        2.710151    0.808103   -0.038579
     23          8           0        5.539535    0.329772    0.012016
     24          1           0        4.645326    0.706475    0.043519
     25          1           0        5.770298    0.391211   -0.921931
     26          8           0        0.457048    2.687789    0.170598
     27          1           0        0.146986    2.246006    0.969405
     28          1           0        1.255731    2.178521   -0.038686
 ---------------------------------------------------------------------
                    Distance matrix (angstroms):
                    1          2          3          4          5
     1  C    0.000000
     2  H    1.095885   0.000000
     3  C    1.471327   2.186987   0.000000
     4  H    2.196622   2.496045   1.095113   0.000000
     5  C    1.339936   2.097602   2.498460   3.394344   0.000000
     6  H    2.098028   3.067033   2.725592   3.723260   1.096856
     7  C    2.514543   2.730934   3.895224   4.683519   1.496517
     8  H    3.243494   3.499508   4.537989   5.273757   2.153753
     9  H    2.661364   2.412874   4.132467   4.742662   2.154316
    10  H    3.230470   3.502898   4.518098   5.413217   2.150732
    11  C    2.486955   3.381857   1.338683   2.096318   3.058655
    12  H    2.741591   3.741042   2.116968   3.078612   2.854290
    13  C    3.886960   4.673350   2.512604   2.728565   4.533775
    14  H    4.504996   5.235155   3.216891   3.471257   5.138744
    15  H    4.512156   5.408052   3.238026   3.516596   4.934118
    16  C    5.494982   5.965402   4.034484   3.524108   6.453583
    17  C    6.496083   7.081575   5.034806   4.755824   7.312399
    18  H    6.459437   7.024186   5.054694   4.893117   7.268491
    19  H    7.469147   7.992136   6.001090   5.603606   8.336762
    20  H    6.564277   7.285646   5.133915   5.020395   7.209341
    21  O    4.201651   4.752781   2.734235   2.350831   5.126671
    22  O    6.011400   6.310809   4.622187   3.863288   7.085438
    23  O    8.829515   9.156341   7.401975   6.716951   9.852978
    24  H    7.941473   8.241004   6.533443   5.802356   8.990888
    25  H    9.067729   9.325075   7.662742   6.964202  10.146727
    26  O    4.393697   4.349155   3.484471   2.412558   5.572587
    27  H    4.099364   4.246087   3.160810   2.223188   5.140975
    28  H    4.868501   4.931215   3.739937   2.710514   6.052691
                    6          7          8          9         10
     6  H    0.000000
     7  C    2.217558   0.000000
     8  H    2.573145   1.100881   0.000000
     9  H    3.117257   1.098396   1.785457   0.000000
    10  H    2.590688   1.101428   1.765580   1.782604   0.000000
    11  C    2.823603   4.533655   5.154840   4.999883   4.938641
    12  H    2.366804   4.238433   4.863685   4.874369   4.429620
    13  C    4.205678   6.019328   6.590809   6.471684   6.420985
    14  H    4.825145   6.573090   7.249947   7.006822   6.833001
    15  H    4.389140   6.416418   6.847063   7.001338   6.806211
    16  C    6.327240   7.907185   8.456959   8.150221   8.468048
    17  C    7.027900   8.792834   9.364774   9.143717   9.220322
    18  H    7.015335   8.714003   9.385600   9.047617   9.035168
    19  H    8.078342   9.814089  10.373438  10.126189  10.274622
    20  H    6.769075   8.703030   9.192580   9.175732   9.098836
    21  O    5.012401   6.585343   7.132143   6.861727   7.155393
    22  O    7.086226   8.482187   9.006675   8.605204   9.138728
    23  O    9.742152  11.285100  11.805064  11.449240  11.884689
    24  H    8.925977  10.405717  10.917995  10.543400  11.039075
    25  H   10.100163  11.554938  12.146002  11.661092  12.121573
    26  O    5.916824   6.715001   7.133949   6.603116   7.587484
    27  H    5.359800   6.336849   6.655837   6.356166   7.229091
    28  H    6.295705   7.297263   7.774445   7.251371   8.096400
                   11         12         13         14         15
    11  C    0.000000
    12  H    1.094744   0.000000
    13  C    1.496334   2.192218   0.000000
    14  H    2.140694   2.539253   1.102051   0.000000
    15  H    2.147185   2.543710   1.103492   1.778215   0.000000
    16  C    3.640416   4.552536   2.416175   2.662960   2.813137
    17  C    4.291598   4.963043   2.832176   2.624942   2.940903
    18  H    4.235039   4.788639   2.876021   2.260068   3.199419
    19  H    5.346681   6.051766   3.901874   3.702995   3.961915
    20  H    4.214085   4.737927   2.725334   2.633808   2.419892
    21  O    2.376817   3.363557   1.421598   2.078796   2.071026
    22  O    4.527184   5.529177   3.496674   3.809302   3.915303
    23  O    7.074183   7.945895   5.766329   5.753268   5.905716
    24  H    6.301194   7.227066   5.073726   5.171693   5.289318
    25  H    7.367029   8.235204   6.098606   5.956819   6.372623
    26  O    4.239017   5.311195   4.174104   4.908886   4.771211
    27  H    3.834667   4.871942   3.803080   4.691657   4.231757
    28  H    4.228774   5.323424   3.841254   4.457850   4.441303
                   16         17         18         19         20
    16  C    0.000000
    17  C    1.502211   0.000000
    18  H    2.141032   1.099529   0.000000
    19  H    2.112159   1.094917   1.796559   0.000000
    20  H    2.153182   1.098096   1.776821   1.803004   0.000000
    21  O    1.329715   2.442249   2.794567   3.318334   2.720897
    22  O    1.211600   2.393140   3.062523   2.506297   3.145471
    23  O    3.437405   3.270583   3.926248   2.318808   3.968669
    24  H    2.674755   2.886674   3.610941   2.184369   3.649458
    25  H    3.791651   3.599293   4.014758   2.674154   4.448446
    26  O    3.411777   4.913893   5.383463   5.359973   5.397142
    27  H    3.356775   4.814224   5.373680   5.346181   5.105816
    28  H    2.606274   4.094979   4.593178   4.456711   4.679012
                   21         22         23         24         25
    21  O    0.000000
    22  O    2.174331   0.000000
    23  O    4.749476   2.869977   0.000000
    24  H    3.939841   1.939580   0.970828   0.000000
    25  H    5.093348   3.212259   0.963993   1.515601   0.000000
    26  O    2.982696   2.941674   5.605092   4.635021   5.890544
    27  H    2.741913   3.106994   5.802424   4.843809   6.216032
    28  H    2.491762   1.998345   4.665985   3.696354   4.935171
                   26         27         28
    26  O    0.000000
    27  H    0.964056   0.000000
    28  H    0.970076   1.500039   0.000000
 Stoichiometry    C8H16O4
 Framework group  C1[X(C8H16O4)]
 Deg. of freedom    78
 Full point group                 C1      NOp   1
 Largest Abelian subgroup         C1      NOp   1
 Largest concise Abelian subgroup C1      NOp   1
                         Standard orientation:                         
 ---------------------------------------------------------------------
 Center     Atomic      Atomic             Coordinates (Angstroms)
 Number     Number       Type             X           Y           Z
 ---------------------------------------------------------------------
      1          6           0       -3.280648    0.443880   -0.374877
      2          1           0       -3.507596    1.324810   -0.985957
      3          6           0       -1.855341    0.111447   -0.223912
      4          1           0       -1.142840    0.940800   -0.285453
      5          6           0       -4.296290   -0.220313    0.193232
      6          1           0       -4.065296   -1.065886    0.852583
      7          6           0       -5.743410    0.115212    0.012045
      8          1           0       -6.225754    0.326070    0.978907
      9          1           0       -5.871938    0.989286   -0.640603
     10          1           0       -6.289176   -0.731388   -0.433549
     11          6           0       -1.383064   -1.125688   -0.027636
     12          1           0       -2.061702   -1.984518   -0.009675
     13          6           0        0.062400   -1.467457    0.153590
     14          1           0        0.391107   -2.152339   -0.644786
     15          1           0        0.218930   -1.982456    1.116902
     16          6           0        2.154515   -0.267337    0.009828
     17          6           0        2.884469   -1.578516   -0.058105
     18          1           0        2.624156   -2.101673   -0.989507
     19          1           0        3.958235   -1.365306   -0.037866
     20          1           0        2.603217   -2.226252    0.782817
     21          8           0        0.829653   -0.271069    0.123262
     22          8           0        2.710270    0.808195   -0.038560
     23          8           0        5.539648    0.329838    0.012034
     24          1           0        4.645443    0.706549    0.043538
     25          1           0        5.770412    0.391275   -0.921912
     26          8           0        0.457183    2.687901    0.170617
     27          1           0        0.147117    2.246120    0.969424
     28          1           0        1.255861    2.178626   -0.038667
 ---------------------------------------------------------------------
 Rotational constants (GHZ):      1.9745581      0.2752540      0.2444382
 Standard basis: def2SVP (5D, 7F)
 There are   260 symmetry adapted cartesian basis functions of A   symmetry.
 There are   248 symmetry adapted basis functions of A   symmetry.
   248 basis functions,   412 primitive gaussians,   260 cartesian basis functions
    48 alpha electrons       48 beta electrons
       nuclear repulsion energy       694.2909635846 Hartrees.
 NAtoms=   28 NActive=   28 NUniq=   28 SFac= 1.00D+00 NAtFMM=   60 NAOKFM=F Big=F
 Integral buffers will be    131072 words long.
 Raffenetti 2 integral format.
 Two-electron integral symmetry is turned on.
 Nuclear repulsion after empirical dispersion term =      694.2897908674 Hartrees.
 ------------------------------------------------------------------------------
 Polarizable Continuum Model (PCM)
 =================================
 Model                : C-PCM.
 Atomic radii         : UFF (Universal Force Field).
 Polarization charges : Total charges.
 Charge compensation  : None.
 Solution method      : On-the-fly selection.
 Cavity type          : Scaled VdW (van der Waals Surface) (Alpha=1.100).
 Cavity algorithm     : GePol (No added spheres)
                        Default sphere list used, NSphG=   28.
                        Lebedev-Laikov grids with approx.  5.0 points / Ang**2.
                        Smoothing algorithm: Karplus/York (Gamma=1.0000).
                        Polarization charges: spherical gaussians, with
                                              point-specific exponents (IZeta= 3).
                        Self-potential: point-specific (ISelfS= 7).
                        Self-field    : sphere-specific E.n sum rule (ISelfD= 2).
 1st derivatives      : Analytical E(r).r(x)/FMM algorithm (CHGder, D1EAlg=3).
                        Cavity 1st derivative terms included.
 Solvent              : Toluene, Eps=   2.374100 Eps(inf)=   2.238315
 ------------------------------------------------------------------------------
 One-electron integrals computed using PRISM.
   1 Symmetry operations used in ECPInt.
 ECPInt:  NShTT=    7260 NPrTT=   25404 LenC2=    6503 LenP2D=   16598.
 LDataN:  DoStor=T MaxTD1= 4 Len=   56
 NBasis=   248 RedAO= T EigKep=  1.15D-03  NBF=   248
 NBsUse=   248 1.00D-06 EigRej= -1.00D+00 NBFU=   248
 Initial guess from the checkpoint file:  "m062x_PM6_2H2O_diene_pm6_cpcmtoluene_1_gd3.chk"
 B after Tr=     0.000000    0.000000    0.000000
         Rot=    1.000000   -0.000065    0.000009   -0.000008 Ang=  -0.01 deg.
 Requested convergence on RMS density matrix=1.00D-08 within 128 cycles.
 Requested convergence on MAX density matrix=1.00D-06.
 Requested convergence on             energy=1.00D-06.
 No special actions if energy rises.
 Inv3:  Mode=1 IEnd=    15309243.
 Iteration    1 A*A^-1 deviation from unit magnitude is 6.22D-15 for   2238.
 Iteration    1 A*A^-1 deviation from orthogonality  is 2.29D-15 for   1898   1748.
 Iteration    1 A^-1*A deviation from unit magnitude is 6.22D-15 for   2238.
 Iteration    1 A^-1*A deviation from orthogonality  is 2.98D-15 for   2256   1934.
 Error on total polarization charges =  0.00542
 SCF Done:  E(RM062X) =  -614.621088075     A.U. after    7 cycles
            NFock=  7  Conv=0.85D-08     -V/T= 2.0094
   1 Symmetry operations used in ECPInt.
 ECPInt:  NShTT=    7260 NPrTT=   25404 LenC2=    6503 LenP2D=   16598.
 LDataN:  DoStor=T MaxTD1= 5 Len=  102
 D1PCM: C-PCM CHGder 1st derivatives, ID1Alg=3 FixD1E=F DoIter=F DoCFld=F I1PDM=0.
 Calling FoFJK, ICntrl=      2127 FMM=F ISym2X=0 I1Cent= 0 IOpClX= 0 NMat=1 NMatS=1 NMatT=0.
 ***** Axes restored to original set *****
 -------------------------------------------------------------------
 Center     Atomic                   Forces (Hartrees/Bohr)
 Number     Number              X              Y              Z
 -------------------------------------------------------------------
      1        6          -0.000015143    0.000002454   -0.000009634
      2        1          -0.000000721   -0.000010252   -0.000004407
      3        6           0.000013235    0.000003766   -0.000012025
      4        1          -0.000007951    0.000004979    0.000021679
      5        6          -0.000004206   -0.000004596    0.000007469
      6        1           0.000004563    0.000005067    0.000008186
      7        6          -0.000004160   -0.000003230    0.000006958
      8        1          -0.000000344   -0.000002862    0.000003410
      9        1          -0.000001133   -0.000009623    0.000000309
     10        1           0.000000019   -0.000008555    0.000008920
     11        6          -0.000031390   -0.000024988    0.000006790
     12        1          -0.000000729    0.000003732    0.000013728
     13        6           0.000006884    0.000006551    0.000003724
     14        1           0.000010088    0.000001089    0.000012382
     15        1           0.000005729    0.000009655    0.000008366
     16        6          -0.000016430    0.000010036   -0.000008707
     17        6           0.000012544    0.000008366    0.000004323
     18        1           0.000000061    0.000000195    0.000007407
     19        1           0.000005586    0.000007412   -0.000002957
     20        1           0.000001945    0.000008775    0.000006866
     21        8           0.000026866   -0.000018826    0.000002238
     22        8           0.000007981   -0.000008734   -0.000000846
     23        8          -0.000003000    0.000012102   -0.000010084
     24        1          -0.000014671    0.000004726   -0.000010822
     25        1          -0.000002268   -0.000001056   -0.000005997
     26        8           0.000013851    0.000017901   -0.000016742
     27        1          -0.000015973   -0.000002292   -0.000019815
     28        1           0.000008765   -0.000011793   -0.000020719
 -------------------------------------------------------------------
[...]
 0.00657621,0.01868801,0.02530122,0.00708002,0.02239258,-0.00779902,-0.
 05584084,0.00511722,0.00054199,0.01900570,-0.00317789,0.00294754,-0.00
 014499,0.00008640,-0.00125526,0.00212553,0.00246501,-0.00268155,-0.000
 25971,-0.04026945,-0.00603114,0.06688565,0.00011453,-0.00046576,0.0003
 2544,-0.00023413,0.00010053,-0.00009670,0.00018517,0.00042971,-0.00009
 775,0.00046338,-0.00032919,0.00018751,-0.00008866,0.00026409,-0.000063
 62,0.00006420,0.00003728,-0.00006150,-0.00008996,-0.00018475,0.0000617
 6,-0.00013664,0.00006318,0.00001763,-0.00003228,0.00005120,-0.00003530
 ,-0.00015914,0.00002825,-0.00005698,-0.00033155,-0.00363322,0.00020838
 ,-0.00132668,0.00037395,-0.00018514,0.00408775,0.01345217,0.00125632,-
 0.00163697,-0.00225496,-0.00064897,-0.00207693,-0.00277084,0.00061527,
 -0.21415857,-0.24765455,0.01074798,0.01445096,0.00805040,0.00031201,0.
 00005913,0.00285602,0.00060572,0.00192063,-0.00221725,-0.00009097,0.00
 039410,0.00291602,-0.00007744,-0.08993479,-0.08394660,0.00832303,0.305
 36634,0.00012296,-0.00022764,0.00034969,-0.00031365,0.00009413,-0.0001
 3447,-0.00044533,0.00018568,0.00004958,-0.00011022,-0.00110120,-0.0002
 0708,-0.00012027,0.00028115,-0.00002750,0.00005905,0.00003600,-0.00007
 656,-0.00007365,-0.00018237,0.00002347,-0.00011606,0.00004073,0.000016
 23,-0.00004089,0.00004633,-0.00004349,-0.00013618,0.00004024,-0.000044
 66,0.00053891,-0.00209623,0.00017660,-0.00099710,0.00029702,-0.0001556
 0,0.00646943,0.01145021,0.00034302,-0.00106744,-0.00117224,0.00003174,
 -0.00159189,-0.00173778,-0.00007976,-0.22381630,-0.63981222,0.01777326
 ,-0.01766326,-0.05224126,0.00123230,0.00219557,-0.00431880,0.00176183,
 -0.00319010,0.00106116,0.00041966,0.00321229,-0.00560021,-0.00214002,-
 0.07751257,-0.00861187,0.00650504,0.30657954,0.70586143,-0.00001460,0.
 00001303,-0.00001920,0.00003306,-0.00001726,0.00000146,-0.00001104,0.0
 0007002,0.00005210,0.00003452,0.00003293,-0.00005354,0.00001021,-0.000
 01335,0.00000829,-0.00000751,-0.00001276,0.00000732,0.00000218,0.00001
 030,-0.00000062,0.00000432,-0.00000352,0.00000064,0.00000517,-0.000006
 93,0.00000205,0.00001190,-0.00000058,0.00000190,0.00012080,0.00077901,
 0.00024160,0.00021837,-0.00009996,-0.00012499,0.00028109,-0.00178297,0
 .00677441,0.00060063,0.00083919,-0.00014578,-0.00073559,-0.00077975,-0
 .00029977,0.01098517,0.02033116,-0.07899297,0.00006273,-0.00119979,0.0
 2886500,-0.00228122,0.00435476,-0.00123806,0.00022064,-0.00034655,-0.0
 0052409,0.00252453,-0.00360742,-0.00139512,0.00865441,0.00733475,0.014
 22017,-0.02116983,-0.02512421,0.03654765,0.00001685,-0.00011354,0.0000
 6926,-0.00004662,0.00002125,-0.00002235,-0.00003227,0.00007521,-0.0000
 2955,0.00009046,-0.00006919,0.00003100,-0.00000122,0.00005943,-0.00001
 653,0.00001387,0.00000863,-0.00001199,-0.00002402,-0.00004573,0.000016
 09,-0.00003338,0.00001684,0.00000622,-0.00000616,0.00001337,-0.0000093
 6,-0.00003900,0.00000567,-0.00001572,0.00008196,-0.00016435,0.00004880
 ,-0.00014851,0.00001471,-0.00002055,0.00095980,0.00147563,-0.00005771,
 -0.00008470,-0.00016754,0.00007808,-0.00012864,-0.00026108,-0.00001871
 ,0.00733343,0.00643889,-0.00073359,-0.00053150,-0.00242365,-0.00009476
 ,-0.00068077,-0.00024325,-0.00000837,-0.00213743,0.00021125,0.00020810
 ,-0.00086605,-0.00027645,-0.00006244,-0.00568854,-0.00181025,0.0005052
 0,-0.01283784,-0.00291302,0.00018060,0.50172195,0.00000921,-0.00001401
 ,0.00002848,-0.00002726,0.00000714,-0.00001401,-0.00007376,0.00000981,
 -0.00000952,-0.00001202,-0.00004769,-0.00000381,-0.00000290,0.00002490
 ,0.00000050,0.00000426,0.00000231,-0.00000804,-0.00000686,-0.00001756,
 0.00000139,-0.00001075,0.00000278,0.00000253,-0.00000349,0.00000475,-0
 .00000558,-0.00001104,0.00000409,-0.00000391,0.00011410,0.00014429,0.0
 0003702,-0.00001349,-0.00000186,-0.00000748,0.00012163,-0.00001021,-0.
 00009734,0.00006213,0.00006184,0.00015656,0.00005669,-0.00000616,-0.00
 009754,0.00079541,-0.00566207,-0.00023946,-0.00084569,-0.00074278,0.00
 066351,-0.00081407,0.00000449,-0.00008655,0.00003136,-0.00029178,-0.00
 108867,-0.00116358,-0.00006572,-0.00003645,-0.00014069,0.00140428,0.00
 007630,0.00182586,0.00519817,-0.00012163,-0.18468654,0.09632707,-0.000
 00151,0.00000765,-0.00000012,0.00000315,-0.00000418,-0.00000286,-0.000
 00273,-0.00000234,0.00001258,-0.00000457,-0.00000127,-0.00001261,0.000
 00150,0.00000404,0.00000329,-0.00000069,-0.00000401,-0.00000149,-0.000
 00033,-0.00000031,-0.00000057,-0.00000135,-0.00000018,0.00000097,0.000
 00068,-0.00000193,-0.00000028,0.00000141,0.00000110,-0.00000070,-0.000
 00512,0.00001211,0.00001862,0.00000562,-0.00000109,-0.00000515,-0.0000
 4181,-0.00006302,-0.00015174,-0.00000041,0.00001469,0.00001860,0.00002
 145,0.00001592,0.00000146,-0.00051377,-0.00075438,-0.00041010,0.000174
 66,0.00017085,0.00200136,0.00036645,0.00014591,-0.00005286,0.00002439,
 -0.00058698,-0.00215956,-0.00045416,-0.00007125,-0.00006785,0.00027112
 ,0.00015931,-0.00020693,0.00094073,0.00058920,0.00311896,-0.12350513,-
 0.04123263,0.54994111,-0.00002058,0.00013642,-0.00007883,0.00004880,-0
 .00002337,0.00002253,-0.00000943,-0.00009477,0.00003423,-0.00012946,0.
 00008413,-0.00004065,0.00001006,-0.00006413,0.00001937,-0.00001510,-0.
 00000896,0.00001289,0.00002485,0.00004741,-0.00001858,0.00003567,-0.00
 001768,-0.00000583,0.00000673,-0.00001373,0.00000937,0.00004111,-0.000
 00599,0.00001607,-0.00002908,0.00040983,-0.00004462,0.00020496,-0.0000
 2865,0.00002573,-0.00132058,-0.00220394,-0.00004230,0.00017722,0.00031
 443,0.00005482,0.00025576,0.00039870,-0.00007827,-0.01231918,-0.015222
 30,0.00093845,0.00018100,0.00095119,0.00029836,-0.00018384,0.00045102,
 -0.00008104,0.00134527,-0.00000098,-0.00010743,-0.00025958,0.00041805,
 0.00001070,0.00885781,0.00378010,-0.00088005,0.00368004,0.00946112,0.0
 0092728,-0.42559578,0.17311039,0.03384360,0.43669086,-0.00000679,0.000
 01171,-0.00002128,0.00001861,-0.00000502,0.00000940,0.00004621,-0.0000
 0685,0.00000950,0.00000250,0.00003409,0.00000050,0.00000306,-0.0000171
 8,0.00000071,-0.00000307,-0.00000173,0.00000513,0.00000469,0.00001193,
 -0.00000130,0.00000740,-0.00000206,-0.00000159,0.00000240,-0.00000314,
 0.00000364,0.00000780,-0.00000276,0.00000273,-0.00007651,-0.00008034,-
 0.00002497,0.00001583,0.00000014,0.00000493,-0.00015418,-0.00003125,0.
 00006464,-0.00002906,-0.00001900,-0.00009095,-0.00002203,0.00001700,0.
 00005874,-0.00472683,0.00204610,-0.00000922,-0.00054864,0.00026945,0.0
 0007346,0.00055679,0.00005809,0.00002833,-0.00058700,-0.00308503,-0.00
 026125,0.00063412,0.00004647,0.00001991,0.00033070,-0.00080301,-0.0000
 5649,0.00313469,-0.00554248,0.00000398,0.18246010,-0.08448946,-0.00783
 190,-0.17840733,0.09055315,0.00000009,-0.00000266,-0.00000177,-0.00000
 085,0.00000255,0.00000321,0.00000341,-0.00000047,-0.00001628,-0.000000
 36,0.00000364,0.00001000,-0.00000029,-0.00000551,-0.00000206,0.0000002
 2,0.00000307,0.00000175,0.00000092,0.00000157,-0.00000014,0.00000214,-
 0.00000023,-0.00000082,-0.00000033,0.00000110,0.00000051,0.00000009,-0
 .00000108,0.00000085,0.00000864,0.00002350,-0.00000657,0.00000786,-0.0
 0000228,0.00000174,0.00003557,-0.00003435,0.00026199,0.00001403,0.0000
 1315,-0.00002193,-0.00003624,-0.00002360,-0.00000741,-0.00013678,-0.00
 000116,0.00057034,0.00004087,0.00021413,-0.00083959,-0.00011516,-0.000
 13570,0.00003989,-0.00016089,-0.00026115,0.00038364,0.00019885,0.00015
 496,0.00004606,0.00014180,0.00015344,0.00042905,-0.00025477,-0.0002618
 8,-0.00463846,-0.01440004,0.01440411,-0.04662846,-0.03041607,0.0048500
 2,0.05686682,-0.00000141,0.00002513,-0.00001484,0.00000738,-0.00000347
 ,0.00000517,0.00000209,-0.00001341,0.00000244,-0.00001692,0.00001146,-
 0.00000172,-0.00000364,-0.00001225,0.00000287,-0.00000279,-0.00000160,
 0.00000256,0.00000572,0.00001010,-0.00000362,0.00000768,-0.00000410,-0
 .00000189,0.00000101,-0.00000294,0.00000221,0.00000869,-0.00000108,0.0
 0000399,-0.00001627,0.00001003,-0.00001278,0.00002258,-0.00000022,0.00
 000335,-0.00016486,-0.00021197,0.00007205,0.00001297,0.00001842,-0.000
 01793,0.00001255,0.00002991,0.00000251,-0.00102377,-0.00021848,0.00012
 691,-0.00013856,0.00002491,-0.00030963,-0.00002056,-0.00005986,0.00002
 465,-0.00060890,-0.00044548,0.00036924,0.00020937,0.00001783,0.0000030
 4,0.00077993,0.00006722,0.00003515,0.00007470,0.00027434,-0.00115963,-
 0.06161020,0.01166475,0.08889169,-0.01126981,-0.00270079,0.04507362,0.
 07377509,-0.00000265,0.00000464,-0.00000944,0.00000704,-0.00000152,0.0
 0000404,0.00001029,-0.00000216,0.00000070,0.00000227,0.00001379,0.0000
 0213,0.00000121,-0.00000653,-0.00000082,-0.00000096,-0.00000065,0.0000
 0277,0.00000140,0.00000439,-0.00000013,0.00000261,-0.00000038,-0.00000
 075,0.00000101,-0.00000123,0.00000172,0.00000224,-0.00000120,0.0000008
 3,-0.00002054,-0.00001206,-0.00000857,0.00000434,-0.00000145,0.0000029
 2,-0.00003831,-0.00002141,0.00001349,-0.00000549,-0.00000594,-0.000019
 25,-0.00000170,0.00000644,0.00001140,-0.00014764,0.00056884,0.00024493
 ,-0.00004673,-0.00031024,-0.00077081,-0.00012103,-0.00005431,0.0000172
 4,-0.00054428,0.00002470,0.00139469,0.00019372,0.00000385,0.00000436,0
 .00018220,-0.00014838,-0.00003854,0.00030788,-0.00045833,0.00025350,0.
 00280743,-0.01175049,0.04942969,0.00594210,0.00087422,-0.01912172,-0.0
 0852036,0.01123730,0.00000207,-0.00000958,0.00000443,-0.00000475,0.000
 00302,-0.00000051,-0.00000501,0.00000644,-0.00000642,0.00000740,-0.000
 00465,0.00000628,-0.00000151,0.00000315,-0.00000230,0.00000112,0.00000
 165,-0.00000042,-0.00000142,-0.00000307,0.00000120,-0.00000181,0.00000
 108,-0.00000007,-0.00000068,0.00000150,-0.00000043,-0.00000302,0.00000
 009,-0.00000063,0.00001194,-0.00001404,0.00000025,-0.00001304,0.000001
 23,0.00000069,0.00007824,0.00011782,0.00000745,-0.00000484,-0.00001769
 ,0.00000791,-0.00000830,-0.00002129,-0.00000475,0.00076889,0.00042483,
 -0.00000757,-0.00011518,-0.00021240,-0.00006834,-0.00006970,-0.0000475
 6,0.00000052,0.00049701,0.00074803,0.00010165,-0.00005832,-0.00002927,
 -0.00000529,-0.00048561,-0.00012010,0.00002826,-0.00095534,-0.00023859
 ,-0.00013784,0.13789217,0.02768703,-0.50538171,-0.00443946,0.00315725,
 -0.00649810,-0.13311626,-0.03140979,0.51195404,0.00004753,-0.00089199,
 0.00009197,0.00003148,0.00005957,0.00002197,0.00076006,-0.00044882,-0.
 00072143,-0.00078419,0.00091711,0.00095679,-0.00011423,0.00011433,-0.0
 0012690,0.00001463,-0.00002635,0.00000137,-0.00005983,-0.00005026,0.00
 015364,-0.00009545,0.00004752,0.00000224,0.00000533,0.00002342,-0.0000
 0353,-0.00006409,-0.00001079,-0.00002522,-0.00140700,-0.00047792,-0.00
 005221,0.00023794,-0.00047538,0.00017458,-0.00134829,-0.00118575,-0.00
 002608,0.00031612,0.00015154,-0.00001966,0.00029336,0.00018230,0.00004
 825,-0.00763773,-0.00654916,0.00042137,0.00067845,0.00102824,-0.000108
 33,-0.00011732,0.00018202,0.00001362,0.00011423,-0.00010548,-0.0000149
 4,-0.00015998,0.00024902,-0.00000122,0.00536901,0.00082026,-0.00010152
 ,-0.00234125,0.01020857,0.00049062,-0.00050827,0.00014256,0.00004890,0
 .00069098,-0.00006344,-0.00001745,0.00008816,-0.00003558,-0.00005244,0
 .43105801,-0.00007583,-0.00123934,0.00027129,-0.00017139,0.00005651,-0
 .00011329,-0.00039036,0.00053832,0.00004387,0.00050537,-0.00098081,-0.
 00043567,-0.00032108,0.00026810,-0.00011390,0.00004716,-0.00001861,-0.
 00005726,-0.00007473,-0.00009635,0.00017543,-0.00013874,0.00003680,0.0
 0000658,-0.00002327,0.00003179,-0.00003740,-0.00008719,0.00001807,-0.0
 0003133,-0.00053965,-0.00066749,0.00003746,-0.00005821,-0.00037470,0.0
 0004710,0.00166077,0.00137678,-0.00028534,-0.00010560,-0.00052827,-0.0
 0001462,-0.00008469,-0.00041558,0.00011247,-0.00245784,0.00345186,0.00
 019239,0.00026460,-0.00055395,-0.00005495,0.00001773,-0.00011822,0.000
 04662,-0.00004479,-0.00011250,-0.00000639,0.00001555,-0.00013434,-0.00
 003056,0.00007317,-0.00561391,0.00024098,0.00571220,-0.00317708,-0.000
 61519,0.00069385,0.00023569,0.00000086,-0.00092541,-0.00027188,-0.0000
 4717,-0.00009409,-0.00008582,0.00004218,-0.15830480,0.30367730,-0.0000
 4042,-0.00035792,0.00005601,0.00000324,0.00001006,-0.00005063,-0.00016
 661,0.00019818,0.00114250,0.00084528,-0.00025435,-0.00198487,-0.000087
 33,0.00008932,-0.00001547,0.00000510,-0.00003702,-0.00002012,-0.000031
 54,-0.00002827,0.00006128,-0.00005776,0.00001102,0.00000655,-0.0000002
 7,0.00000184,-0.00001364,-0.00002610,0.00000805,-0.00001186,-0.0003565
 9,-0.00029696,0.00000856,0.00002922,-0.00016532,-0.00006510,0.00001067
 ,0.00012974,-0.00003377,0.00002494,-0.00001515,0.00000434,0.00003877,-
 0.00013970,0.00004546,-0.00023703,0.00080303,-0.00098854,0.00001497,-0
 .00009974,-0.00033081,0.00002853,-0.00005754,0.00002186,-0.00002003,-0
 .00001626,-0.00000676,-0.00002374,0.00000017,0.00000477,0.00014027,-0.
 00036801,0.00107731,0.00056761,-0.00089284,0.00282049,0.00012491,0.000
 05006,0.00010744,-0.00015213,-0.00005649,-0.00013253,-0.00004429,-0.00
 000173,-0.00001642,-0.23125797,-0.16478105,0.41805273,-0.00007989,0.00
 030262,-0.00001494,-0.00000804,-0.00001848,-0.00004534,-0.00048433,-0.
 00014969,0.00037171,-0.00020732,-0.00061559,-0.00144283,-0.00000279,-0
 .00002126,0.00006981,-0.00000643,-0.00000780,-0.00000664,0.00002030,0.
 00002209,-0.00005185,0.00002861,-0.00002188,-0.00000020,-0.00000110,-0
 .00001179,-0.00000076,0.00002765,0.00000642,0.00001137,0.00061603,0.00
 004235,0.00010701,-0.00008896,0.00014016,-0.00011228,0.00086212,0.0005
 6151,-0.00006121,-0.00019589,-0.00015565,-0.00000069,-0.00012693,-0.00
 010477,-0.00001238,0.00040786,0.00165580,0.00033453,-0.00003557,-0.000
 20686,0.00013829,0.00001858,-0.00001209,-0.00001714,-0.00000673,-0.000
 00734,0.00000604,0.00005603,-0.00004563,0.00000941,-0.00137254,-0.0010
 4862,-0.00028112,0.00032327,-0.00088199,-0.00103448,0.00013122,-0.0000
 4393,-0.00004175,-0.00016279,0.00002716,0.00004570,-0.00002169,0.00000
 767,0.00001605,-0.08140015,-0.04434937,0.12434807,0.09678670,-0.000090
 27,0.00048813,-0.00010871,0.00009353,-0.00003663,0.00005987,-0.0003658
 3,-0.00034676,0.00029007,-0.00070657,-0.00033984,-0.00126798,0.0001375
 4,-0.00010049,0.00002731,-0.00002376,-0.00000167,0.00002492,0.00002805
 ,0.00004417,-0.00006431,0.00006127,-0.00001438,-0.00000470,0.00001383,
 -0.00001482,0.00001944,0.00004241,-0.00001035,0.00001435,0.00036109,0.
 00001439,0.00008581,0.00003467,0.00011239,-0.00004379,-0.00069147,-0.0
 0081568,0.00009968,0.00004575,0.00025091,0.00002178,0.00003356,0.00009
 447,-0.00006621,0.00343300,0.00053844,-0.00066778,-0.00034516,-0.00002
 220,-0.00004883,0.00002395,-0.00000489,-0.00001137,-0.00001653,0.00009
 692,0.00000697,0.00001221,0.00000399,0.00001380,-0.00173434,0.00138591
 ,0.00063391,-0.00094314,-0.00134424,0.00061280,-0.00017780,-0.00008951
 ,-0.00000620,0.00022218,0.00007607,0.00001404,0.00002844,0.00002603,-0
 .00000947,-0.07469035,-0.13372585,0.21878277,0.06311533,0.12558383,-0.
 00002503,0.00055098,-0.00011463,0.00003970,-0.00002255,0.00002871,-0.0
 0025459,-0.00028406,0.00043189,-0.00117550,-0.00123910,-0.00108712,0.0
 0013364,-0.00011817,0.00004431,-0.00001338,0.00002753,0.00001689,0.000
 03936,0.00004748,-0.00008368,0.00007119,-0.00002127,-0.00000332,0.0000
 0381,-0.00001120,0.00001149,0.00004206,-0.00000589,0.00001447,0.000493
 58,0.00031701,-0.00008253,-0.00000747,0.00021563,-0.00007292,-0.000385
 86,-0.00036762,0.00023468,-0.00001524,0.00018861,-0.00000261,-0.000030
 29,0.00015625,-0.00005397,0.00172500,-0.00045162,-0.00002628,-0.000212
 84,0.00008650,0.00000252,0.00001045,0.00001476,-0.00001899,-0.00000424
 ,0.00005865,0.00000815,0.00000927,0.00003256,0.00001506,-0.00068238,0.
 00128180,-0.00001433,-0.00104676,0.00013861,0.00002395,-0.00015586,-0.
 00004764,-0.00003100,0.00020512,0.00004216,0.00004129,0.00002601,0.000
 01336,-0.00000541,0.15861167,0.18799605,-0.36695666,-0.15962651,-0.198
 70152,0.38015088,0.00003371,0.00037680,-0.00000787,-0.00001756,-0.0000
 0659,-0.00000611,-0.00012781,-0.00026257,-0.00004950,-0.00134738,-0.00
 101220,-0.00010134,0.00004225,-0.00002571,0.00004457,-0.00000321,0.000
 00998,-0.00000452,0.00002089,0.00000979,-0.00005778,0.00003172,-0.0000
 1659,-0.00000084,-0.00000279,-0.00000651,-0.00000030,0.00001956,0.0000
 0590,0.00000921,0.00035541,-0.00014534,0.00005675,-0.00011860,0.000168
 63,-0.00002436,0.00020657,0.00079380,0.00004464,-0.00009195,0.00000561
 ,0.00001934,-0.00014212,-0.00010442,-0.00003111,0.01328429,0.00890631,
 -0.00081958,-0.00104380,-0.00162610,-0.00005206,0.00017549,-0.00031022
 ,0.00002964,-0.00018569,0.00013913,0.00002384,0.00020074,-0.00035057,-
 0.00003218,-0.00690731,0.00095224,0.00036233,-0.00579885,-0.00813185,0
 .00104568,0.00065135,-0.00008227,-0.00002202,-0.00093592,0.00007361,-0
 .00003458,-0.00010853,0.00001185,0.00006182,-0.34366752,0.19925665,0.1
 0632023,-0.01507722,0.01209840,0.00222509,0.36055428,0.00001936,0.0001
 1374,-0.00009600,0.00010080,-0.00001292,0.00005082,0.00025008,-0.00024
 256,-0.00042228,-0.00039772,0.00067307,0.00071231,0.00006081,-0.000077
 73,0.00000630,-0.00001544,-0.00000608,0.00002303,0.00001773,0.00004209
 ,-0.00001144,0.00003117,-0.00000627,-0.00000396,0.00001240,-0.00000986
 ,0.00001374,0.00002947,-0.00001203,0.00000975,-0.00028623,0.00028892,-
 0.00003902,0.00020250,-0.00005640,0.00005994,-0.00206981,-0.00209212,0
 .00009372,0.00027118,0.00045498,0.00001716,0.00029077,0.00048349,-0.00
 006896,-0.00189221,-0.01192979,0.00054239,0.00031523,0.00107215,0.0002
 0590,-0.00011477,0.00027475,-0.00005414,0.00011608,0.00007006,-0.00001
 007,-0.00011133,0.00027304,0.00002232,0.00422126,0.00055048,-0.0003909
 6,-0.00178269,0.00303169,-0.00090358,-0.00094988,-0.00024231,0.0000103
 2,0.00129016,0.00036279,0.00005965,0.00010758,0.00009790,-0.00005779,0
 .22918963,-0.16157653,-0.05251589,-0.01817837,0.00815166,0.01010271,-0
 .21072777,0.16032378,0.00003183,-0.00002819,-0.00000930,-0.00000300,0.
 00001665,0.00001534,0.00018060,-0.00007530,-0.00030650,-0.00034486,0.0
 0049111,0.00049161,-0.00000115,-0.00000776,-0.00000837,0.00000197,0.00
 000702,0.00000397,0.00000103,-0.00000009,0.00000225,0.00000190,0.00000
 227,-0.00000205,-0.00000112,0.00000394,0.00000218,-0.00000314,-0.00000
 275,0.00000092,-0.00003292,-0.00000994,-0.00001511,-0.00000955,-0.0000
 1192,0.00003464,0.00012142,0.00003588,-0.00015200,-0.00003348,-0.00011
 532,-0.00000343,0.00002461,0.00005727,-0.00000769,-0.00057017,-0.00016
 378,0.00158063,0.00006984,-0.00001370,0.00090691,-0.00008029,0.0001080
 7,-0.00004251,0.00001702,-0.00001254,-0.00000780,0.00005801,-0.0000967
 3,-0.00005338,0.00011064,-0.00054576,-0.00126738,0.00067172,0.00001644
 ,-0.00511556,0.00000223,-0.00000722,-0.00011040,-0.00003324,0.00002040
 ,0.00013698,0.00003510,-0.00001624,0.00002355,0.07149188,-0.02258917,-
 0.05278213,0.03729212,-0.01970664,-0.01247082,-0.10899899,0.04264401,0
 .06915544\\0.00000848,-0.00000830,0.00000484,0.00001657,0.00001742,0.0
 0000368,-0.00000972,0.00000371,-0.00001571,-0.00000974,0.00000892,0.00
 000783,0.00001654,0.00000642,-0.00000861,0.00000211,-0.00000629,-0.000
 00487,0.00000162,0.00000576,-0.00000436,0.00000126,-0.00000007,-0.0000
 0226,0.00000484,0.00000961,-0.00000068,0.00000069,0.00000500,-0.000008
 69,-0.00001985,-0.00001330,-0.00000398,-0.00000093,-0.00000209,-0.0000
 0777,0.00000100,-0.00000417,-0.00000597,-0.00000481,0.00000320,-0.0000
 1163,-0.00000790,-0.00000462,-0.00000719,0.00000193,0.00001230,-0.0000
 0063,-0.00001571,-0.00000241,0.00001680,-0.00000611,0.00000132,-0.0000
 1295,0.00000550,-0.00000093,-0.00000813,-0.00000930,-0.00000754,-0.000
 00828,-0.00001602,-0.00001657,-0.00000122,0.00002866,0.00000570,0.0000
 0454,-0.00001648,-0.00000239,0.00001014,0.00002571,-0.00001136,0.00001
 023,0.00000154,-0.00000184,0.00000857,0.00001578,-0.00000802,0.0000129
 4,-0.00000152,-0.00000611,0.00001775,-0.00001412,0.00001665,0.00001561
 \\\@


 Change starts when someone sees the next step.
                            -- William Drayton
 Job cpu time:       0 days  0 hours 31 minutes  6.2 seconds.
 File lengths (MBytes):  RWF=    248 Int=      0 D2E=      0 Chk=     14 Scr=      1
 Normal termination of Gaussian 09 at Sun Sep  6 03:50:40 2020.
