 Entering Gaussian System, Link 0=g09
 Input=m062x_Diels_Alder_4H2O_TS_PM6_freq_1_gd3.com
 Output=m062x_Diels_Alder_4H2O_TS_PM6_freq_1_gd3.log
 Initial command:
 /apps/applications/gaussian/G09.D01/2/default/g09/l1.exe "/local/725667.1.40core-192G.q/Gau-304975.inp" -scrdir="/local/725667.1.40core-192G.q/"
 Entering Link 1 = /apps/applications/gaussian/G09.D01/2/default/g09/l1.exe PID=    304976.
  
 Copyright (c) 1988,1990,1992,1993,1995,1998,2003,2009,2013,
            Gaussian, Inc.  All Rights Reserved.
  
 This is part of the Gaussian(R) 09 program.  It is based on
 the Gaussian(R) 03 system (copyright 2003, Gaussian, Inc.),
 the Gaussian(R) 98 system (copyright 1998, Gaussian, Inc.),
 the Gaussian(R) 94 system (copyright 1995, Gaussian, Inc.),
 the Gaussian 92(TM) system (copyright 1992, Gaussian, Inc.),
 the Gaussian 90(TM) system (copyright 1990, Gaussian, Inc.),
 the Gaussian 88(TM) system (copyright 1988, Gaussian, Inc.),
 the Gaussian 86(TM) system (copyright 1986, Carnegie Mellon
 University), and the Gaussian 82(TM) system (copyright 1983,
 Carnegie Mellon University). Gaussian is a federally registered
 trademark of Gaussian, Inc.
  
 This software contains proprietary and confidential information,
 including trade secrets, belonging to Gaussian, Inc.
  
 This software is provided under written license and may be
 used, copied, transmitted, or stored only in accord with that
 written license.
  
 The following legend is applicable only to US Government
 contracts under FAR:
  
                    RESTRICTED RIGHTS LEGEND
  
 Use, reproduction and disclosure by the US Government is
 subject to restrictions as set forth in subparagraphs (a)
 and (c) of the Commercial Computer Software - Restricted
 Rights clause in FAR 52.227-19.
  
 Gaussian, Inc.
 340 Quinnipiac St., Bldg. 40, Wallingford CT 06492
  
  
 ---------------------------------------------------------------
 Warning -- This program may not be used in any manner that
 competes with the business of Gaussian, Inc. or will provide
 assistance to any competitor of Gaussian, Inc.  The licensee
 of this program is prohibited from giving any competitor of
 Gaussian, Inc. access to this program.  By using this program,
 the user acknowledges that Gaussian, Inc. is engaged in the
 business of creating and licensing software in the field of
 computational chemistry and represents and warrants to the
 licensee that it is not a competitor of Gaussian, Inc. and that
 it will not use this program in any manner prohibited above.
 ---------------------------------------------------------------
  

 Cite this work as:
 Gaussian 09, Revision D.01,
 M. J. Frisch, G. W. Trucks, H. B. Schlegel, G. E. Scuseria, 
 M. A. Robb, J. R. Cheeseman, G. Scalmani, V. Barone, B. Mennucci, 
 G. A. Petersson, H. Nakatsuji, M. Caricato, X. Li, H. P. Hratchian, 
 A. F. Izmaylov, J. Bloino, G. Zheng, J. L. Sonnenberg, M. Hada, 
 M. Ehara, K. Toyota, R. Fukuda, J. Hasegawa, M. Ishida, T. Nakajima, 
 Y. Honda, O. Kitao, H. Nakai, T. Vreven, J. A. Montgomery, Jr., 
 J. E. Peralta, F. Ogliaro, M. Bearpark, J. J. Heyd, E. Brothers, 
 K. N. Kudin, V. N. Staroverov, T. Keith, R. Kobayashi, J. Normand, 
 K. Raghavachari, A. Rendell, J. C. Burant, S. S. Iyengar, J. Tomasi, 
 M. Cossi, N. Rega, J. M. Millam, M. Klene, J. E. Knox, J. B. Cross, 
 V. Bakken, C. Adamo, J. Jaramillo, R. Gomperts, R. E. Stratmann, 
 O. Yazyev, A. J. Austin, R. Cammi, C. Pomelli, J. W. Ochterski, 
 R. L. Martin, K. Morokuma, V. G. Zakrzewski, G. A. Voth, 
 P. Salvador, J. J. Dannenberg, S. Dapprich, A. D. Daniels, 
 O. Farkas, J. B. Foresman, J. V. Ortiz, J. Cioslowski, 
 and D. J. Fox, Gaussian, Inc., Wallingford CT, 2013.
 
 ******************************************
 Gaussian 09:  ES64L-G09RevD.01 24-Apr-2013
                 6-Sep-2020 
 ******************************************
 %nprocshared=4
 Will use up to    4 processors via shared memory.
 %chk=m062x_Diels_Alder_4H2O_TS_PM6_freq_1_gd3.chk
 ----------------------------------------------------------------------
 # opt=(calcfc,ts,noeigentest) scrf=(cpcm,solvent=toluene) geom=connect
 ivity def2svp m062x empiricaldispersion=gd3
 ----------------------------------------------------------------------
 1/5=1,10=4,11=1,14=-1,18=20,26=3,38=1,57=2/1,3;
 2/9=110,12=2,17=6,18=5,40=1/2;
 3/5=43,7=101,11=2,16=1,25=1,30=1,70=2101,71=2,72=13,74=-55,124=31,140=1/1,2,3;
 4//1;
 5/5=2,38=5,53=13/2;
 8/6=4,10=90,11=11/1;
 11/6=1,8=1,9=11,15=111,16=1/1,2,10;
 10/6=1,13=1/2;
 6/7=2,8=2,9=2,10=2,28=1/1;
 7/10=1,18=20,25=1/1,2,3,16;
 1/5=1,10=4,11=1,14=-1,18=20,26=3/3(2);
 2/9=110/2;
 99//99;
 2/9=110/2;
 3/5=43,7=101,11=2,16=1,25=1,30=1,70=2105,71=1,72=13,74=-55,124=31/1,2,3;
 4/5=5,16=3,69=1/1;
 5/5=2,38=5,53=13/2;
 7//1,2,3,16;
 1/5=1,11=1,14=-1,18=20,26=3/3(-5);
 2/9=110/2;
 6/7=2,8=2,9=2,10=2,19=2,28=1/1;
 99/9=1/99;
 -------------------
 Title Card Required
 -------------------
 Symbolic Z-matrix:
 Charge =  0 Multiplicity = 1
 C                     2.37224   1.07784   0.64471 
 C                     1.94559  -0.3501    0.69982 
 C                     0.56307  -0.37332   0.56089 
 C                     0.0985    1.03566   0.49865 
 H                     2.5725   -1.07664   1.21209 
 H                    -0.10747  -1.17391   0.87572 
 C                     1.19434   3.27779   0.27972 
 H                     0.80396   3.74215   1.19643 
 H                     2.22135   3.62032   0.11057 
 H                     0.55741   3.55872  -0.56922 
 N                     1.22655   1.83668   0.40495 
 O                    -1.04145   1.45926   0.51151 
 O                     3.48006   1.5534    0.77293 
 C                     2.07617  -2.05581  -1.56852 
 H                     2.46495  -3.07547  -1.4966 
 C                     0.69641  -1.88258  -1.76392 
 H                     0.05978  -2.76976  -1.8312 
 C                     2.92349  -1.00688  -1.25364 
 H                     2.64807  -0.00341  -1.5917 
 C                     4.37583  -1.20985  -0.94739 
 H                     4.66444  -0.66066  -0.04196 
 H                     4.59751  -2.27333  -0.78491 
 H                     4.99801  -0.84167  -1.77713 
 C                     0.09454  -0.64469  -1.6364 
 H                     0.68897   0.25151  -1.83402 
 C                    -1.39326  -0.4487   -1.77163 
 H                    -1.75113  -0.87925  -2.72125 
 H                    -1.63241   0.62128  -1.76116 
 C                    -3.14967  -0.67944  -0.12465 
 C                    -3.91493   0.4322   -0.78014 
 H                    -4.1715    0.14562  -1.81019 
 H                    -4.82337   0.60475  -0.19431 
 H                    -3.30571   1.34375  -0.83293 
 O                    -2.03643  -1.12934  -0.69591 
 O                    -3.51143  -1.23466   0.89223 
 H                     4.47923   0.36189   1.87649 
 H                    -2.35308   3.70858  -1.61135 
 H                    -2.04234  -2.46178   1.32742 
 H                    -5.18908  -0.59961   1.59064 
 O                    -1.23735  -2.92338   1.61591 
 H                    -1.17724  -2.69972   2.55178 
 O                    -5.95699  -0.03001   1.76239 
 H                    -5.58237   0.67776   2.29908 
 O                    -1.7084    2.99332  -1.65048 
 H                    -1.57984   2.71953  -0.72714 
 O                     4.69182  -0.45933   2.34926 
 H                     5.64105  -0.56429   2.2223 
 
 Add virtual bond connecting atoms H45        and O12        Dist= 3.49D+00.
 Add virtual bond connecting atoms H36        and O13        Dist= 3.60D+00.
 Add virtual bond connecting atoms H39        and O35        Dist= 3.64D+00.
 Add virtual bond connecting atoms H38        and O35        Dist= 3.71D+00.
 Add virtual bond connecting atoms C2         and C18        Dist= 4.31D+00.
 Add virtual bond connecting atoms C3         and C24        Dist= 4.28D+00.
 Add virtual bond connecting atoms H6         and O40        Dist= 4.18D+00.
 Add virtual bond connecting atoms H36        and H21        Dist= 4.12D+00.
 Add virtual bond connecting atoms H45        and H28        Dist= 4.42D+00.

 GradGradGradGradGradGradGradGradGradGradGradGradGradGradGradGradGradGrad
 Berny optimization.
 Initialization pass.
                           ----------------------------
                           !    Initial Parameters    !
                           ! (Angstroms and Degrees)  !
 --------------------------                            --------------------------
 ! Name  Definition              Value          Derivative Info.                !
 --------------------------------------------------------------------------------
 ! R1    R(1,2)                  1.4913         calculate D2E/DX2 analytically  !
 ! R2    R(1,11)                 1.395          calculate D2E/DX2 analytically  !
 ! R3    R(1,13)                 1.2124         calculate D2E/DX2 analytically  !
 ! R4    R(2,3)                  1.3897         calculate D2E/DX2 analytically  !
 ! R5    R(2,5)                  1.0878         calculate D2E/DX2 analytically  !
 ! R6    R(2,18)                 2.2812         calculate D2E/DX2 analytically  !
 ! R7    R(3,4)                  1.4849         calculate D2E/DX2 analytically  !
 ! R8    R(3,6)                  1.0907         calculate D2E/DX2 analytically  !
 ! R9    R(3,24)                 2.263          calculate D2E/DX2 analytically  !
 ! R10   R(4,11)                 1.3867         calculate D2E/DX2 analytically  !
 ! R11   R(4,12)                 1.2162         calculate D2E/DX2 analytically  !
 ! R12   R(6,40)                 2.2102         calculate D2E/DX2 analytically  !
 ! R13   R(7,8)                  1.0993         calculate D2E/DX2 analytically  !
 ! R14   R(7,9)                  1.0958         calculate D2E/DX2 analytically  !
 ! R15   R(7,10)                 1.0979         calculate D2E/DX2 analytically  !
 ! R16   R(7,11)                 1.4469         calculate D2E/DX2 analytically  !
 ! R17   R(12,45)                1.8473         calculate D2E/DX2 analytically  !
 ! R18   R(13,36)                1.9068         calculate D2E/DX2 analytically  !
 ! R19   R(14,15)                1.0936         calculate D2E/DX2 analytically  !
 ! R20   R(14,16)                1.4042         calculate D2E/DX2 analytically  !
 ! R21   R(14,18)                1.3847         calculate D2E/DX2 analytically  !
 ! R22   R(16,17)                1.094          calculate D2E/DX2 analytically  !
 ! R23   R(16,24)                1.3823         calculate D2E/DX2 analytically  !
 ! R24   R(18,19)                1.0941         calculate D2E/DX2 analytically  !
 ! R25   R(18,20)                1.4981         calculate D2E/DX2 analytically  !
 ! R26   R(20,21)                1.0976         calculate D2E/DX2 analytically  !
 ! R27   R(20,22)                1.0984         calculate D2E/DX2 analytically  !
 ! R28   R(20,23)                1.1005         calculate D2E/DX2 analytically  !
 ! R29   R(21,36)                2.1818         calculate D2E/DX2 analytically  !
 ! R30   R(24,25)                1.0934         calculate D2E/DX2 analytically  !
 ! R31   R(24,26)                1.5067         calculate D2E/DX2 analytically  !
 ! R32   R(26,27)                1.1024         calculate D2E/DX2 analytically  !
 ! R33   R(26,28)                1.0964         calculate D2E/DX2 analytically  !
 ! R34   R(26,34)                1.4262         calculate D2E/DX2 analytically  !
 ! R35   R(28,45)                2.3398         calculate D2E/DX2 analytically  !
 ! R36   R(29,30)                1.5003         calculate D2E/DX2 analytically  !
 ! R37   R(29,34)                1.3297         calculate D2E/DX2 analytically  !
 ! R38   R(29,35)                1.2138         calculate D2E/DX2 analytically  !
 ! R39   R(30,31)                1.0995         calculate D2E/DX2 analytically  !
 ! R40   R(30,32)                1.0946         calculate D2E/DX2 analytically  !
 ! R41   R(30,33)                1.0977         calculate D2E/DX2 analytically  !
 ! R42   R(35,38)                1.963          calculate D2E/DX2 analytically  !
 ! R43   R(35,39)                1.925          calculate D2E/DX2 analytically  !
 ! R44   R(36,46)                0.9711         calculate D2E/DX2 analytically  !
 ! R45   R(37,44)                0.9637         calculate D2E/DX2 analytically  !
 ! R46   R(38,40)                0.9718         calculate D2E/DX2 analytically  !
 ! R47   R(39,42)                0.9714         calculate D2E/DX2 analytically  !
 ! R48   R(40,41)                0.9641         calculate D2E/DX2 analytically  !
 ! R49   R(42,43)                0.964          calculate D2E/DX2 analytically  !
 ! R50   R(44,45)                0.9716         calculate D2E/DX2 analytically  !
 ! R51   R(46,47)                0.9634         calculate D2E/DX2 analytically  !
 ! A1    A(2,1,11)             106.9929         calculate D2E/DX2 analytically  !
 ! A2    A(2,1,13)             129.2783         calculate D2E/DX2 analytically  !
 ! A3    A(11,1,13)            123.7288         calculate D2E/DX2 analytically  !
 ! A4    A(1,2,3)              107.2725         calculate D2E/DX2 analytically  !
 ! A5    A(1,2,5)              119.4742         calculate D2E/DX2 analytically  !
 ! A6    A(1,2,18)              96.9722         calculate D2E/DX2 analytically  !
 ! A7    A(3,2,5)              127.5368         calculate D2E/DX2 analytically  !
 ! A8    A(3,2,18)             109.637          calculate D2E/DX2 analytically  !
 ! A9    A(5,2,18)              87.9319         calculate D2E/DX2 analytically  !
 ! A10   A(2,3,4)              107.4332         calculate D2E/DX2 analytically  !
 ! A11   A(2,3,6)              126.5129         calculate D2E/DX2 analytically  !
 ! A12   A(2,3,24)             107.761          calculate D2E/DX2 analytically  !
 ! A13   A(4,3,6)              121.0797         calculate D2E/DX2 analytically  !
 ! A14   A(4,3,24)              90.4762         calculate D2E/DX2 analytically  !
 ! A15   A(6,3,24)              93.7243         calculate D2E/DX2 analytically  !
 ! A16   A(3,4,11)             107.2435         calculate D2E/DX2 analytically  !
 ! A17   A(3,4,12)             128.5583         calculate D2E/DX2 analytically  !
 ! A18   A(11,4,12)            124.1951         calculate D2E/DX2 analytically  !
 ! A19   A(8,7,9)              109.2402         calculate D2E/DX2 analytically  !
 ! A20   A(8,7,10)             109.3129         calculate D2E/DX2 analytically  !
 ! A21   A(8,7,11)             110.8834         calculate D2E/DX2 analytically  !
 ! A22   A(9,7,10)             110.1445         calculate D2E/DX2 analytically  !
 ! A23   A(9,7,11)             107.6888         calculate D2E/DX2 analytically  !
 ! A24   A(10,7,11)            109.5549         calculate D2E/DX2 analytically  !
 ! A25   A(1,11,4)             110.0149         calculate D2E/DX2 analytically  !
 ! A26   A(1,11,7)             125.0978         calculate D2E/DX2 analytically  !
 ! A27   A(4,11,7)             124.2687         calculate D2E/DX2 analytically  !
 ! A28   A(4,12,45)            120.2466         calculate D2E/DX2 analytically  !
 ! A29   A(1,13,36)            107.1521         calculate D2E/DX2 analytically  !
 ! A30   A(15,14,16)           118.2594         calculate D2E/DX2 analytically  !
 ! A31   A(15,14,18)           118.2809         calculate D2E/DX2 analytically  !
 ! A32   A(16,14,18)           122.6456         calculate D2E/DX2 analytically  !
 ! A33   A(14,16,17)           118.7036         calculate D2E/DX2 analytically  !
 ! A34   A(14,16,24)           121.6982         calculate D2E/DX2 analytically  !
 ! A35   A(17,16,24)           118.5867         calculate D2E/DX2 analytically  !
 ! A36   A(2,18,14)             98.6567         calculate D2E/DX2 analytically  !
 ! A37   A(2,18,19)             83.8358         calculate D2E/DX2 analytically  !
 ! A38   A(2,18,20)            106.233          calculate D2E/DX2 analytically  !
 ! A39   A(14,18,19)           118.064          calculate D2E/DX2 analytically  !
 ! A40   A(14,18,20)           122.4856         calculate D2E/DX2 analytically  !
 ! A41   A(19,18,20)           115.5608         calculate D2E/DX2 analytically  !
 ! A42   A(18,20,21)           110.8405         calculate D2E/DX2 analytically  !
 ! A43   A(18,20,22)           110.9203         calculate D2E/DX2 analytically  !
 ! A44   A(18,20,23)           110.4038         calculate D2E/DX2 analytically  !
 ! A45   A(21,20,22)           108.0203         calculate D2E/DX2 analytically  !
 ! A46   A(21,20,23)           107.8124         calculate D2E/DX2 analytically  !
 ! A47   A(22,20,23)           108.7432         calculate D2E/DX2 analytically  !
 ! A48   A(20,21,36)           159.6397         calculate D2E/DX2 analytically  !
 ! A49   A(3,24,16)             96.1312         calculate D2E/DX2 analytically  !
 ! A50   A(3,24,25)             87.9739         calculate D2E/DX2 analytically  !
 ! A51   A(3,24,26)            106.0207         calculate D2E/DX2 analytically  !
 ! A52   A(16,24,25)           118.7242         calculate D2E/DX2 analytically  !
 ! A53   A(16,24,26)           122.5568         calculate D2E/DX2 analytically  !
 ! A54   A(25,24,26)           114.4549         calculate D2E/DX2 analytically  !
 ! A55   A(24,26,27)           110.3081         calculate D2E/DX2 analytically  !
 ! A56   A(24,26,28)           109.9656         calculate D2E/DX2 analytically  !
 ! A57   A(24,26,34)           108.3926         calculate D2E/DX2 analytically  !
 ! A58   A(27,26,28)           108.5758         calculate D2E/DX2 analytically  !
 ! A59   A(27,26,34)           108.4782         calculate D2E/DX2 analytically  !
 ! A60   A(28,26,34)           111.1096         calculate D2E/DX2 analytically  !
 ! A61   A(26,28,45)           150.9803         calculate D2E/DX2 analytically  !
 ! A62   A(30,29,34)           119.3421         calculate D2E/DX2 analytically  !
 ! A63   A(30,29,35)           123.5687         calculate D2E/DX2 analytically  !
 ! A64   A(34,29,35)           117.0455         calculate D2E/DX2 analytically  !
 ! A65   A(29,30,31)           109.585          calculate D2E/DX2 analytically  !
 ! A66   A(29,30,32)           107.8344         calculate D2E/DX2 analytically  !
 ! A67   A(29,30,33)           110.6841         calculate D2E/DX2 analytically  !
 ! A68   A(31,30,32)           110.4139         calculate D2E/DX2 analytically  !
 ! A69   A(31,30,33)           107.5119         calculate D2E/DX2 analytically  !
 ! A70   A(32,30,33)           110.8201         calculate D2E/DX2 analytically  !
 ! A71   A(26,34,29)           122.6922         calculate D2E/DX2 analytically  !
 ! A72   A(29,35,38)           104.3965         calculate D2E/DX2 analytically  !
 ! A73   A(29,35,39)           114.3814         calculate D2E/DX2 analytically  !
 ! A74   A(38,35,39)           141.0798         calculate D2E/DX2 analytically  !
 ! A75   A(13,36,21)            80.1224         calculate D2E/DX2 analytically  !
 ! A76   A(13,36,46)           157.6486         calculate D2E/DX2 analytically  !
 ! A77   A(21,36,46)            90.7539         calculate D2E/DX2 analytically  !
 ! A78   A(35,39,42)           161.1795         calculate D2E/DX2 analytically  !
 ! A79   A(6,40,38)             87.0227         calculate D2E/DX2 analytically  !
 ! A80   A(6,40,41)             96.2916         calculate D2E/DX2 analytically  !
 ! A81   A(38,40,41)           103.2754         calculate D2E/DX2 analytically  !
 ! A82   A(39,42,43)           102.8115         calculate D2E/DX2 analytically  !
 ! A83   A(37,44,45)           105.0154         calculate D2E/DX2 analytically  !
 ! A84   A(12,45,28)            72.0053         calculate D2E/DX2 analytically  !
 ! A85   A(12,45,44)           150.2298         calculate D2E/DX2 analytically  !
 ! A86   A(28,45,44)            80.1981         calculate D2E/DX2 analytically  !
 ! A87   A(36,46,47)           104.1025         calculate D2E/DX2 analytically  !
 ! A88   L(3,6,40,15,-1)       176.104          calculate D2E/DX2 analytically  !
 ! A89   L(35,38,40,6,-1)      172.0349         calculate D2E/DX2 analytically  !
 ! A90   L(3,6,40,15,-2)       173.7265         calculate D2E/DX2 analytically  !
 ! A91   L(35,38,40,6,-2)      172.5581         calculate D2E/DX2 analytically  !
 ! D1    D(11,1,2,3)            -3.0268         calculate D2E/DX2 analytically  !
 ! D2    D(11,1,2,5)          -158.3443         calculate D2E/DX2 analytically  !
 ! D3    D(11,1,2,18)          110.0881         calculate D2E/DX2 analytically  !
 ! D4    D(13,1,2,3)           177.0654         calculate D2E/DX2 analytically  !
 ! D5    D(13,1,2,5)            21.7479         calculate D2E/DX2 analytically  !
 ! D6    D(13,1,2,18)          -69.8196         calculate D2E/DX2 analytically  !
 ! D7    D(2,1,11,4)             8.6563         calculate D2E/DX2 analytically  !
 ! D8    D(2,1,11,7)           179.9349         calculate D2E/DX2 analytically  !
 ! D9    D(13,1,11,4)         -171.4296         calculate D2E/DX2 analytically  !
 ! D10   D(13,1,11,7)           -0.151          calculate D2E/DX2 analytically  !
 ! D11   D(2,1,13,36)          -27.431          calculate D2E/DX2 analytically  !
 ! D12   D(11,1,13,36)         152.6751         calculate D2E/DX2 analytically  !
 ! D13   D(1,2,3,4)             -3.2995         calculate D2E/DX2 analytically  !
 ! D14   D(1,2,3,6)           -158.2162         calculate D2E/DX2 analytically  !
 ! D15   D(1,2,3,24)            93.0003         calculate D2E/DX2 analytically  !
 ! D16   D(5,2,3,4)            149.4124         calculate D2E/DX2 analytically  !
 ! D17   D(5,2,3,6)             -5.5042         calculate D2E/DX2 analytically  !
 ! D18   D(5,2,3,24)          -114.2877         calculate D2E/DX2 analytically  !
 ! D19   D(18,2,3,4)          -107.5356         calculate D2E/DX2 analytically  !
 ! D20   D(18,2,3,6)            97.5478         calculate D2E/DX2 analytically  !
 ! D21   D(18,2,3,24)          -11.2357         calculate D2E/DX2 analytically  !
 ! D22   D(1,2,18,14)         -152.9188         calculate D2E/DX2 analytically  !
 ! D23   D(1,2,18,19)          -35.3894         calculate D2E/DX2 analytically  !
 ! D24   D(1,2,18,20)           79.48           calculate D2E/DX2 analytically  !
 ! D25   D(3,2,18,14)          -41.7427         calculate D2E/DX2 analytically  !
 ! D26   D(3,2,18,19)           75.7867         calculate D2E/DX2 analytically  !
 ! D27   D(3,2,18,20)         -169.3439         calculate D2E/DX2 analytically  !
 ! D28   D(5,2,18,14)           87.6351         calculate D2E/DX2 analytically  !
 ! D29   D(5,2,18,19)         -154.8355         calculate D2E/DX2 analytically  !
 ! D30   D(5,2,18,20)          -39.9661         calculate D2E/DX2 analytically  !
 ! D31   D(2,3,4,11)             8.5748         calculate D2E/DX2 analytically  !
 ! D32   D(2,3,4,12)          -172.0462         calculate D2E/DX2 analytically  !
 ! D33   D(6,3,4,11)           165.1317         calculate D2E/DX2 analytically  !
 ! D34   D(6,3,4,12)           -15.4893         calculate D2E/DX2 analytically  !
 ! D35   D(24,3,4,11)         -100.2306         calculate D2E/DX2 analytically  !
 ! D36   D(24,3,4,12)           79.1484         calculate D2E/DX2 analytically  !
 ! D37   D(2,3,40,38)          178.6594         calculate D2E/DX2 analytically  !
 ! D38   D(2,3,40,41)           75.3768         calculate D2E/DX2 analytically  !
 ! D39   D(4,3,40,38)           28.6899         calculate D2E/DX2 analytically  !
 ! D40   D(4,3,40,41)          -74.5927         calculate D2E/DX2 analytically  !
 ! D41   D(24,3,40,38)         -66.1716         calculate D2E/DX2 analytically  !
 ! D42   D(24,3,40,41)        -169.4543         calculate D2E/DX2 analytically  !
 ! D43   D(2,3,24,16)           62.2039         calculate D2E/DX2 analytically  !
 ! D44   D(2,3,24,25)          -56.4724         calculate D2E/DX2 analytically  !
 ! D45   D(2,3,24,26)         -171.3585         calculate D2E/DX2 analytically  !
 ! D46   D(4,3,24,16)          170.7013         calculate D2E/DX2 analytically  !
 ! D47   D(4,3,24,25)           52.0249         calculate D2E/DX2 analytically  !
 ! D48   D(4,3,24,26)          -62.8612         calculate D2E/DX2 analytically  !
 ! D49   D(6,3,24,16)          -68.1085         calculate D2E/DX2 analytically  !
 ! D50   D(6,3,24,25)          173.2152         calculate D2E/DX2 analytically  !
 ! D51   D(6,3,24,26)           58.3291         calculate D2E/DX2 analytically  !
 ! D52   D(3,4,11,1)           -10.69           calculate D2E/DX2 analytically  !
 ! D53   D(3,4,11,7)           177.9438         calculate D2E/DX2 analytically  !
 ! D54   D(12,4,11,1)          169.8971         calculate D2E/DX2 analytically  !
 ! D55   D(12,4,11,7)           -1.4691         calculate D2E/DX2 analytically  !
 ! D56   D(3,4,12,45)         -132.075          calculate D2E/DX2 analytically  !
 ! D57   D(11,4,12,45)          47.2079         calculate D2E/DX2 analytically  !
 ! D58   D(8,7,11,1)          -103.0931         calculate D2E/DX2 analytically  !
 ! D59   D(8,7,11,4)            66.9796         calculate D2E/DX2 analytically  !
 ! D60   D(9,7,11,1)            16.3712         calculate D2E/DX2 analytically  !
 ! D61   D(9,7,11,4)          -173.5561         calculate D2E/DX2 analytically  !
 ! D62   D(10,7,11,1)          136.1654         calculate D2E/DX2 analytically  !
 ! D63   D(10,7,11,4)          -53.7619         calculate D2E/DX2 analytically  !
 ! D64   D(4,12,45,28)          80.1645         calculate D2E/DX2 analytically  !
 ! D65   D(4,12,45,44)          58.3432         calculate D2E/DX2 analytically  !
 ! D66   D(1,13,36,21)          80.9131         calculate D2E/DX2 analytically  !
 ! D67   D(1,13,36,46)          13.7654         calculate D2E/DX2 analytically  !
 ! D68   D(15,14,16,17)          0.3594         calculate D2E/DX2 analytically  !
 ! D69   D(15,14,16,24)        168.6896         calculate D2E/DX2 analytically  !
 ! D70   D(18,14,16,17)       -169.1215         calculate D2E/DX2 analytically  !
 ! D71   D(18,14,16,24)         -0.7913         calculate D2E/DX2 analytically  !
 ! D72   D(15,14,18,2)        -109.6815         calculate D2E/DX2 analytically  !
 ! D73   D(15,14,18,19)        162.721          calculate D2E/DX2 analytically  !
 ! D74   D(15,14,18,20)          5.923          calculate D2E/DX2 analytically  !
 ! D75   D(16,14,18,2)          59.7972         calculate D2E/DX2 analytically  !
 ! D76   D(16,14,18,19)        -27.8003         calculate D2E/DX2 analytically  !
 ! D77   D(16,14,18,20)        175.4017         calculate D2E/DX2 analytically  !
 ! D78   D(14,16,24,3)         -63.3185         calculate D2E/DX2 analytically  !
 ! D79   D(14,16,24,25)         27.7313         calculate D2E/DX2 analytically  !
 ! D80   D(14,16,24,26)       -176.766          calculate D2E/DX2 analytically  !
 ! D81   D(17,16,24,3)         105.0248         calculate D2E/DX2 analytically  !
 ! D82   D(17,16,24,25)       -163.9253         calculate D2E/DX2 analytically  !
 ! D83   D(17,16,24,26)         -8.4227         calculate D2E/DX2 analytically  !
 ! D84   D(2,18,20,21)         -21.0902         calculate D2E/DX2 analytically  !
 ! D85   D(2,18,20,22)          98.9025         calculate D2E/DX2 analytically  !
 ! D86   D(2,18,20,23)        -140.4851         calculate D2E/DX2 analytically  !
 ! D87   D(14,18,20,21)       -132.8813         calculate D2E/DX2 analytically  !
 ! D88   D(14,18,20,22)        -12.8886         calculate D2E/DX2 analytically  !
 ! D89   D(14,18,20,23)        107.7238         calculate D2E/DX2 analytically  !
 ! D90   D(19,18,20,21)         69.7853         calculate D2E/DX2 analytically  !
 ! D91   D(19,18,20,22)       -170.2219         calculate D2E/DX2 analytically  !
 ! D92   D(19,18,20,23)        -49.6096         calculate D2E/DX2 analytically  !
 ! D93   D(18,20,21,36)         22.8764         calculate D2E/DX2 analytically  !
 ! D94   D(22,20,21,36)        -98.833          calculate D2E/DX2 analytically  !
 ! D95   D(23,20,21,36)        143.8161         calculate D2E/DX2 analytically  !
 ! D96   D(20,21,36,13)        -65.5771         calculate D2E/DX2 analytically  !
 ! D97   D(20,21,36,46)         93.907          calculate D2E/DX2 analytically  !
 ! D98   D(3,24,26,27)        -161.4686         calculate D2E/DX2 analytically  !
 ! D99   D(3,24,26,28)          78.8064         calculate D2E/DX2 analytically  !
 ! D100  D(3,24,26,34)         -42.8356         calculate D2E/DX2 analytically  !
 ! D101  D(16,24,26,27)        -53.0977         calculate D2E/DX2 analytically  !
 ! D102  D(16,24,26,28)       -172.8227         calculate D2E/DX2 analytically  !
 ! D103  D(16,24,26,34)         65.5352         calculate D2E/DX2 analytically  !
 ! D104  D(25,24,26,27)        103.3577         calculate D2E/DX2 analytically  !
 ! D105  D(25,24,26,28)        -16.3672         calculate D2E/DX2 analytically  !
 ! D106  D(25,24,26,34)       -138.0093         calculate D2E/DX2 analytically  !
 ! D107  D(24,26,28,45)        -57.6782         calculate D2E/DX2 analytically  !
 ! D108  D(27,26,28,45)       -178.4518         calculate D2E/DX2 analytically  !
 ! D109  D(34,26,28,45)         62.3287         calculate D2E/DX2 analytically  !
 ! D110  D(24,26,34,29)        145.9571         calculate D2E/DX2 analytically  !
 ! D111  D(27,26,34,29)        -94.2578         calculate D2E/DX2 analytically  !
 ! D112  D(28,26,34,29)         25.0202         calculate D2E/DX2 analytically  !
 ! D113  D(26,28,45,12)        -11.067          calculate D2E/DX2 analytically  !
 ! D114  D(26,28,45,44)        158.1379         calculate D2E/DX2 analytically  !
 ! D115  D(34,29,30,31)         55.9742         calculate D2E/DX2 analytically  !
 ! D116  D(34,29,30,32)        176.1977         calculate D2E/DX2 analytically  !
 ! D117  D(34,29,30,33)        -62.4317         calculate D2E/DX2 analytically  !
 ! D118  D(35,29,30,31)       -121.5483         calculate D2E/DX2 analytically  !
 ! D119  D(35,29,30,32)         -1.3248         calculate D2E/DX2 analytically  !
 ! D120  D(35,29,30,33)        120.0458         calculate D2E/DX2 analytically  !
 ! D121  D(30,29,34,26)         11.9302         calculate D2E/DX2 analytically  !
 ! D122  D(35,29,34,26)       -170.3875         calculate D2E/DX2 analytically  !
 ! D123  D(30,29,35,38)       -175.2284         calculate D2E/DX2 analytically  !
 ! D124  D(30,29,35,39)          1.3661         calculate D2E/DX2 analytically  !
 ! D125  D(34,29,35,38)          7.1964         calculate D2E/DX2 analytically  !
 ! D126  D(34,29,35,39)       -176.2091         calculate D2E/DX2 analytically  !
 ! D127  D(29,35,40,6)          37.6458         calculate D2E/DX2 analytically  !
 ! D128  D(29,35,40,41)        132.7817         calculate D2E/DX2 analytically  !
 ! D129  D(39,35,40,6)        -132.1585         calculate D2E/DX2 analytically  !
 ! D130  D(39,35,40,41)        -37.0226         calculate D2E/DX2 analytically  !
 ! D131  D(29,35,39,42)        -20.5019         calculate D2E/DX2 analytically  !
 ! D132  D(38,35,39,42)        154.2434         calculate D2E/DX2 analytically  !
 ! D133  D(13,36,46,47)        140.0508         calculate D2E/DX2 analytically  !
 ! D134  D(21,36,46,47)         74.8302         calculate D2E/DX2 analytically  !
 ! D135  D(35,39,42,43)        -70.624          calculate D2E/DX2 analytically  !
 ! D136  D(37,44,45,12)        159.5038         calculate D2E/DX2 analytically  !
 ! D137  D(37,44,45,28)        138.4793         calculate D2E/DX2 analytically  !
 --------------------------------------------------------------------------------
 Trust Radius=3.00D-01 FncErr=1.00D-07 GrdErr=1.00D-06
 Number of steps in this run=    282 maximum allowed number of steps=    282.
 Search for a saddle point of order  1.
 GradGradGradGradGradGradGradGradGradGradGradGradGradGradGradGradGradGrad

                          Input orientation:                          
 ---------------------------------------------------------------------
 Center     Atomic      Atomic             Coordinates (Angstroms)
 Number     Number       Type             X           Y           Z
 ---------------------------------------------------------------------
      1          6           0        2.372238    1.077836    0.644714
      2          6           0        1.945585   -0.350099    0.699823
      3          6           0        0.563073   -0.373315    0.560894
      4          6           0        0.098498    1.035662    0.498652
      5          1           0        2.572499   -1.076635    1.212086
      6          1           0       -0.107468   -1.173909    0.875721
      7          6           0        1.194342    3.277787    0.279723
      8          1           0        0.803964    3.742146    1.196434
      9          1           0        2.221350    3.620324    0.110567
     10          1           0        0.557412    3.558723   -0.569218
     11          7           0        1.226554    1.836684    0.404950
     12          8           0       -1.041453    1.459264    0.511506
     13          8           0        3.480059    1.553398    0.772933
     14          6           0        2.076165   -2.055810   -1.568519
     15          1           0        2.464946   -3.075472   -1.496602
     16          6           0        0.696413   -1.882577   -1.763915
     17          1           0        0.059781   -2.769761   -1.831200
     18          6           0        2.923489   -1.006876   -1.253636
     19          1           0        2.648068   -0.003409   -1.591697
     20          6           0        4.375826   -1.209848   -0.947386
     21          1           0        4.664440   -0.660663   -0.041962
     22          1           0        4.597507   -2.273329   -0.784913
     23          1           0        4.998010   -0.841674   -1.777127
     24          6           0        0.094535   -0.644691   -1.636399
     25          1           0        0.688972    0.251511   -1.834024
     26          6           0       -1.393256   -0.448701   -1.771630
     27          1           0       -1.751126   -0.879251   -2.721253
     28          1           0       -1.632405    0.621283   -1.761164
     29          6           0       -3.149666   -0.679436   -0.124646
     30          6           0       -3.914931    0.432195   -0.780144
     31          1           0       -4.171501    0.145623   -1.810185
     32          1           0       -4.823368    0.604746   -0.194307
     33          1           0       -3.305711    1.343752   -0.832931
     34          8           0       -2.036434   -1.129337   -0.695906
     35          8           0       -3.511432   -1.234664    0.892231
     36          1           0        4.479229    0.361885    1.876486
     37          1           0       -2.353076    3.708584   -1.611353
     38          1           0       -2.042336   -2.461776    1.327419
     39          1           0       -5.189083   -0.599610    1.590635
     40          8           0       -1.237351   -2.923377    1.615911
     41          1           0       -1.177244   -2.699718    2.551776
     42          8           0       -5.956992   -0.030011    1.762386
     43          1           0       -5.582373    0.677762    2.299075
     44          8           0       -1.708399    2.993319   -1.650475
     45          1           0       -1.579839    2.719527   -0.727142
     46          8           0        4.691821   -0.459332    2.349258
     47          1           0        5.641049   -0.564287    2.222302
 ---------------------------------------------------------------------
                    Distance matrix (angstroms):
                    1          2          3          4          5
     1  C    0.000000
     2  C    1.491331   0.000000
     3  C    2.320763   1.389669   0.000000
     4  C    2.278817   2.317873   1.484897   0.000000
     5  H    2.236909   1.087791   2.226320   3.330386   0.000000
     6  H    3.357478   2.219151   1.090730   2.250957   2.702744
     7  C    2.521992   3.728593   3.715926   2.505180   4.661503
     8  H    3.140450   4.277428   4.171206   2.882644   5.133090
     9  H    2.602369   4.023373   4.347623   3.367134   4.837156
    10  H    3.304849   4.337785   4.091223   2.777910   5.359120
    11  N    1.394966   2.320770   2.312709   1.386696   3.309149
    12  O    3.437516   3.497378   2.436245   1.216179   4.470150
    13  O    1.212381   2.446070   3.502284   3.431943   2.816664
    14  C    3.847830   2.841105   3.107191   4.212073   2.989464
    15  H    4.673735   3.538598   3.892565   5.146119   3.368072
    16  C    4.168204   3.158944   2.774957   3.740699   3.609131
    17  H    5.126559   3.977072   3.423210   4.462169   4.294417
    18  C    2.872914   2.281152   3.043925   3.901673   2.491555
    19  H    2.499341   2.421723   3.019550   3.456810   3.003119
    20  C    3.432586   3.059173   4.184708   5.042705   2.816568
    21  H    2.957717   2.835290   4.155384   4.900776   2.474245
    22  H    4.269188   3.596657   4.658101   5.730449   3.085569
    23  H    4.055183   3.961594   5.035312   5.719159   3.856644
    24  C    3.654929   2.995180   2.263022   2.716992   3.800098
    25  H    3.108109   2.891607   2.478284   2.530796   3.819742
    26  C    4.727365   4.155197   3.045254   3.095617   5.002407
    27  H    5.671160   5.064527   4.047713   4.178013   5.848406
    28  H    4.694023   4.449950   3.346835   2.876544   5.422579
    29  C    5.845626   5.172020   3.787889   3.725672   5.889634
    30  C    6.478855   6.094911   4.743390   4.255244   6.952143
    31  H    7.050962   6.630582   5.320480   4.935158   7.490632
    32  H    7.259788   6.894195   5.526362   4.989053   7.713873
    33  H    5.873096   5.726655   4.456294   3.668334   6.677853
    34  O    5.109331   4.290891   2.984720   3.266822   4.988534
    35  O    6.326649   5.531592   4.177714   4.282625   6.094382
    36  H    2.543474   2.882847   4.196139   4.641466   2.479191
    37  H    5.859971   6.347671   5.466670   4.196052   7.425053
    38  H    5.699421   4.555938   3.425987   4.183551   4.819608
    39  H    7.802703   7.194393   5.847980   5.641370   7.785436
    40  O    5.475588   4.194289   3.295057   4.325130   4.253056
    41  H    5.523189   4.324639   3.521997   4.449258   4.299970
    42  O    8.476591   7.980114   6.638726   6.277073   8.611067
    43  H    8.134667   7.764294   6.472445   5.970085   8.411979
    44  O    5.058514   5.482148   4.624280   3.422871   6.563907
    45  H    4.494002   4.887479   3.977032   2.674843   5.950913
    46  O    3.263253   3.205367   4.500245   5.172849   2.483093
    47  H    3.983777   4.002533   5.346269   6.020854   3.270938
                    6          7          8          9         10
     6  H    0.000000
     7  C    4.676272   0.000000
     8  H    5.010106   1.099265   0.000000
     9  H    5.384563   1.095760   1.789673   0.000000
    10  H    4.992767   1.097864   1.792194   1.798497   0.000000
    11  N    3.326396   1.446892   2.106137   2.063408   2.088581
    12  O    2.817549   2.891285   3.014339   3.934058   2.851677
    13  O    4.507673   2.905387   3.483024   2.509036   3.790061
    14  C    3.394158   5.713219   6.548263   5.921056   5.901542
    15  H    3.982609   6.718159   7.516064   6.890284   6.965003
    16  C    2.848879   5.572589   6.357102   6.010078   5.572645
    17  H    3.146766   6.505080   7.219786   7.019688   6.472244
    18  C    3.707932   4.868211   5.748777   4.874939   5.187624
    19  H    3.879588   4.047441   5.020316   4.026317   4.255008
    20  C    4.839931   5.636178   6.471198   5.393662   6.120667
    21  H    4.886376   5.258940   5.985117   4.931410   5.911759
    22  H    5.109131   6.597717   7.382591   6.417410   7.098008
    23  H    5.763149   5.972310   6.887924   5.584143   6.367217
    24  C    2.575194   4.501881   5.269969   5.075981   4.361401
    25  H    3.163678   3.725812   4.624006   4.180732   3.543260
    26  C    3.031113   4.978998   5.585730   5.758907   4.616313
    27  H    3.965685   5.912918   6.575262   6.636712   5.445752
    28  H    3.535719   4.383233   4.941970   5.229632   3.852867
    29  C    3.240402   5.890122   6.076745   6.884118   5.648191
    30  C    4.451767   5.943516   6.093489   6.972193   5.460908
    31  H    5.046942   6.555184   6.835934   7.525382   5.962539
    32  H    5.152503   6.601718   6.591229   7.669075   6.149742
    33  H    4.414393   5.022845   5.173011   6.051559   4.460870
    34  O    2.488555   5.550901   5.948122   6.429495   5.359290
    35  O    3.404546   6.548411   6.594226   7.552926   6.455067
    36  H    4.939431   4.673609   5.039465   4.339806   5.619777
    37  H    5.921742   4.043010   4.225127   4.888576   3.095068
    38  H    2.367773   6.672056   6.826949   7.526732   6.826590
    39  H    5.163694   7.582929   7.410995   8.655227   7.414776
    40  O    2.210239   6.793597   6.983704   7.553059   7.072028
    41  H    2.506327   6.820353   6.874573   7.579767   7.205395
    42  O    6.025911   8.017568   7.762731   9.107070   7.794411
    43  H    5.952244   7.534041   7.168791   8.622432   7.363695
    44  O    5.129370   3.497498   3.870091   4.351704   2.573460
    45  H    4.460481   3.003583   3.229305   3.995276   2.301528
    46  O    5.071006   5.520996   5.839251   5.268639   6.461858
    47  H    5.935517   6.189374   6.557070   5.802132   7.115839
                   11         12         13         14         15
    11  N    0.000000
    12  O    2.301664   0.000000
    13  O    2.300858   4.530042   0.000000
    14  C    4.446114   5.138267   4.525450   0.000000
    15  H    5.410988   6.073810   5.254301   1.093633   0.000000
    16  C    4.337963   4.400639   5.098059   1.404245   2.149922
    17  H    5.251767   4.958391   6.096681   2.155118   2.447495
    18  C    3.703556   4.991827   3.312364   1.384692   2.132694
    19  H    3.064840   4.491708   2.950819   2.130718   3.078985
    20  C    4.585639   6.212844   3.376007   2.527825   2.726473
    21  H    4.272649   6.112089   2.639863   3.313001   3.575619
    22  H    5.447137   6.885552   4.280118   2.649249   2.386996
    23  H    5.114581   6.856185   3.813575   3.170934   3.388947
    24  C    3.406728   3.214124   4.700877   2.433664   3.398101
    25  H    2.795491   3.155083   4.035009   2.705278   3.786391
    26  C    4.101693   2.996132   5.850846   3.828960   4.675606
    27  H    5.100591   4.052532   6.744806   4.166683   4.909014
    28  H    3.787202   2.493284   5.781676   4.577929   5.524878
    29  C    5.075690   3.069738   7.052975   5.593611   6.256766
    30  C    5.460028   3.313624   7.639046   6.534901   7.315728
    31  H    6.074990   4.112554   8.197603   6.628578   7.383510
    32  H    6.203091   3.940971   8.413227   7.521341   8.267980
    33  H    4.724062   2.635852   6.976348   6.408018   7.298663
    34  O    4.544915   3.024679   6.307634   4.305029   4.969002
    35  O    5.667374   3.674642   7.527846   6.160423   6.694191
    36  H    3.862686   5.791834   1.906797   4.846445   5.220199
    37  H    4.514780   3.359513   6.659963   7.269680   8.321654
    38  H    5.478444   4.128200   6.850250   5.051071   5.354186
    39  H    6.964322   4.754610   8.969844   8.055098   8.616559
    40  O    5.495037   4.523895   6.557902   4.676821   4.839202
    41  H    5.564715   4.634466   6.553148   5.289246   5.458581
    42  O    7.545231   5.286319   9.619986   8.929188   9.530209
    43  H    7.161864   4.942277   9.231659   9.004660   9.656773
    44  O    3.765173   2.733551   5.904776   6.310574   7.366866
    45  H    3.152283   1.847260   5.404873   6.072736   7.108753
    46  O    4.589128   6.318922   2.829178   4.973869   5.156918
    47  H    5.343706   7.188700   3.354868   5.413258   5.497629
                   16         17         18         19         20
    16  C    0.000000
    17  H    1.094040   0.000000
    18  C    2.446856   3.412062   0.000000
    19  H    2.714754   3.795958   1.094115   0.000000
    20  C    3.828494   4.673617   1.498089   2.203583   0.000000
    21  H    4.494823   5.371457   2.149169   2.626674   1.097586
    22  H    4.040998   4.683174   2.150800   3.098992   1.098422
    23  H    4.425764   5.301561   2.145920   2.501859   1.100516
    24  C    1.382346   2.134263   2.877615   2.633206   4.373053
    25  H    2.135252   3.086094   2.629345   1.990418   4.063815
    26  C    2.534320   2.739012   4.383396   4.069762   5.877162
    27  H    2.813113   2.765069   4.901246   4.625571   6.387131
    28  H    3.419461   3.790459   4.864633   4.329135   6.333570
    29  C    4.350526   4.193130   6.185875   6.018552   7.588891
    30  C    5.252663   5.211101   7.004221   6.627317   8.453456
    31  H    5.273739   5.138448   7.209500   6.824696   8.697041
    32  H    6.254473   6.157261   7.983314   7.625281   9.406649
    33  H    5.224263   5.407778   6.671235   6.151264   8.095677
    34  O    3.029268   2.893787   4.992684   4.900481   6.417694
    35  O    5.018054   4.746279   6.787108   6.754652   8.098990
    36  H    5.709626   6.563967   3.753864   3.938894   3.233464
    37  H    6.370537   6.916586   7.085595   6.228220   8.361217
    38  H    4.170439   3.806655   5.782560   6.046875   6.923501
    39  H    6.894786   6.630919   8.606368   8.479601   9.914708
    40  O    4.030624   3.686289   5.405540   5.823353   6.404251
    41  H    4.775301   4.554736   5.844903   6.250717   6.730560
    42  O    7.754650   7.524736   9.429401   9.235672  10.747186
    43  H    7.904833   7.796056   9.370670   9.129198  10.642758
    44  O    5.437863   6.030938   6.132979   5.287971   7.428239
    45  H    5.237899   5.834345   5.868836   5.102650   7.138518
    46  O    5.908223   6.653578   4.050635   4.462725   3.395731
    47  H    6.486697   7.241930   4.434316   4.880482   3.473393
                   21         22         23         24         25
    21  H    0.000000
    22  H    1.776836   0.000000
    23  H    1.776185   1.787324   0.000000
    24  C    4.840095   4.863563   4.909447   0.000000
    25  H    4.455097   4.769916   4.445908   1.093430   0.000000
    26  C    6.303361   6.339725   6.403338   1.506725   2.197695
    27  H    6.955995   6.782183   6.814956   2.153692   2.831939
    28  H    6.652015   6.938562   6.789912   2.144896   2.351772
    29  C    7.814566   7.936948   8.315145   3.579308   4.303926
    30  C    8.680142   8.932048   9.058545   4.238947   4.726440
    31  H    9.047130   9.154125   9.222569   4.342103   4.861685
    32  H    9.573033   9.868385  10.052707   5.275082   5.761887
    33  H    8.256308   8.691745   8.638251   4.020092   4.260595
    34  O    6.749001   6.732445   7.122864   2.379167   3.260351
    35  O    8.249065   8.345450   8.926954   4.443539   5.223464
    36  H    2.181823   3.747184   3.881569   5.707810   5.305291
    37  H    8.414205   9.207437   8.647011   4.994240   4.610314
    38  H    7.078139   6.970292   7.863168   4.080715   4.981635
    39  H    9.988044  10.208913  10.732068   6.191316   6.855963
    40  O    6.534490   6.342877   7.397697   4.188538   5.068795
    41  H    6.708986   6.683042   7.766949   4.835428   5.606046
    42  O   10.792044  11.086869  11.541188   6.967822   7.561895
    43  H   10.595707  11.038563  11.439782   7.033073   7.522896
    44  O    7.520105   8.261430   7.726521   4.060282   3.646723
    45  H    7.133455   7.943019   7.553325   3.866295   3.530410
    46  O    2.399837   3.622500   4.155357   6.087270   5.833348
    47  H    2.467781   3.612914   4.060280   6.757208   6.453090
                   26         27         28         29         30
    26  C    0.000000
    27  H    1.102374   0.000000
    28  H    1.096434   1.785348   0.000000
    29  C    2.418837   2.956046   2.583049   0.000000
    30  C    2.849187   3.189020   2.491602   1.500344   0.000000
    31  H    2.841365   2.781839   2.583731   2.136799   1.099516
    32  H    3.919613   4.245748   3.554934   2.110747   1.094640
    33  H    2.784157   3.305183   2.045368   2.149257   1.097666
    34  O    1.426228   2.060576   2.088704   1.329675   2.444224
    35  O    3.492930   4.035129   3.743766   1.213751   2.395427
    36  H    6.960738   7.841999   7.117012   7.955433   8.804803
    37  H    4.269656   4.758409   3.173836   4.701018   3.723577
    38  H    3.752050   4.356711   4.383223   2.551746   4.040235
    39  H    5.073056   5.521786   5.037370   2.666043   2.882478
    40  O    4.198066   4.822179   4.911753   3.423705   4.916338
    41  H    4.879096   5.607876   5.462387   3.890401   5.329681
    42  O    5.787249   6.205927   5.616195   3.444375   3.293646
    43  H    5.948803   6.504340   5.664890   3.692489   3.510307
    44  O    3.458539   4.018108   2.375833   4.230193   3.490790
    45  H    3.341173   4.117890   2.339785   3.792138   3.269152
    46  O    7.349149   8.209627   7.619654   8.225422   9.201313
    47  H    8.089889   8.898437   8.377154   9.099346  10.066003
                   31         32         33         34         35
    31  H    0.000000
    32  H    1.801884   0.000000
    33  H    1.772041   1.804786   0.000000
    34  O    2.725005   3.320489   2.783165   0.000000
    35  O    3.105469   2.507024   3.109137   2.169998   0.000000
    36  H    9.406032   9.533387   8.301222   7.162039   8.207825
    37  H    4.005109   4.212383   2.665687   4.933942   5.660868
    38  H    4.601786   4.410595   4.554698   2.422658   1.963017
    39  H    3.627178   2.184088   3.632825   3.930404   1.924987
    40  O    5.455835   5.346406   5.336978   3.033416   2.923510
    41  H    6.007349   5.635129   5.686498   3.708334   3.216972
    42  O    3.997760   2.348759   3.956284   4.756311   2.861664
    43  H    4.377185   2.607369   3.928892   4.980884   3.150457
    44  O    3.768521   4.186734   2.437387   4.244420   5.252820
    45  H    3.809813   3.908541   2.209657   3.875978   4.689248
    46  O    9.809455   9.906604   8.794200   7.415615   8.367642
    47  H   10.632547  10.803271   9.644666   8.232798   9.272885
                   36         37         38         39         40
    36  H    0.000000
    37  H    8.369337   0.000000
    38  H    7.127787   6.841512   0.000000
    39  H    9.720208   6.070931   3.665919   0.000000
    40  O    6.598495   7.459422   0.971753   4.584399   0.000000
    41  H    6.467234   7.731789   1.517910   4.629157   0.964095
    42  O   10.444200   6.192529   4.628953   0.971404   5.537873
    43  H   10.075425   5.908104   4.830391   1.512694   5.684552
    44  O    7.592802   0.963713   6.223940   5.960629   6.774840
    45  H    7.003546   1.535564   5.592944   5.423597   6.119605
    46  O    0.971136   9.093324   7.099493   9.910976   6.462538
    47  H    1.525519   9.841767   7.964652  10.848595   7.296945
                   41         42         43         44         45
    41  H    0.000000
    42  O    5.531407   0.000000
    43  H    5.556653   0.964011   0.000000
    44  O    7.095894   6.232069   5.997368   0.000000
    45  H    6.346779   5.737349   5.417294   0.971614   0.000000
    46  O    6.285401  10.673610  10.337048   8.299487   7.674836
    47  H    7.152464  11.619446  11.292200   9.037109   8.463089
                   46         47
    46  O    0.000000
    47  H    0.963414   0.000000
 Stoichiometry    C13H25NO8
 Framework group  C1[X(C13H25NO8)]
 Deg. of freedom   135
 Full point group                 C1      NOp   1
 Largest Abelian subgroup         C1      NOp   1
 Largest concise Abelian subgroup C1      NOp   1
                         Standard orientation:                         
 ---------------------------------------------------------------------
 Center     Atomic      Atomic             Coordinates (Angstroms)
 Number     Number       Type             X           Y           Z
 ---------------------------------------------------------------------
      1          6           0        2.372238    1.077836    0.644714
      2          6           0        1.945585   -0.350099    0.699823
      3          6           0        0.563073   -0.373315    0.560894
      4          6           0        0.098498    1.035662    0.498652
      5          1           0        2.572499   -1.076635    1.212086
      6          1           0       -0.107468   -1.173909    0.875721
      7          6           0        1.194342    3.277787    0.279723
      8          1           0        0.803964    3.742146    1.196434
      9          1           0        2.221350    3.620324    0.110567
     10          1           0        0.557412    3.558723   -0.569218
     11          7           0        1.226554    1.836684    0.404950
     12          8           0       -1.041453    1.459264    0.511506
     13          8           0        3.480059    1.553398    0.772933
     14          6           0        2.076165   -2.055810   -1.568519
     15          1           0        2.464946   -3.075472   -1.496602
     16          6           0        0.696413   -1.882577   -1.763915
     17          1           0        0.059781   -2.769761   -1.831200
     18          6           0        2.923489   -1.006876   -1.253636
     19          1           0        2.648068   -0.003409   -1.591697
     20          6           0        4.375826   -1.209848   -0.947386
     21          1           0        4.664440   -0.660663   -0.041962
     22          1           0        4.597507   -2.273329   -0.784913
     23          1           0        4.998010   -0.841674   -1.777127
     24          6           0        0.094535   -0.644691   -1.636399
     25          1           0        0.688972    0.251511   -1.834024
     26          6           0       -1.393256   -0.448701   -1.771630
     27          1           0       -1.751126   -0.879251   -2.721253
     28          1           0       -1.632405    0.621283   -1.761164
     29          6           0       -3.149666   -0.679436   -0.124646
     30          6           0       -3.914931    0.432195   -0.780144
     31          1           0       -4.171501    0.145623   -1.810185
     32          1           0       -4.823368    0.604746   -0.194307
     33          1           0       -3.305711    1.343752   -0.832931
     34          8           0       -2.036434   -1.129337   -0.695906
     35          8           0       -3.511432   -1.234664    0.892231
     36          1           0        4.479229    0.361885    1.876486
     37          1           0       -2.353076    3.708584   -1.611353
     38          1           0       -2.042336   -2.461776    1.327419
     39          1           0       -5.189083   -0.599610    1.590635
     40          8           0       -1.237351   -2.923377    1.615911
     41          1           0       -1.177244   -2.699718    2.551776
     42          8           0       -5.956992   -0.030011    1.762386
     43          1           0       -5.582373    0.677762    2.299075
     44          8           0       -1.708399    2.993319   -1.650475
     45          1           0       -1.579839    2.719527   -0.727142
     46          8           0        4.691821   -0.459332    2.349258
     47          1           0        5.641049   -0.564287    2.222302
 ---------------------------------------------------------------------
 Rotational constants (GHZ):      0.3704008      0.1615562      0.1458650
 Standard basis: def2SVP (5D, 7F)
 There are   455 symmetry adapted cartesian basis functions of A   symmetry.
 There are   433 symmetry adapted basis functions of A   symmetry.
   433 basis functions,   725 primitive gaussians,   455 cartesian basis functions
    87 alpha electrons       87 beta electrons
       nuclear repulsion energy      2065.9836856020 Hartrees.
 NAtoms=   47 NActive=   47 NUniq=   47 SFac= 1.00D+00 NAtFMM=   60 NAOKFM=F Big=F
 Integral buffers will be    131072 words long.
 Raffenetti 2 integral format.
 Two-electron integral symmetry is turned on.
 Nuclear repulsion after empirical dispersion term =     2065.9795938707 Hartrees.
 Force inversion solution in PCM.
 ------------------------------------------------------------------------------
 Polarizable Continuum Model (PCM)
 =================================
 Model                : C-PCM.
 Atomic radii         : UFF (Universal Force Field).
 Polarization charges : Total charges.
 Charge compensation  : None.
 Solution method      : Matrix inversion.
 Cavity type          : Scaled VdW (van der Waals Surface) (Alpha=1.100).
 Cavity algorithm     : GePol (No added spheres)
                        Default sphere list used, NSphG=   47.
                        Lebedev-Laikov grids with approx.  5.0 points / Ang**2.
                        Smoothing algorithm: Karplus/York (Gamma=1.0000).
                        Polarization charges: spherical gaussians, with
                                              point-specific exponents (IZeta= 3).
                        Self-potential: point-specific (ISelfS= 7).
                        Self-field    : sphere-specific E.n sum rule (ISelfD= 2).
 1st derivatives      : Analytical E(r).r(x)/FMM algorithm (CHGder, D1EAlg=3).
                        Cavity 1st derivative terms included.
 2nd derivatives      : Analytical E(r).r(xy)/FMM algorithm (CHGder, D2EAlg=3).
                        Cavity 2nd derivative terms included.
 Solvent              : Toluene, Eps=   2.374100 Eps(inf)=   2.238315
 ------------------------------------------------------------------------------
 One-electron integrals computed using PRISM.
   1 Symmetry operations used in ECPInt.
 ECPInt:  NShTT=   21528 NPrTT=   76216 LenC2=   19197 LenP2D=   46896.
 LDataN:  DoStor=T MaxTD1= 4 Len=   56
 NBasis=   433 RedAO= T EigKep=  3.40D-04  NBF=   433
 NBsUse=   433 1.00D-06 EigRej= -1.00D+00 NBFU=   433
 ExpMin= 1.22D-01 ExpMax= 2.27D+03 ExpMxC= 3.41D+02 IAcc=1 IRadAn=         1 AccDes= 0.00D+00
 Harris functional with IExCor= 1009 and IRadAn=       1 diagonalized for initial guess.
 HarFok:  IExCor= 1009 AccDes= 0.00D+00 IRadAn=         1 IDoV= 1 UseB2=F ITyADJ=14
 ICtDFT=  3500011 ScaDFX=  1.000000  1.000000  1.000000  1.000000
 FoFCou: FMM=F IPFlag=           0 FMFlag=      100000 FMFlg1=           0
         NFxFlg=           0 DoJE=T BraDBF=F KetDBF=T FulRan=T
         wScrn=  0.000000 ICntrl=     500 IOpCl=  0 I1Cent=   200000004 NGrid=           0
         NMat0=    1 NMatS0=      1 NMatT0=    0 NMatD0=    1 NMtDS0=    0 NMtDT0=    0
 Petite list used in FoFCou.
 Requested convergence on RMS density matrix=1.00D-08 within 128 cycles.
 Requested convergence on MAX density matrix=1.00D-06.
 Requested convergence on             energy=1.00D-06.
 No special actions if energy rises.
 Inv3:  Mode=2 IEnd=    21190050.
 Iteration    1 A*A^-1 deviation from unit magnitude is 5.33D-15 for   3247.
 Iteration    1 A*A^-1 deviation from orthogonality  is 2.74D-15 for   3207   1708.
 Iteration    1 A^-1*A deviation from unit magnitude is 5.11D-15 for   3213.
 Iteration    1 A^-1*A deviation from orthogonality  is 2.43D-15 for   3247   3209.
 Error on total polarization charges =  0.00504
 SCF Done:  E(RM062X) =  -1165.59624571     A.U. after   15 cycles
            NFock= 15  Conv=0.26D-08     -V/T= 2.0091
 DoSCS=F DFT=T ScalE2(SS,OS)=  1.000000  1.000000
 Range of M.O.s used for correlation:     1   433
 NBasis=   433 NAE=    87 NBE=    87 NFC=     0 NFV=     0
 NROrb=    433 NOA=    87 NOB=    87 NVA=   346 NVB=   346
 PrsmSu:  requested number of processors reduced to:   1 ShMem   1 Linda.
   1 Symmetry operations used in ECPInt.
 ECPInt:  NShTT=   21528 NPrTT=   76216 LenC2=   19197 LenP2D=   46896.
 LDataN:  DoStor=T MaxTD1= 5 Len=  102
 Number of processors reduced to   1 by ecpmxn.
 Symmetrizing basis deriv contribution to polar:
 IMax=3 JMax=2 DiffMx= 0.00D+00
 G2DrvN: will do    12 centers at a time, making    4 passes.
 Calling FoFCou, ICntrl=  3107 FMM=F I1Cent=   0 AccDes= 0.00D+00.
 Calling FoFCou, ICntrl=  3107 FMM=F I1Cent=   0 AccDes= 0.00D+00.
 Calling FoFCou, ICntrl=  3107 FMM=F I1Cent=   0 AccDes= 0.00D+00.
 Calling FoFCou, ICntrl=  3107 FMM=F I1Cent=   0 AccDes= 0.00D+00.
 NEqPCM:  Using equilibrium solvation (IEInf=0, Eps=   2.3741, EpsInf=   2.2383)
 G2PCM: DoFxE=T DoFxN=T DoGrad=T DoDP/DQ/DG/TGxP=FFFF NFrqRd=   0 IEInf=0 SqF1=F DoCFld=F IF1Alg=4.
 End of G2Drv F.D. properties file   721 does not exist.
 End of G2Drv F.D. properties file   722 does not exist.
 End of G2Drv F.D. properties file   788 does not exist.
          IDoAtm=11111111111111111111111111111111111111111111111
 NEqPCM:  Using equilibrium solvation (IEInf=0, Eps=   2.3741, EpsInf=   2.2383)
          Differentiating once with respect to nuclear coordinates.
          There are   144 degrees of freedom in the 1st order CPHF.  IDoFFX=6 NUNeed=     0.
    141 vectors produced by pass  0 Test12= 3.01D-14 1.00D-09 XBig12= 1.69D-01 1.50D-01.
 AX will form    16 AO Fock derivatives at one time.
    141 vectors produced by pass  1 Test12= 3.01D-14 1.00D-09 XBig12= 7.50D-02 6.15D-02.
    138 vectors produced by pass  2 Test12= 3.01D-14 1.00D-09 XBig12= 9.01D-04 4.07D-03.
    138 vectors produced by pass  3 Test12= 3.01D-14 1.00D-09 XBig12= 6.91D-06 3.23D-04.
    138 vectors produced by pass  4 Test12= 3.01D-14 1.00D-09 XBig12= 3.62D-08 2.17D-05.
    138 vectors produced by pass  5 Test12= 3.01D-14 1.00D-09 XBig12= 1.36D-10 9.97D-07.
     74 vectors produced by pass  6 Test12= 3.01D-14 1.00D-09 XBig12= 3.97D-13 5.03D-08.
      4 vectors produced by pass  7 Test12= 3.01D-14 1.00D-09 XBig12= 1.18D-15 2.84D-09.
      2 vectors produced by pass  8 Test12= 3.01D-14 1.00D-09 XBig12= 6.98D-16 1.86D-09.
 InvSVY:  IOpt=1 It=  1 EMax= 5.55D-16
 Solved reduced A of dimension   914 with   144 vectors.
 End of Minotr F.D. properties file   721 does not exist.
 End of Minotr F.D. properties file   722 does not exist.
 End of Minotr F.D. properties file   788 does not exist.

 **********************************************************************

            Population analysis using the SCF density.

 **********************************************************************

 Orbital symmetries:
       Occupied  (A) (A) (A) (A) (A) (A) (A) (A) (A) (A) (A) (A)
                 (A) (A) (A) (A) (A) (A) (A) (A) (A) (A) (A) (A)
                 (A) (A) (A) (A) (A) (A) (A) (A) (A) (A) (A) (A)
                 (A) (A) (A) (A) (A) (A) (A) (A) (A) (A) (A) (A)
                 (A) (A) (A) (A) (A) (A) (A) (A) (A) (A) (A) (A)
                 (A) (A) (A) (A) (A) (A) (A) (A) (A) (A) (A) (A)
                 (A) (A) (A) (A) (A) (A) (A) (A) (A) (A) (A) (A)
                 (A) (A) (A)
       Virtual   (A) (A) (A) (A) (A) (A) (A) (A) (A) (A) (A) (A)
                 (A) (A) (A) (A) (A) (A) (A) (A) (A) (A) (A) (A)
                 (A) (A) (A) (A) (A) (A) (A) (A) (A) (A) (A) (A)
                 (A) (A) (A) (A) (A) (A) (A) (A) (A) (A) (A) (A)
                 (A) (A) (A) (A) (A) (A) (A) (A) (A) (A) (A) (A)
                 (A) (A) (A) (A) (A) (A) (A) (A) (A) (A) (A) (A)
                 (A) (A) (A) (A) (A) (A) (A) (A) (A) (A) (A) (A)
                 (A) (A) (A) (A) (A) (A) (A) (A) (A) (A) (A) (A)
                 (A) (A) (A) (A) (A) (A) (A) (A) (A) (A) (A) (A)
                 (A) (A) (A) (A) (A) (A) (A) (A) (A) (A) (A) (A)
                 (A) (A) (A) (A) (A) (A) (A) (A) (A) (A) (A) (A)
                 (A) (A) (A) (A) (A) (A) (A) (A) (A) (A) (A) (A)
                 (A) (A) (A) (A) (A) (A) (A) (A) (A) (A) (A) (A)
                 (A) (A) (A) (A) (A) (A) (A) (A) (A) (A) (A) (A)
                 (A) (A) (A) (A) (A) (A) (A) (A) (A) (A) (A) (A)
                 (A) (A) (A) (A) (A) (A) (A) (A) (A) (A) (A) (A)
                 (A) (A) (A) (A) (A) (A) (A) (A) (A) (A) (A) (A)
                 (A) (A) (A) (A) (A) (A) (A) (A) (A) (A) (A) (A)
                 (A) (A) (A) (A) (A) (A) (A) (A) (A) (A) (A) (A)
                 (A) (A) (A) (A) (A) (A) (A) (A) (A) (A) (A) (A)
                 (A) (A) (A) (A) (A) (A) (A) (A) (A) (A) (A) (A)
                 (A) (A) (A) (A) (A) (A) (A) (A) (A) (A) (A) (A)
                 (A) (A) (A) (A) (A) (A) (A) (A) (A) (A) (A) (A)
                 (A) (A) (A) (A) (A) (A) (A) (A) (A) (A) (A) (A)
                 (A) (A) (A) (A) (A) (A) (A) (A) (A) (A) (A) (A)
                 (A) (A) (A) (A) (A) (A) (A) (A) (A) (A) (A) (A)
                 (A) (A) (A) (A) (A) (A) (A) (A) (A) (A) (A) (A)
                 (A) (A) (A) (A) (A) (A) (A) (A) (A) (A) (A) (A)
                 (A) (A) (A) (A) (A) (A) (A) (A) (A) (A)
 The electronic state is 1-A.
 Alpha  occ. eigenvalues --  -19.68867 -19.64763 -19.64463 -19.63979 -19.62784
 Alpha  occ. eigenvalues --  -19.61146 -19.60417 -19.60301 -14.81581 -10.70694
 Alpha  occ. eigenvalues --  -10.69081 -10.68882 -10.62757 -10.59946 -10.59202
 Alpha  occ. eigenvalues --  -10.59176 -10.58145 -10.58017 -10.57113 -10.56571
 Alpha  occ. eigenvalues --  -10.56424 -10.55411  -1.23772  -1.19818  -1.17826
 Alpha  occ. eigenvalues --   -1.14424  -1.10565  -1.09106  -1.08369  -1.08281
 Alpha  occ. eigenvalues --   -1.07168  -0.94295  -0.91044  -0.88519  -0.84412
 Alpha  occ. eigenvalues --   -0.82588  -0.79630  -0.76915  -0.74903  -0.70128
 Alpha  occ. eigenvalues --   -0.69787  -0.66259  -0.63243  -0.62010  -0.61197
 Alpha  occ. eigenvalues --   -0.59979  -0.59559  -0.59075  -0.58668  -0.57795
 Alpha  occ. eigenvalues --   -0.57758  -0.56953  -0.56592  -0.54981  -0.54822
 Alpha  occ. eigenvalues --   -0.53049  -0.52533  -0.51223  -0.50617  -0.50490
 Alpha  occ. eigenvalues --   -0.49749  -0.48538  -0.48464  -0.47883  -0.47276
 Alpha  occ. eigenvalues --   -0.47225  -0.46484  -0.46201  -0.45674  -0.44860
 Alpha  occ. eigenvalues --   -0.44746  -0.44243  -0.43570  -0.42501  -0.41960
 Alpha  occ. eigenvalues --   -0.41741  -0.38998  -0.38458  -0.37992  -0.37591
 Alpha  occ. eigenvalues --   -0.37252  -0.36896  -0.36488  -0.35302  -0.34998
 Alpha  occ. eigenvalues --   -0.30333  -0.29263
 Alpha virt. eigenvalues --   -0.04790  -0.01754   0.04227   0.07113   0.07747
 Alpha virt. eigenvalues --    0.08749   0.09908   0.10202   0.11105   0.11722
 Alpha virt. eigenvalues --    0.12357   0.12620   0.13145   0.13971   0.14293
 Alpha virt. eigenvalues --    0.16066   0.16441   0.17137   0.17389   0.18302
 Alpha virt. eigenvalues --    0.18895   0.19710   0.20225   0.20297   0.21078
 Alpha virt. eigenvalues --    0.21153   0.22110   0.22504   0.23442   0.24310
 Alpha virt. eigenvalues --    0.24795   0.25360   0.25967   0.26717   0.27125
 Alpha virt. eigenvalues --    0.27611   0.29429   0.29797   0.30547   0.33472
 Alpha virt. eigenvalues --    0.33931   0.35617   0.36694   0.38086   0.39514
 Alpha virt. eigenvalues --    0.40397   0.41743   0.43206   0.44105   0.45586
 Alpha virt. eigenvalues --    0.46370   0.46936   0.47854   0.48237   0.49169
 Alpha virt. eigenvalues --    0.49899   0.50453   0.50814   0.51791   0.52325
 Alpha virt. eigenvalues --    0.53854   0.55580   0.56744   0.57553   0.58779
 Alpha virt. eigenvalues --    0.60694   0.61085   0.61697   0.62291   0.63091
 Alpha virt. eigenvalues --    0.64049   0.64364   0.64608   0.65165   0.66165
 Alpha virt. eigenvalues --    0.66500   0.66576   0.67588   0.68060   0.68328
 Alpha virt. eigenvalues --    0.68721   0.69074   0.69797   0.69889   0.70405
 Alpha virt. eigenvalues --    0.70649   0.71118   0.71547   0.71673   0.72098
 Alpha virt. eigenvalues --    0.72584   0.73082   0.73273   0.73656   0.74101
 Alpha virt. eigenvalues --    0.74726   0.75024   0.76335   0.76615   0.77168
 Alpha virt. eigenvalues --    0.77848   0.78629   0.79135   0.80147   0.80327
 Alpha virt. eigenvalues --    0.81105   0.81759   0.83069   0.84347   0.85610
 Alpha virt. eigenvalues --    0.87762   0.88933   0.90037   0.90820   0.91964
 Alpha virt. eigenvalues --    0.93772   0.95707   0.97779   0.98011   0.99312
 Alpha virt. eigenvalues --    1.00169   1.01153   1.01498   1.03105   1.04385
 Alpha virt. eigenvalues --    1.05250   1.06677   1.07883   1.08170   1.09260
 Alpha virt. eigenvalues --    1.09836   1.10315   1.10491   1.12158   1.13826
 Alpha virt. eigenvalues --    1.14406   1.14931   1.16517   1.17333   1.19043
 Alpha virt. eigenvalues --    1.19439   1.20827   1.22073   1.22325   1.24109
 Alpha virt. eigenvalues --    1.25270   1.26932   1.27008   1.28227   1.29881
 Alpha virt. eigenvalues --    1.30602   1.31228   1.32561   1.33520   1.34029
 Alpha virt. eigenvalues --    1.36241   1.36718   1.38227   1.38933   1.39307
 Alpha virt. eigenvalues --    1.40191   1.42464   1.43489   1.44519   1.44946
 Alpha virt. eigenvalues --    1.46139   1.46464   1.46712   1.48047   1.48837
 Alpha virt. eigenvalues --    1.49935   1.50705   1.51534   1.52364   1.52898
 Alpha virt. eigenvalues --    1.53938   1.56460   1.57022   1.57301   1.58586
 Alpha virt. eigenvalues --    1.59482   1.59974   1.60996   1.61717   1.62563
 Alpha virt. eigenvalues --    1.63271   1.63489   1.64171   1.64347   1.65538
 Alpha virt. eigenvalues --    1.66312   1.66945   1.69375   1.71707   1.73759
 Alpha virt. eigenvalues --    1.74274   1.74539   1.74840   1.76220   1.78126
 Alpha virt. eigenvalues --    1.79199   1.80108   1.80780   1.80981   1.82711
 Alpha virt. eigenvalues --    1.83079   1.83680   1.83883   1.84581   1.85124
 Alpha virt. eigenvalues --    1.85722   1.86363   1.86596   1.86766   1.87108
 Alpha virt. eigenvalues --    1.87607   1.88542   1.89270   1.89738   1.90450
 Alpha virt. eigenvalues --    1.91340   1.93337   1.94582   1.94887   1.96114
 Alpha virt. eigenvalues --    1.96938   1.97834   1.98804   1.99971   2.01573
 Alpha virt. eigenvalues --    2.02144   2.03029   2.03829   2.04006   2.05357
 Alpha virt. eigenvalues --    2.07070   2.07910   2.10423   2.10794   2.11324
 Alpha virt. eigenvalues --    2.11904   2.13396   2.15403   2.15987   2.17584
 Alpha virt. eigenvalues --    2.21601   2.22106   2.23648   2.26360   2.28578
 Alpha virt. eigenvalues --    2.28889   2.29496   2.30395   2.30852   2.31068
 Alpha virt. eigenvalues --    2.31784   2.32251   2.32889   2.34362   2.35586
 Alpha virt. eigenvalues --    2.37918   2.39413   2.39880   2.40752   2.41509
 Alpha virt. eigenvalues --    2.42123   2.43694   2.46298   2.46631   2.47342
 Alpha virt. eigenvalues --    2.48229   2.48719   2.49916   2.50944   2.53039
 Alpha virt. eigenvalues --    2.55915   2.57006   2.57298   2.60714   2.64299
 Alpha virt. eigenvalues --    2.65165   2.66741   2.67201   2.70097   2.70679
 Alpha virt. eigenvalues --    2.73345   2.73949   2.75951   2.77191   2.78200
 Alpha virt. eigenvalues --    2.79368   2.79716   2.80651   2.82788   2.83485
 Alpha virt. eigenvalues --    2.83758   2.85805   2.86987   2.88122   2.89396
 Alpha virt. eigenvalues --    2.90859   2.92055   2.93874   2.95267   2.96006
 Alpha virt. eigenvalues --    2.96703   3.00130   3.01693   3.02730   3.03225
 Alpha virt. eigenvalues --    3.04181   3.04761   3.06212   3.07290   3.07396
 Alpha virt. eigenvalues --    3.07780   3.08368   3.09532   3.12344   3.17514
 Alpha virt. eigenvalues --    3.19103   3.20471   3.21733   3.23901   3.24791
 Alpha virt. eigenvalues --    3.26121   3.26278   3.26786   3.27157   3.33498
 Alpha virt. eigenvalues --    3.37591   3.44160   3.48450   3.56314   3.57608
 Alpha virt. eigenvalues --    3.57871   3.58916   3.60171   3.67768   3.70201
 Alpha virt. eigenvalues --    3.71603   3.73544   3.87418   3.88246   3.88814
 Alpha virt. eigenvalues --    3.89341
          Condensed to atoms (all electrons):
               1          2          3          4          5          6
     1  C    4.699754   0.146281   0.072848  -0.118656  -0.038223   0.010062
     2  C    0.146281   5.769607   0.001427   0.103008   0.406895  -0.053530
     3  C    0.072848   0.001427   5.832307   0.111044  -0.032612   0.327775
     4  C   -0.118656   0.103008   0.111044   4.752440   0.008120  -0.039697
     5  H   -0.038223   0.406895  -0.032612   0.008120   0.571533  -0.006420
     6  H    0.010062  -0.053530   0.327775  -0.039697  -0.006420   0.660698
     7  C   -0.022802   0.008832   0.009927  -0.019068  -0.000099  -0.000119
     8  H    0.000786  -0.000961   0.001146  -0.005145   0.000018   0.000029
     9  H   -0.006293   0.003864  -0.001507   0.006600  -0.000016   0.000005
    10  H    0.003806  -0.000681   0.000990  -0.002630  -0.000003  -0.000011
    11  N    0.308359  -0.151734  -0.109582   0.264016   0.004403   0.003942
    12  O    0.000453   0.006197  -0.082754   0.659298  -0.000045   0.000250
    13  O    0.668342  -0.089608   0.006943  -0.000090  -0.001549  -0.000031
    14  C   -0.004281   0.005941  -0.053641   0.004349  -0.004076  -0.005951
    15  H   -0.000108   0.001377  -0.001094   0.000076   0.000747  -0.000111
    16  C    0.004976  -0.060038  -0.015457  -0.005465  -0.002136   0.004549
    17  H    0.000035  -0.000526  -0.000471  -0.000016  -0.000013   0.002375
    18  C   -0.012663   0.142999  -0.048867   0.002991  -0.002082   0.001995
    19  H   -0.004972   0.003323  -0.028079   0.006356   0.002832  -0.000454
    20  C    0.001326  -0.028754   0.005218  -0.000309  -0.004677   0.000010
    21  H   -0.000105  -0.011345   0.003137  -0.000152   0.001609  -0.000022
    22  H    0.000168  -0.001098  -0.000324   0.000018   0.001652  -0.000010
    23  H   -0.000325   0.002797  -0.000212   0.000006   0.000086   0.000001
    24  C    0.000732  -0.048930   0.158986  -0.011891   0.001293  -0.006931
    25  H    0.007224  -0.025316  -0.000972  -0.005346  -0.000097   0.003729
    26  C   -0.000540   0.006754  -0.043516   0.008850  -0.000063  -0.009757
    27  H    0.000004  -0.000114   0.001891   0.000175   0.000000   0.000056
    28  H    0.000005   0.000333  -0.002727   0.002236  -0.000001  -0.000123
    29  C    0.000001   0.000076  -0.003666   0.001769  -0.000001   0.003039
    30  C    0.000000   0.000000   0.000231  -0.000971   0.000000   0.000335
    31  H    0.000000   0.000000  -0.000018   0.000027   0.000000   0.000011
    32  H    0.000000   0.000000   0.000000   0.000031   0.000000   0.000000
    33  H   -0.000004   0.000011  -0.000367  -0.000683   0.000000  -0.000023
    34  O    0.000000   0.000740   0.007384  -0.001949  -0.000004  -0.000340
    35  O    0.000000  -0.000007  -0.000313   0.000061   0.000000  -0.000005
    36  H   -0.004687  -0.001427   0.000080  -0.000086  -0.007237   0.000017
    37  H    0.000000   0.000000  -0.000011  -0.000220   0.000000   0.000000
    38  H   -0.000008   0.000259   0.004729  -0.000149   0.000000  -0.011774
    39  H    0.000000   0.000000   0.000002  -0.000001   0.000000  -0.000005
    40  O    0.000008  -0.000692  -0.036274  -0.000214   0.000026   0.101412
    41  H    0.000000   0.000113   0.002160  -0.000044   0.000003  -0.004151
    42  O    0.000000   0.000000   0.000000   0.000000   0.000000   0.000000
    43  H    0.000000   0.000000   0.000000   0.000000   0.000000   0.000000
    44  O   -0.000002   0.000002  -0.000034   0.001882   0.000000   0.000001
    45  H    0.000016  -0.000128   0.001528  -0.005543   0.000001  -0.000047
    46  O   -0.003066  -0.004658   0.000467  -0.000012   0.030275  -0.000013
    47  H   -0.000110   0.000297  -0.000025   0.000001  -0.001751   0.000001
               7          8          9         10         11         12
     1  C   -0.022802   0.000786  -0.006293   0.003806   0.308359   0.000453
     2  C    0.008832  -0.000961   0.003864  -0.000681  -0.151734   0.006197
     3  C    0.009927   0.001146  -0.001507   0.000990  -0.109582  -0.082754
     4  C   -0.019068  -0.005145   0.006600  -0.002630   0.264016   0.659298
     5  H   -0.000099   0.000018  -0.000016  -0.000003   0.004403  -0.000045
     6  H   -0.000119   0.000029   0.000005  -0.000011   0.003942   0.000250
     7  C    4.534433   0.410513   0.395185   0.377710   0.242215   0.012674
     8  H    0.410513   0.589160  -0.020258  -0.024243  -0.027149   0.000764
     9  H    0.395185  -0.020258   0.568768  -0.012642  -0.024940   0.000238
    10  H    0.377710  -0.024243  -0.012642   0.591837  -0.022889  -0.003428
    11  N    0.242215  -0.027149  -0.024940  -0.022889   7.075137  -0.099957
    12  O    0.012674   0.000764   0.000238  -0.003428  -0.099957   7.774077
    13  O   -0.002312   0.000119   0.013703   0.000196  -0.088950  -0.000013
    14  C    0.000019   0.000000   0.000003  -0.000006  -0.000133   0.000026
    15  H    0.000000   0.000000   0.000000   0.000000  -0.000006   0.000000
    16  C    0.000007   0.000002  -0.000001   0.000009   0.000239   0.000012
    17  H    0.000000   0.000000   0.000000   0.000000  -0.000012  -0.000007
    18  C   -0.000047  -0.000005  -0.000068   0.000045  -0.002400   0.000001
    19  H   -0.000024   0.000013   0.000012  -0.000111   0.000483   0.000039
    20  C   -0.000002   0.000001  -0.000007  -0.000002   0.000182   0.000000
    21  H   -0.000007  -0.000002   0.000007   0.000002   0.000184   0.000000
    22  H    0.000000   0.000000   0.000000   0.000000  -0.000002   0.000000
    23  H    0.000000   0.000000   0.000000   0.000000  -0.000001   0.000000
    24  C    0.000049  -0.000033   0.000052   0.000086  -0.008925  -0.009990
    25  H   -0.001244   0.000142  -0.000103  -0.000297   0.011264  -0.002303
    26  C   -0.000008  -0.000002  -0.000002  -0.000104  -0.000007   0.009052
    27  H    0.000000   0.000000   0.000000   0.000004  -0.000026   0.000248
    28  H   -0.000066  -0.000017  -0.000001   0.000457  -0.000287   0.002074
    29  C   -0.000012  -0.000001   0.000000   0.000000   0.000153   0.015090
    30  C   -0.000018   0.000001   0.000000   0.000100  -0.000039  -0.007071
    31  H    0.000000   0.000000   0.000000   0.000000   0.000001   0.000150
    32  H    0.000000   0.000000   0.000000  -0.000001   0.000000  -0.000015
    33  H    0.000137  -0.000005  -0.000001  -0.000608   0.000149   0.006406
    34  O    0.000002   0.000000   0.000000  -0.000001  -0.000021  -0.003377
    35  O    0.000000   0.000000   0.000000   0.000000   0.000000  -0.000555
    36  H   -0.000005   0.000019  -0.000061  -0.000001   0.000615   0.000001
    37  H    0.000310  -0.000011  -0.000004  -0.001044   0.000005   0.000326
    38  H    0.000000   0.000000   0.000000   0.000000  -0.000001  -0.000068
    39  H    0.000000   0.000000   0.000000   0.000000   0.000000  -0.000006
    40  O    0.000000   0.000000   0.000000   0.000000  -0.000001  -0.000002
    41  H    0.000000   0.000000   0.000000   0.000000   0.000002   0.000000
    42  O    0.000000   0.000000   0.000000   0.000000   0.000000   0.000000
    43  H    0.000000   0.000000   0.000000   0.000000   0.000000   0.000003
    44  O   -0.009702   0.000016   0.000095   0.028781   0.000160  -0.016159
    45  H    0.004401   0.000012  -0.000002  -0.000203  -0.003859   0.038756
    46  O    0.000000   0.000000   0.000003   0.000000  -0.000012   0.000000
    47  H    0.000000   0.000000  -0.000001   0.000000  -0.000005   0.000000
              13         14         15         16         17         18
     1  C    0.668342  -0.004281  -0.000108   0.004976   0.000035  -0.012663
     2  C   -0.089608   0.005941   0.001377  -0.060038  -0.000526   0.142999
     3  C    0.006943  -0.053641  -0.001094  -0.015457  -0.000471  -0.048867
     4  C   -0.000090   0.004349   0.000076  -0.005465  -0.000016   0.002991
     5  H   -0.001549  -0.004076   0.000747  -0.002136  -0.000013  -0.002082
     6  H   -0.000031  -0.005951  -0.000111   0.004549   0.002375   0.001995
     7  C   -0.002312   0.000019   0.000000   0.000007   0.000000  -0.000047
     8  H    0.000119   0.000000   0.000000   0.000002   0.000000  -0.000005
     9  H    0.013703   0.000003   0.000000  -0.000001   0.000000  -0.000068
    10  H    0.000196  -0.000006   0.000000   0.000009   0.000000   0.000045
    11  N   -0.088950  -0.000133  -0.000006   0.000239  -0.000012  -0.002400
    12  O   -0.000013   0.000026   0.000000   0.000012  -0.000007   0.000001
    13  O    7.746810   0.000211  -0.000003   0.000014   0.000000  -0.002257
[...]
     5  H   -0.000100  -0.000062   0.000000   0.000000  -0.000001   0.000000
     6  H    0.003725  -0.009797   0.000054  -0.000120   0.003067   0.000349
     7  C   -0.001238  -0.000009   0.000000  -0.000063  -0.000012  -0.000019
     8  H    0.000142  -0.000002   0.000000  -0.000017  -0.000001   0.000001
     9  H   -0.000101  -0.000002   0.000000  -0.000001   0.000000   0.000000
    10  H   -0.000293  -0.000101   0.000004   0.000450   0.000000   0.000102
    11  N    0.011188  -0.000001  -0.000026  -0.000295   0.000157  -0.000039
    12  O   -0.002297   0.009143   0.000246   0.001987   0.015205  -0.007100
    13  O   -0.000235   0.000001   0.000000   0.000001   0.000000   0.000000
    14  C   -0.036189   0.010616   0.000487  -0.000695   0.000020   0.000000
    15  H   -0.000247  -0.000171  -0.000005   0.000006  -0.000001   0.000000
    16  C    0.005885  -0.049627  -0.017069   0.011766  -0.000415   0.000132
    17  H    0.006770  -0.009191   0.000687   0.000545  -0.000020   0.000023
    18  C    0.019628   0.000566  -0.000083   0.000091  -0.000003   0.000000
    19  H    0.000829   0.000633  -0.000003  -0.000024   0.000000   0.000000
    20  C    0.000543  -0.000025   0.000002  -0.000001   0.000000   0.000000
    21  H   -0.000052  -0.000001   0.000000   0.000000   0.000000   0.000000
    22  H   -0.000010   0.000003   0.000000   0.000000   0.000000   0.000000
    23  H   -0.000006   0.000001   0.000000   0.000000   0.000000   0.000000
    24  C    0.348964   0.316011  -0.018521  -0.008650   0.006778  -0.001394
    25  H    0.643632  -0.032184   0.003058  -0.008001   0.000004   0.000041
    26  C   -0.032184   4.592943   0.399311   0.320390  -0.044278   0.014010
    27  H    0.003058   0.399311   0.608081  -0.028809  -0.001547   0.000065
    28  H   -0.008001   0.320390  -0.028809   0.662879  -0.010943   0.009233
    29  C    0.000004  -0.044278  -0.001547  -0.010943   4.517974   0.373782
    30  C    0.000041   0.014010   0.000065   0.009233   0.373782   4.900371
    31  H   -0.000009   0.000103   0.000211  -0.000700  -0.006059   0.363986
    32  H   -0.000001   0.001149  -0.000029  -0.000535  -0.002017   0.310469
    33  H   -0.000025  -0.010042   0.000667  -0.000726   0.003517   0.299244
    34  O    0.003323   0.290644  -0.027033  -0.023368   0.331628  -0.091407
    35  O   -0.000001   0.001843  -0.000043   0.000201   0.589108  -0.072851
    36  H    0.000005   0.000000   0.000000   0.000000   0.000000   0.000000
    37  H   -0.000037   0.000929  -0.000012  -0.004010  -0.000041   0.000189
    38  H    0.000010  -0.000008  -0.000022   0.000114  -0.005081   0.001654
    39  H    0.000000  -0.000027   0.000003   0.000000  -0.004098   0.002460
    40  O   -0.000005   0.000064  -0.000003  -0.000015  -0.000652  -0.000050
    41  H    0.000000   0.000001   0.000000   0.000001   0.000314  -0.000002
    42  O    0.000000   0.000002   0.000000  -0.000001   0.001838  -0.021301
    43  H    0.000000   0.000000   0.000000   0.000001   0.000423   0.001326
    44  O    0.000636  -0.016610   0.000136   0.052755   0.000321  -0.017041
    45  H   -0.000355   0.005166  -0.000085  -0.013540  -0.000452   0.001886
    46  O    0.000000   0.000000   0.000000   0.000000   0.000000   0.000000
    47  H    0.000000   0.000000   0.000000   0.000000   0.000000   0.000000
              31         32         33         34         35         36
     1  C    0.000000   0.000000  -0.000004   0.000000   0.000000  -0.004707
     2  C    0.000000   0.000000   0.000011   0.000742  -0.000007  -0.001406
     3  C   -0.000019   0.000000  -0.000370   0.007375  -0.000325   0.000078
     4  C    0.000027   0.000032  -0.000694  -0.001924   0.000062  -0.000086
     5  H    0.000000   0.000000   0.000000  -0.000004   0.000000  -0.007298
     6  H    0.000011   0.000000  -0.000026  -0.000410   0.000021   0.000017
     7  C    0.000000   0.000000   0.000140   0.000002   0.000000  -0.000005
     8  H    0.000000   0.000000  -0.000005   0.000000   0.000000   0.000019
     9  H    0.000000   0.000000  -0.000001   0.000000   0.000000  -0.000061
    10  H    0.000000  -0.000001  -0.000616  -0.000001   0.000000  -0.000001
    11  N    0.000001   0.000000   0.000151  -0.000022   0.000000   0.000614
    12  O    0.000156  -0.000018   0.006360  -0.003394  -0.000577   0.000001
    13  O    0.000000   0.000000   0.000000   0.000000   0.000000   0.037435
    14  C    0.000000   0.000000   0.000002  -0.000221   0.000000  -0.000067
    15  H    0.000000   0.000000   0.000000  -0.000002   0.000000   0.000004
    16  C   -0.000019   0.000001  -0.000128   0.003759  -0.000003   0.000001
    17  H    0.000004  -0.000001  -0.000004   0.003286   0.000001   0.000000
    18  C    0.000000   0.000000  -0.000001   0.000017   0.000000   0.000283
    19  H    0.000000   0.000000   0.000000  -0.000008   0.000000   0.000047
    20  C    0.000000   0.000000   0.000000   0.000000   0.000000   0.002545
    21  H    0.000000   0.000000   0.000000   0.000000   0.000000  -0.006690
    22  H    0.000000   0.000000   0.000000   0.000000   0.000000  -0.000030
    23  H    0.000000   0.000000   0.000000   0.000000   0.000000  -0.000093
    24  C    0.000918  -0.000037   0.000214  -0.088105   0.000119  -0.000008
    25  H   -0.000009  -0.000001  -0.000025   0.003323  -0.000001   0.000005
    26  C    0.000103   0.001149  -0.010042   0.290644   0.001843   0.000000
    27  H    0.000211  -0.000029   0.000667  -0.027033  -0.000043   0.000000
    28  H   -0.000700  -0.000535  -0.000726  -0.023368   0.000201   0.000000
    29  C   -0.006059  -0.002017   0.003517   0.331628   0.589108   0.000000
    30  C    0.363986   0.310469   0.299244  -0.091407  -0.072851   0.000000
    31  H    0.571142  -0.009687  -0.009391   0.000678   0.001156   0.000000
    32  H   -0.009687   0.603076  -0.004459   0.003605  -0.003237   0.000000
    33  H   -0.009391  -0.004459   0.619593   0.002005   0.000861   0.000000
    34  O    0.000678   0.003605   0.002005   8.009466  -0.088953   0.000000
    35  O    0.001156  -0.003237   0.000861  -0.088953   7.849764   0.000000
    36  H    0.000000   0.000000   0.000000   0.000000   0.000000   0.488495
    37  H   -0.000009   0.000022   0.002199  -0.000007   0.000000   0.000000
    38  H   -0.000086  -0.000032  -0.000074   0.002285   0.040437   0.000000
    39  H    0.000030  -0.011548   0.000164   0.000453   0.040070   0.000000
    40  O    0.000002   0.000001   0.000003  -0.000873  -0.010223   0.000000
    41  H    0.000000   0.000000  -0.000001  -0.000030   0.000509   0.000000
    42  O    0.000138   0.061675  -0.000032  -0.000002  -0.012405   0.000000
    43  H    0.000034  -0.001794  -0.000134   0.000002   0.000863   0.000000
    44  O    0.000181   0.000097   0.046938   0.000041   0.000000   0.000000
    45  H   -0.000126   0.000004  -0.001120  -0.000131   0.000008   0.000000
    46  O    0.000000   0.000000   0.000000   0.000000   0.000000   0.323615
    47  H    0.000000   0.000000   0.000000   0.000000   0.000000  -0.022270
              37         38         39         40         41         42
     1  C    0.000000  -0.000008   0.000000   0.000008   0.000000   0.000000
     2  C    0.000000   0.000263   0.000000  -0.000710   0.000119   0.000000
     3  C   -0.000011   0.004752   0.000002  -0.036393   0.002204   0.000000
     4  C   -0.000223  -0.000151  -0.000001  -0.000216  -0.000046   0.000000
     5  H    0.000000   0.000000   0.000000   0.000028   0.000003   0.000000
     6  H    0.000000  -0.011805  -0.000005   0.101699  -0.004177   0.000000
     7  C    0.000309   0.000000   0.000000   0.000000   0.000000   0.000000
     8  H   -0.000011   0.000000   0.000000   0.000000   0.000000   0.000000
     9  H   -0.000004   0.000000   0.000000   0.000000   0.000000   0.000000
    10  H   -0.001040   0.000000   0.000000   0.000000   0.000000   0.000000
    11  N    0.000005  -0.000001   0.000000  -0.000001   0.000002   0.000000
    12  O    0.000325  -0.000069  -0.000007  -0.000002   0.000001   0.000000
    13  O    0.000000   0.000000   0.000000   0.000000   0.000000   0.000000
    14  C    0.000000   0.000003   0.000000  -0.000111   0.000032   0.000000
    15  H    0.000000   0.000001   0.000000  -0.000003   0.000001   0.000000
    16  C    0.000001   0.000173   0.000000   0.000217  -0.000033   0.000000
    17  H    0.000000   0.000017   0.000000   0.000876  -0.000064   0.000000
    18  C    0.000000   0.000000   0.000000   0.000013  -0.000004   0.000000
    19  H    0.000000   0.000000   0.000000   0.000000   0.000000   0.000000
    20  C    0.000000   0.000000   0.000000   0.000000   0.000000   0.000000
    21  H    0.000000   0.000000   0.000000   0.000000   0.000000   0.000000
    22  H    0.000000   0.000000   0.000000   0.000000   0.000000   0.000000
    23  H    0.000000   0.000000   0.000000   0.000000   0.000000   0.000000
    24  C   -0.000003  -0.000468   0.000002  -0.000172   0.000062   0.000000
    25  H   -0.000037   0.000010   0.000000  -0.000005   0.000000   0.000000
    26  C    0.000929  -0.000008  -0.000027   0.000064   0.000001   0.000002
    27  H   -0.000012  -0.000022   0.000003  -0.000003   0.000000   0.000000
    28  H   -0.004010   0.000114   0.000000  -0.000015   0.000001  -0.000001
    29  C   -0.000041  -0.005081  -0.004098  -0.000652   0.000314   0.001838
    30  C    0.000189   0.001654   0.002460  -0.000050  -0.000002  -0.021301
    31  H   -0.000009  -0.000086   0.000030   0.000002   0.000000   0.000138
    32  H    0.000022  -0.000032  -0.011548   0.000001   0.000000   0.061675
    33  H    0.002199  -0.000074   0.000164   0.000003  -0.000001  -0.000032
    34  O   -0.000007   0.002285   0.000453  -0.000873  -0.000030  -0.000002
    35  O    0.000000   0.040437   0.040070  -0.010223   0.000509  -0.012405
    36  H    0.000000   0.000000   0.000000   0.000000   0.000000   0.000000
    37  H    0.496576   0.000000   0.000000   0.000000   0.000000   0.000000
    38  H    0.000000   0.480479   0.000064   0.332116  -0.025135   0.000000
    39  H    0.000000   0.000064   0.476828   0.000003  -0.000005   0.339981
    40  O    0.000000   0.332116   0.000003   7.620265   0.326579   0.000000
    41  H    0.000000  -0.025135  -0.000005   0.326579   0.518163   0.000000
    42  O    0.000000   0.000000   0.339981   0.000000   0.000000   7.655487
    43  H    0.000000  -0.000008  -0.030309   0.000000   0.000000   0.331089
    44  O    0.328040   0.000000   0.000000   0.000000   0.000000   0.000000
    45  H   -0.012092   0.000000  -0.000001   0.000000   0.000000   0.000000
    46  O    0.000000   0.000000   0.000000   0.000000   0.000000   0.000000
    47  H    0.000000   0.000000   0.000000   0.000000   0.000000   0.000000
              43         44         45         46         47
     1  C    0.000000  -0.000002   0.000017  -0.003088  -0.000110
     2  C    0.000000   0.000002  -0.000128  -0.004744   0.000301
     3  C    0.000000  -0.000034   0.001525   0.000473  -0.000026
     4  C    0.000000   0.001907  -0.005546  -0.000012   0.000001
     5  H    0.000000   0.000000   0.000001   0.030532  -0.001760
     6  H    0.000000   0.000001  -0.000047  -0.000013   0.000001
     7  C    0.000000  -0.009687   0.004394   0.000000   0.000000
     8  H    0.000000   0.000016   0.000012   0.000000   0.000000
     9  H    0.000000   0.000095  -0.000001   0.000003  -0.000001
    10  H    0.000000   0.028670  -0.000153   0.000000   0.000000
    11  N    0.000000   0.000161  -0.003868  -0.000012  -0.000005
    12  O    0.000004  -0.016127   0.038740   0.000000   0.000000
    13  O    0.000000   0.000000  -0.000001  -0.012399   0.000149
    14  C    0.000000   0.000000   0.000004   0.000065  -0.000003
    15  H    0.000000   0.000000   0.000000  -0.000006   0.000001
    16  C    0.000000  -0.000001   0.000009  -0.000001   0.000000
    17  H    0.000000   0.000000  -0.000001   0.000000   0.000000
    18  C    0.000000   0.000000   0.000003  -0.000727   0.000118
    19  H    0.000000  -0.000005   0.000008  -0.000004   0.000001
    20  C    0.000000   0.000000   0.000000  -0.017936  -0.000729
    21  H    0.000000   0.000000   0.000000   0.048732   0.005348
    22  H    0.000000   0.000000   0.000000   0.000137   0.000075
    23  H    0.000000   0.000000   0.000000   0.000250  -0.000043
    24  C    0.000000   0.000461  -0.000476  -0.000001   0.000000
    25  H    0.000000   0.000636  -0.000355   0.000000   0.000000
    26  C    0.000000  -0.016610   0.005166   0.000000   0.000000
    27  H    0.000000   0.000136  -0.000085   0.000000   0.000000
    28  H    0.000001   0.052755  -0.013540   0.000000   0.000000
    29  C    0.000423   0.000321  -0.000452   0.000000   0.000000
    30  C    0.001326  -0.017041   0.001886   0.000000   0.000000
    31  H    0.000034   0.000181  -0.000126   0.000000   0.000000
    32  H   -0.001794   0.000097   0.000004   0.000000   0.000000
    33  H   -0.000134   0.046938  -0.001120   0.000000   0.000000
    34  O    0.000002   0.000041  -0.000131   0.000000   0.000000
    35  O    0.000863   0.000000   0.000008   0.000000   0.000000
    36  H    0.000000   0.000000   0.000000   0.323615  -0.022270
    37  H    0.000000   0.328040  -0.012092   0.000000   0.000000
    38  H   -0.000008   0.000000   0.000000   0.000000   0.000000
    39  H   -0.030309   0.000000  -0.000001   0.000000   0.000000
    40  O    0.000000   0.000000   0.000000   0.000000   0.000000
    41  H    0.000000   0.000000   0.000000   0.000000   0.000000
    42  O    0.331089   0.000000   0.000000   0.000000   0.000000
    43  H    0.522466   0.000000   0.000001   0.000000   0.000000
    44  O    0.000000   7.626467   0.298172   0.000000   0.000000
    45  H    0.000001   0.298172   0.489976   0.000000   0.000000
    46  O    0.000000   0.000000   0.000000   7.645157   0.330623
    47  H    0.000000   0.000000   0.000000   0.330623   0.503821
 Mulliken charges:
               1
     1  C    0.291676
     2  C   -0.131858
     3  C   -0.087636
     4  C    0.285055
     5  H    0.071722
     6  H    0.018563
     7  C    0.059050
     8  H    0.075076
     9  H    0.077379
    10  H    0.065077
    11  N   -0.370537
    12  O   -0.300520
    13  O   -0.285471
    14  C   -0.030815
    15  H    0.040787
    16  C    0.001150
    17  H    0.048482
    18  C   -0.126511
    19  H    0.063724
    20  C    0.037149
    21  H   -0.003593
    22  H    0.050255
    23  H    0.064575
    24  C   -0.138292
    25  H    0.057335
    26  C    0.237035
    27  H    0.078327
    28  H    0.040200
    29  C    0.233325
    30  C   -0.067359
    31  H    0.087327
    32  H    0.053262
    33  H    0.045784
    34  O   -0.333417
    35  O   -0.336397
    36  H    0.189562
    37  H    0.188905
    38  H    0.180580
    39  H    0.185941
    40  O   -0.332443
    41  H    0.181507
    42  O   -0.356470
    43  H    0.176038
    44  O   -0.325592
    45  H    0.198194
    46  O   -0.340643
    47  H    0.184508
 Sum of Mulliken charges =   0.00000
 Mulliken charges with hydrogens summed into heavy atoms:
               1
     1  C    0.291676
     2  C   -0.060136
     3  C   -0.069073
     4  C    0.285055
     7  C    0.276583
    11  N   -0.370537
    12  O   -0.300520
    13  O   -0.285471
    14  C    0.009972
    16  C    0.049632
    18  C   -0.062787
    20  C    0.148387
    24  C   -0.080957
    26  C    0.355562
    29  C    0.233325
    30  C    0.119014
    34  O   -0.333417
    35  O   -0.336397
    40  O    0.029644
    42  O    0.005510
    44  O    0.061508
    46  O    0.033427
 Electronic spatial extent (au):  <R**2>=           8169.3837
 Charge=              0.0000 electrons
 Dipole moment (field-independent basis, Debye):
    X=              3.2073    Y=              4.0256    Z=             -3.3985  Tot=              6.1678
 Quadrupole moment (field-independent basis, Debye-Ang):
   XX=           -147.9475   YY=           -127.6387   ZZ=           -131.3685
   XY=            -14.3842   XZ=              4.2113   YZ=              6.7363
 Traceless Quadrupole moment (field-independent basis, Debye-Ang):
   XX=            -12.2959   YY=              8.0129   ZZ=              4.2830
   XY=            -14.3842   XZ=              4.2113   YZ=              6.7363
 Octapole moment (field-independent basis, Debye-Ang**2):
  XXX=            247.7574  YYY=             85.2904  ZZZ=             38.3636  XYY=            -22.1397
  XXY=             27.1738  XXZ=            -63.5083  XZZ=            -43.0165  YZZ=             -3.8847
  YYZ=             -0.9640  XYZ=             -8.1092
 Hexadecapole moment (field-independent basis, Debye-Ang**3):
 XXXX=          -7259.1031 YYYY=          -2044.3252 ZZZZ=          -1394.7998 XXXY=           -299.6627
 XXXZ=            480.1213 YYYX=           -140.2953 YYYZ=            -12.7916 ZZZX=            -70.7658
 ZZZY=            -52.9645 XXYY=          -1343.2552 XXZZ=          -1319.2472 YYZZ=           -580.3069
 XXYZ=             43.1269 YYXZ=             16.9183 ZZXY=             14.3601
 N-N= 2.066855117131D+03 E-N=-6.858044560522D+03  KE= 1.155066327887D+03
 1\1\GINC-D10S7B1\FTS\RM062X\def2SVP\C13H25N1O8\CHMKSH\06-Sep-2020\0\\#
  opt=(calcfc,ts,noeigentest) scrf=(cpcm,solvent=toluene) geom=connecti
 vity def2svp m062x empiricaldispersion=gd3\\Title Card Required\\0,1\C
 ,2.3649220855,1.0757558231,0.6484587098\C,1.9394027599,-0.3527980202,0
 .6988358063\C,0.5572650816,-0.3768337884,0.5561223987\C,0.0917132749,1
 .0318075184,0.4950824598\H,2.5650343805,-1.079816871,1.2119794767\H,-0
 .1131129167,-1.1785333315,0.8681333659\C,1.1863511911,3.2752696973,0.2
 839021539\H,0.7905986565,3.737248107,1.1994923732\H,2.2139625176,3.618
 9707422,0.1209615088\H,0.5538016559,3.5575209817,-0.5678847215\N,1.219
 3356005,1.8339773641,0.4063157844\O,-1.0485946994,1.4545697565,0.50549
 31611\O,3.4717513255,1.5521682561,0.7817733014\C,2.0791116066,-2.05278
 10232,-1.5723915403\H,2.470405349,-3.0715450072,-1.5014426219\C,0.6995
 064484,-1.8827605863,-1.7711860014\H,0.0653441543,-2.7714526348,-1.841
 8504377\C,2.9226464558,-1.0020485396,-1.2529952204\H,2.6451362735,0.00
 12477635,-1.5899352571\C,4.3749668392,-1.2017798347,-0.9443141149\H,4.
 6600687963,-0.6554329035,-0.0360155746\H,4.5994203531,-2.265279717,-0.
 78578518\H,4.9977635566,-0.8283559338,-1.7712399046\C,0.094328315,-0.6
 46552496,-1.6431592357\H,0.6871100593,0.2513536823,-1.8380311877\C,-1.
 3937633995,-0.4540731529,-1.780659205\H,-1.749535727,-0.8868082173,-2.
 7300150625\H,-1.6349545459,0.6154437656,-1.7719397726\C,-3.1469680343,
 -0.6824796922,-0.1293632602\C,-3.9130227155,0.4303662068,-0.7818491767
 \H,-4.1802664075,0.1403132024,-1.8082295374\H,-4.8150258448,0.609563,-
 0.1881120541\H,-3.3007495342,1.3391681847,-0.8438448971\O,-2.037002078
 3,-1.1348018937,-0.7049533904\O,-3.5061373419,-1.2374072204,0.88865961
 49\H,4.4658405966,0.3577583102,1.8871868632\H,-2.3544023293,3.70044593
 89,-1.6253185486\H,-2.0425552888,-2.4660335066,1.3245928724\H,-5.16448
 22571,-0.5821567477,1.6070239769\O,-1.2380190734,-2.9289832577,1.61233
 19498\H,-1.1715229851,-2.6976581921,2.545893068\O,-5.9205444041,-0.000
 7362379,1.7914141106\H,-5.5267040125,0.6997532496,2.3239298575\O,-1.70
 5505074,2.9887621102,-1.6599544264\H,-1.5815964661,2.7160291711,-0.735
 6933081\O,4.674497456,-0.4653756703,2.3583466619\H,5.6245613464,-0.570
 5653556,2.2379821618\\Version=ES64L-G09RevD.01\State=1-A\HF=-1165.5962
 499\RMSD=9.990e-09\RMSF=2.123e-06\Dipole=1.264538,1.5856917,-1.3322594
 \Quadrupole=-9.1774864,5.9628925,3.2145938,-10.6786916,3.1068421,5.010
 943\PG=C01 [X(C13H25N1O8)]\\@


 CONTRAIWISE...CONTINUED TWEEDLEDEE, IF IT WAS SO, IT MIGHT BE,
 AND IF IT WERE SO, IT WOULD BE.....
 BUT AS IT ISN'T, IT AIN'T....
 THAT'S LOGIC.....
 ALICE THROUGH THE LOOKING GLASS
 Job cpu time:       0 days  5 hours 12 minutes  0.1 seconds.
 File lengths (MBytes):  RWF=   1030 Int=      0 D2E=      0 Chk=     26 Scr=      1
 Normal termination of Gaussian 09 at Sun Sep  6 04:58:14 2020.
