 Entering Gaussian System, Link 0=g09
 Input=m062x_PM6_2H2O_dienophile_pm6_cpcmtoluene_1_gd3.com
 Output=m062x_PM6_2H2O_dienophile_pm6_cpcmtoluene_1_gd3.log
 Initial command:
 /apps/applications/gaussian/G09.D01/2/default/g09/l1.exe "/local/725666.1.40core-192G.q/Gau-384098.inp" -scrdir="/local/725666.1.40core-192G.q/"
 Entering Link 1 = /apps/applications/gaussian/G09.D01/2/default/g09/l1.exe PID=    384099.
  
 Copyright (c) 1988,1990,1992,1993,1995,1998,2003,2009,2013,
            Gaussian, Inc.  All Rights Reserved.
  
 This is part of the Gaussian(R) 09 program.  It is based on
 the Gaussian(R) 03 system (copyright 2003, Gaussian, Inc.),
 the Gaussian(R) 98 system (copyright 1998, Gaussian, Inc.),
 the Gaussian(R) 94 system (copyright 1995, Gaussian, Inc.),
 the Gaussian 92(TM) system (copyright 1992, Gaussian, Inc.),
 the Gaussian 90(TM) system (copyright 1990, Gaussian, Inc.),
 the Gaussian 88(TM) system (copyright 1988, Gaussian, Inc.),
 the Gaussian 86(TM) system (copyright 1986, Carnegie Mellon
 University), and the Gaussian 82(TM) system (copyright 1983,
 Carnegie Mellon University). Gaussian is a federally registered
 trademark of Gaussian, Inc.
  
 This software contains proprietary and confidential information,
 including trade secrets, belonging to Gaussian, Inc.
  
 This software is provided under written license and may be
 used, copied, transmitted, or stored only in accord with that
 written license.
  
 The following legend is applicable only to US Government
 contracts under FAR:
  
                    RESTRICTED RIGHTS LEGEND
  
 Use, reproduction and disclosure by the US Government is
 subject to restrictions as set forth in subparagraphs (a)
 and (c) of the Commercial Computer Software - Restricted
 Rights clause in FAR 52.227-19.
  
 Gaussian, Inc.
 340 Quinnipiac St., Bldg. 40, Wallingford CT 06492
  
  
 ---------------------------------------------------------------
 Warning -- This program may not be used in any manner that
 competes with the business of Gaussian, Inc. or will provide
 assistance to any competitor of Gaussian, Inc.  The licensee
 of this program is prohibited from giving any competitor of
 Gaussian, Inc. access to this program.  By using this program,
 the user acknowledges that Gaussian, Inc. is engaged in the
 business of creating and licensing software in the field of
 computational chemistry and represents and warrants to the
 licensee that it is not a competitor of Gaussian, Inc. and that
 it will not use this program in any manner prohibited above.
 ---------------------------------------------------------------
  

 Cite this work as:
 Gaussian 09, Revision D.01,
 M. J. Frisch, G. W. Trucks, H. B. Schlegel, G. E. Scuseria, 
 M. A. Robb, J. R. Cheeseman, G. Scalmani, V. Barone, B. Mennucci, 
 G. A. Petersson, H. Nakatsuji, M. Caricato, X. Li, H. P. Hratchian, 
 A. F. Izmaylov, J. Bloino, G. Zheng, J. L. Sonnenberg, M. Hada, 
 M. Ehara, K. Toyota, R. Fukuda, J. Hasegawa, M. Ishida, T. Nakajima, 
 Y. Honda, O. Kitao, H. Nakai, T. Vreven, J. A. Montgomery, Jr., 
 J. E. Peralta, F. Ogliaro, M. Bearpark, J. J. Heyd, E. Brothers, 
 K. N. Kudin, V. N. Staroverov, T. Keith, R. Kobayashi, J. Normand, 
 K. Raghavachari, A. Rendell, J. C. Burant, S. S. Iyengar, J. Tomasi, 
 M. Cossi, N. Rega, J. M. Millam, M. Klene, J. E. Knox, J. B. Cross, 
 V. Bakken, C. Adamo, J. Jaramillo, R. Gomperts, R. E. Stratmann, 
 O. Yazyev, A. J. Austin, R. Cammi, C. Pomelli, J. W. Ochterski, 
 R. L. Martin, K. Morokuma, V. G. Zakrzewski, G. A. Voth, 
 P. Salvador, J. J. Dannenberg, S. Dapprich, A. D. Daniels, 
 O. Farkas, J. B. Foresman, J. V. Ortiz, J. Cioslowski, 
 and D. J. Fox, Gaussian, Inc., Wallingford CT, 2013.
 
 ******************************************
 Gaussian 09:  ES64L-G09RevD.01 24-Apr-2013
                 6-Sep-2020 
 ******************************************
 %nprocshared=4
 Will use up to    4 processors via shared memory.
 %chk=m062x_PM6_2H2O_dienophile_pm6_cpcmtoluene_1_gd3.chk
 ----------------------------------------------------------------------
 # opt freq scrf=(cpcm,solvent=toluene) geom=connectivity def2svp m062x
  empiricaldispersion=gd3
 ----------------------------------------------------------------------
 1/14=-1,18=20,19=15,26=3,38=1,57=2/1,3;
 2/9=110,12=2,17=6,18=5,40=1/2;
 3/5=43,7=101,11=2,16=1,25=1,30=1,70=2101,71=1,72=13,74=-55,124=31/1,2,3;
 4//1;
 5/5=2,38=5,53=13/2;
 6/7=2,8=2,9=2,10=2,28=1/1;
 7//1,2,3,16;
 1/14=-1,18=20,19=15,26=3/3(2);
 2/9=110/2;
 99//99;
 2/9=110/2;
 3/5=43,7=101,11=2,16=1,25=1,30=1,70=2105,71=1,72=13,74=-55,124=31/1,2,3;
 4/5=5,16=3,69=1/1;
 5/5=2,38=5,53=13/2;
 7//1,2,3,16;
 1/14=-1,18=20,19=15,26=3/3(-5);
 2/9=110/2;
 6/7=2,8=2,9=2,10=2,19=2,28=1/1;
 99/9=1/99;
 -------------------
 Title Card Required
 -------------------
 Symbolic Z-matrix:
 Charge =  0 Multiplicity = 1
 C                     1.13665   0.35682  -0.03721 
 C                     0.66253  -1.07035  -0.10416 
 C                    -0.67159  -1.06475  -0.10295 
 C                    -1.13671   0.3656   -0.03496 
 H                     1.37693  -1.89158  -0.14485 
 H                    -1.39317  -1.87981  -0.14271 
 C                     0.02094   2.59823   0.06249 
 H                    -1.01556   2.93619   0.17266 
 H                     0.61414   2.93157   0.92352 
 H                     0.44979   3.02177  -0.85532 
 N                     0.00405   1.1536   -0.00093 
 O                    -2.26934   0.78208  -0.01323 
 O                     2.26985   0.7726   -0.0175 
 O                    -3.71518  -1.71387  -0.00648 
 H                    -3.87466  -1.8076    0.9398 
 H                    -3.4919   -0.77457  -0.10027 
 O                     3.70121  -1.72988  -0.00385 
 H                     3.48308  -0.78954  -0.09991 
 H                     3.85985  -1.82224   0.9427 
 
 Add virtual bond connecting atoms H18        and O13        Dist= 3.74D+00.
 Add virtual bond connecting atoms H16        and O12        Dist= 3.74D+00.

 GradGradGradGradGradGradGradGradGradGradGradGradGradGradGradGradGradGrad
 Berny optimization.
 Initialization pass.
                           ----------------------------
                           !    Initial Parameters    !
                           ! (Angstroms and Degrees)  !
 --------------------------                            --------------------------
 ! Name  Definition              Value          Derivative Info.                !
 --------------------------------------------------------------------------------
 ! R1    R(1,2)                  1.5054         estimate D2E/DX2                !
 ! R2    R(1,11)                 1.3853         estimate D2E/DX2                !
 ! R3    R(1,13)                 1.2072         estimate D2E/DX2                !
 ! R4    R(2,3)                  1.3341         estimate D2E/DX2                !
 ! R5    R(2,5)                  1.0892         estimate D2E/DX2                !
 ! R6    R(3,4)                  1.5056         estimate D2E/DX2                !
 ! R7    R(3,6)                  1.0893         estimate D2E/DX2                !
 ! R8    R(4,11)                 1.3869         estimate D2E/DX2                !
 ! R9    R(4,12)                 1.207          estimate D2E/DX2                !
 ! R10   R(7,8)                  1.0958         estimate D2E/DX2                !
 ! R11   R(7,9)                  1.0974         estimate D2E/DX2                !
 ! R12   R(7,10)                 1.098          estimate D2E/DX2                !
 ! R13   R(7,11)                 1.4461         estimate D2E/DX2                !
 ! R14   R(12,16)                1.9813         estimate D2E/DX2                !
 ! R15   R(13,18)                1.9796         estimate D2E/DX2                !
 ! R16   R(14,15)                0.9642         estimate D2E/DX2                !
 ! R17   R(14,16)                0.97           estimate D2E/DX2                !
 ! R18   R(17,18)                0.9701         estimate D2E/DX2                !
 ! R19   R(17,19)                0.9642         estimate D2E/DX2                !
 ! A1    A(2,1,11)             106.7954         estimate D2E/DX2                !
 ! A2    A(2,1,13)             128.5274         estimate D2E/DX2                !
 ! A3    A(11,1,13)            124.6772         estimate D2E/DX2                !
 ! A4    A(1,2,3)              108.1156         estimate D2E/DX2                !
 ! A5    A(1,2,5)              120.6555         estimate D2E/DX2                !
 ! A6    A(3,2,5)              131.2288         estimate D2E/DX2                !
 ! A7    A(2,3,4)              108.2373         estimate D2E/DX2                !
 ! A8    A(2,3,6)              131.2424         estimate D2E/DX2                !
 ! A9    A(4,3,6)              120.5201         estimate D2E/DX2                !
 ! A10   A(3,4,11)             106.6656         estimate D2E/DX2                !
 ! A11   A(3,4,12)             128.2087         estimate D2E/DX2                !
 ! A12   A(11,4,12)            125.1257         estimate D2E/DX2                !
 ! A13   A(8,7,9)              109.7997         estimate D2E/DX2                !
 ! A14   A(8,7,10)             109.5429         estimate D2E/DX2                !
 ! A15   A(8,7,11)             107.5459         estimate D2E/DX2                !
 ! A16   A(9,7,10)             109.1187         estimate D2E/DX2                !
 ! A17   A(9,7,11)             110.1299         estimate D2E/DX2                !
 ! A18   A(10,7,11)            110.6857         estimate D2E/DX2                !
 ! A19   A(1,11,4)             110.1858         estimate D2E/DX2                !
 ! A20   A(1,11,7)             124.4844         estimate D2E/DX2                !
 ! A21   A(4,11,7)             125.3298         estimate D2E/DX2                !
 ! A22   A(4,12,16)            107.8874         estimate D2E/DX2                !
 ! A23   A(1,13,18)            107.6273         estimate D2E/DX2                !
 ! A24   A(15,14,16)           103.1263         estimate D2E/DX2                !
 ! A25   A(12,16,14)           153.9745         estimate D2E/DX2                !
 ! A26   A(18,17,19)           103.1241         estimate D2E/DX2                !
 ! A27   A(13,18,17)           153.9737         estimate D2E/DX2                !
 ! D1    D(11,1,2,3)            -0.0904         estimate D2E/DX2                !
 ! D2    D(11,1,2,5)           179.8205         estimate D2E/DX2                !
 ! D3    D(13,1,2,3)           179.9451         estimate D2E/DX2                !
 ! D4    D(13,1,2,5)            -0.144          estimate D2E/DX2                !
 ! D5    D(2,1,11,4)             0.1593         estimate D2E/DX2                !
 ! D6    D(2,1,11,7)          -179.8082         estimate D2E/DX2                !
 ! D7    D(13,1,11,4)         -179.8745         estimate D2E/DX2                !
 ! D8    D(13,1,11,7)            0.158          estimate D2E/DX2                !
 ! D9    D(2,1,13,18)            0.2871         estimate D2E/DX2                !
 ! D10   D(11,1,13,18)        -179.6716         estimate D2E/DX2                !
 ! D11   D(1,2,3,4)             -0.0084         estimate D2E/DX2                !
 ! D12   D(1,2,3,6)            179.8712         estimate D2E/DX2                !
 ! D13   D(5,2,3,4)           -179.9065         estimate D2E/DX2                !
 ! D14   D(5,2,3,6)             -0.0269         estimate D2E/DX2                !
 ! D15   D(2,3,4,11)             0.1044         estimate D2E/DX2                !
 ! D16   D(2,3,4,12)          -179.9259         estimate D2E/DX2                !
 ! D17   D(6,3,4,11)          -179.7906         estimate D2E/DX2                !
 ! D18   D(6,3,4,12)             0.1792         estimate D2E/DX2                !
 ! D19   D(3,4,11,1)            -0.164          estimate D2E/DX2                !
 ! D20   D(3,4,11,7)           179.8031         estimate D2E/DX2                !
 ! D21   D(12,4,11,1)          179.865          estimate D2E/DX2                !
 ! D22   D(12,4,11,7)           -0.1678         estimate D2E/DX2                !
 ! D23   D(3,4,12,16)           -0.4982         estimate D2E/DX2                !
 ! D24   D(11,4,12,16)         179.4664         estimate D2E/DX2                !
 ! D25   D(8,7,11,1)          -174.8351         estimate D2E/DX2                !
 ! D26   D(8,7,11,4)             5.2023         estimate D2E/DX2                !
 ! D27   D(9,7,11,1)           -55.2137         estimate D2E/DX2                !
 ! D28   D(9,7,11,4)           124.8237         estimate D2E/DX2                !
 ! D29   D(10,7,11,1)           65.535          estimate D2E/DX2                !
 ! D30   D(10,7,11,4)         -114.4276         estimate D2E/DX2                !
 ! D31   D(4,12,16,14)          19.9962         estimate D2E/DX2                !
 ! D32   D(1,13,18,17)         -19.8724         estimate D2E/DX2                !
 ! D33   D(15,14,16,12)         80.7421         estimate D2E/DX2                !
 ! D34   D(19,17,18,13)        -80.7781         estimate D2E/DX2                !
 --------------------------------------------------------------------------------
 Trust Radius=3.00D-01 FncErr=1.00D-07 GrdErr=1.00D-06
 Number of steps in this run=     90 maximum allowed number of steps=    114.
 GradGradGradGradGradGradGradGradGradGradGradGradGradGradGradGradGradGrad

                          Input orientation:                          
 ---------------------------------------------------------------------
 Center     Atomic      Atomic             Coordinates (Angstroms)
 Number     Number       Type             X           Y           Z
 ---------------------------------------------------------------------
      1          6           0        1.136654    0.356822   -0.037206
      2          6           0        0.662529   -1.070352   -0.104160
      3          6           0       -0.671588   -1.064751   -0.102945
      4          6           0       -1.136711    0.365596   -0.034961
      5          1           0        1.376933   -1.891578   -0.144849
      6          1           0       -1.393174   -1.879810   -0.142705
      7          6           0        0.020937    2.598226    0.062489
      8          1           0       -1.015564    2.936189    0.172658
      9          1           0        0.614139    2.931567    0.923520
     10          1           0        0.449791    3.021770   -0.855318
     11          7           0        0.004045    1.153595   -0.000925
     12          8           0       -2.269344    0.782080   -0.013227
     13          8           0        2.269850    0.772596   -0.017504
     14          8           0       -3.715179   -1.713868   -0.006477
     15          1           0       -3.874661   -1.807597    0.939799
     16          1           0       -3.491895   -0.774573   -0.100267
     17          8           0        3.701206   -1.729883   -0.003849
     18          1           0        3.483078   -0.789536   -0.099912
     19          1           0        3.859845   -1.822239    0.942701
 ---------------------------------------------------------------------
                    Distance matrix (angstroms):
                    1          2          3          4          5
     1  C    0.000000
     2  C    1.505358   0.000000
     3  C    2.301072   1.334129   0.000000
     4  C    2.273383   2.303041   1.505607   0.000000
     5  H    2.263763   1.089239   2.209488   3.380135   0.000000
     6  H    3.378414   2.209666   1.089306   2.262572   2.770133
     7  C    2.505725   3.727986   3.731536   2.516800   4.694684
     8  H    3.365891   4.352585   4.025146   2.581808   5.397424
     9  H    2.797379   4.132048   4.321722   3.250903   4.998599
    10  H    2.871069   4.165928   4.303860   3.200818   5.050282
    11  N    1.385268   2.321680   2.321195   1.386876   3.343443
    12  O    3.432527   3.469244   2.443698   1.206975   4.523396
    13  O    1.207224   2.446926   3.469179   3.430832   2.812711
    14  O    5.275318   4.425831   3.113536   3.312624   5.097091
    15  H    5.545496   4.713754   3.449465   3.628952   5.363092
    16  H    4.765238   4.164942   2.835197   2.617469   4.995515
    17  O    3.306415   3.111045   4.424200   5.272328   2.334153
    18  H    2.612235   2.834497   4.163773   4.762457   2.377470
    19  H    3.622747   3.447330   4.711799   5.541481   2.711536
                    6          7          8          9         10
     6  H    0.000000
     7  C    4.700492   0.000000
     8  H    4.841063   1.095760   0.000000
     9  H    5.321230   1.097442   1.794365   0.000000
    10  H    5.284867   1.098032   1.792017   1.788690   0.000000
    11  N    3.342734   1.446121   2.060916   2.094755   2.102083
    12  O    2.805369   2.923954   2.499341   3.716485   3.622019
    13  O    4.524232   2.897746   3.938431   2.878899   3.012197
    14  O    2.331910   5.705916   5.379874   6.417784   6.363472
    15  H    2.708285   5.946144   5.591641   6.527577   6.726523
    16  H    2.372336   4.872602   4.469503   5.625223   5.524419
    17  O    5.098477   5.681664   6.637115   5.667373   5.820215
    18  H    4.996835   4.846620   5.847487   4.808829   4.929252
    19  H    5.364292   5.920515   6.856035   5.756183   6.190781
                   11         12         13         14         15
    11  N    0.000000
    12  O    2.303578   0.000000
    13  O    2.297674   4.539206   0.000000
    14  O    4.696275   2.884483   6.480987   0.000000
    15  H    4.969706   3.192449   6.732670   0.964188   0.000000
    16  H    3.993657   1.981256   5.966430   0.970014   1.515053
    17  O    4.688652   6.477462   2.882944   7.416403   7.634807
    18  H    3.986129   5.963879   1.979639   7.257963   7.500251
    19  H    4.961170   6.727796   3.191120   7.635029   7.734520
                   16         17         18         19
    16  H    0.000000
    17  O    7.256901   0.000000
    18  H    6.974989   0.970083   0.000000
    19  H    7.498898   0.964185   1.515081   0.000000
 Stoichiometry    C5H9NO4
 Framework group  C1[X(C5H9NO4)]
 Deg. of freedom    51
 Full point group                 C1      NOp   1
 Largest Abelian subgroup         C1      NOp   1
 Largest concise Abelian subgroup C1      NOp   1
                         Standard orientation:                         
 ---------------------------------------------------------------------
 Center     Atomic      Atomic             Coordinates (Angstroms)
 Number     Number       Type             X           Y           Z
 ---------------------------------------------------------------------
      1          6           0        1.136654    0.356822   -0.037206
      2          6           0        0.662529   -1.070352   -0.104160
      3          6           0       -0.671588   -1.064751   -0.102945
      4          6           0       -1.136711    0.365596   -0.034961
      5          1           0        1.376933   -1.891578   -0.144849
      6          1           0       -1.393174   -1.879810   -0.142705
      7          6           0        0.020937    2.598226    0.062489
      8          1           0       -1.015564    2.936189    0.172658
      9          1           0        0.614139    2.931567    0.923520
     10          1           0        0.449791    3.021770   -0.855318
     11          7           0        0.004045    1.153595   -0.000925
     12          8           0       -2.269344    0.782080   -0.013227
     13          8           0        2.269850    0.772596   -0.017504
     14          8           0       -3.715179   -1.713868   -0.006477
     15          1           0       -3.874661   -1.807597    0.939799
     16          1           0       -3.491895   -0.774573   -0.100267
     17          8           0        3.701206   -1.729883   -0.003849
     18          1           0        3.483078   -0.789536   -0.099912
     19          1           0        3.859845   -1.822239    0.942701
 ---------------------------------------------------------------------
 Rotational constants (GHZ):      1.7444948      0.7115039      0.5092364
 Standard basis: def2SVP (5D, 7F)
 There are   195 symmetry adapted cartesian basis functions of A   symmetry.
 There are   185 symmetry adapted basis functions of A   symmetry.
   185 basis functions,   313 primitive gaussians,   195 cartesian basis functions
    39 alpha electrons       39 beta electrons
       nuclear repulsion energy       530.3223361804 Hartrees.
 NAtoms=   19 NActive=   19 NUniq=   19 SFac= 1.00D+00 NAtFMM=   60 NAOKFM=F Big=F
 Integral buffers will be    131072 words long.
 Raffenetti 2 integral format.
 Two-electron integral symmetry is turned on.
 Nuclear repulsion after empirical dispersion term =      530.3217466256 Hartrees.
 ------------------------------------------------------------------------------
 Polarizable Continuum Model (PCM)
 =================================
 Model                : C-PCM.
 Atomic radii         : UFF (Universal Force Field).
 Polarization charges : Total charges.
 Charge compensation  : None.
 Solution method      : On-the-fly selection.
 Cavity type          : Scaled VdW (van der Waals Surface) (Alpha=1.100).
 Cavity algorithm     : GePol (No added spheres)
                        Default sphere list used, NSphG=   19.
                        Lebedev-Laikov grids with approx.  5.0 points / Ang**2.
                        Smoothing algorithm: Karplus/York (Gamma=1.0000).
                        Polarization charges: spherical gaussians, with
                                              point-specific exponents (IZeta= 3).
                        Self-potential: point-specific (ISelfS= 7).
                        Self-field    : sphere-specific E.n sum rule (ISelfD= 2).
 1st derivatives      : Analytical E(r).r(x)/FMM algorithm (CHGder, D1EAlg=3).
                        Cavity 1st derivative terms included.
 Solvent              : Toluene, Eps=   2.374100 Eps(inf)=   2.238315
 ------------------------------------------------------------------------------
 Spheres list:
 ISph  on   Nord     Re0    Alpha      Xe            Ye            Ze
    1   C      1    1.9255  1.100      1.136654      0.356822     -0.037206
    2   C      2    1.9255  1.100      0.662529     -1.070352     -0.104160
    3   C      3    1.9255  1.100     -0.671588     -1.064751     -0.102945
    4   C      4    1.9255  1.100     -1.136711      0.365596     -0.034961
    5   H      5    1.4430  1.100      1.376933     -1.891578     -0.144849
    6   H      6    1.4430  1.100     -1.393174     -1.879810     -0.142705
    7   C      7    1.9255  1.100      0.020937      2.598226      0.062489
    8   H      8    1.4430  1.100     -1.015564      2.936189      0.172658
    9   H      9    1.4430  1.100      0.614139      2.931567      0.923520
   10   H     10    1.4430  1.100      0.449791      3.021770     -0.855318
   11   N     11    1.8300  1.100      0.004045      1.153595     -0.000925
   12   O     12    1.7500  1.100     -2.269344      0.782080     -0.013227
   13   O     13    1.7500  1.100      2.269850      0.772596     -0.017504
   14   O     14    1.7500  1.100     -3.715179     -1.713868     -0.006477
   15   H     15    1.4430  1.100     -3.874661     -1.807597      0.939799
   16   H     16    1.4430  1.100     -3.491895     -0.774573     -0.100267
   17   O     17    1.7500  1.100      3.701206     -1.729883     -0.003849
   18   H     18    1.4430  1.100      3.483078     -0.789536     -0.099912
   19   H     19    1.4430  1.100      3.859845     -1.822239      0.942701
 ------------------------------------------------------------------------------
 One-electron integrals computed using PRISM.
   1 Symmetry operations used in ECPInt.
 ECPInt:  NShTT=    3828 NPrTT=   13852 LenC2=    3645 LenP2D=    9976.
 LDataN:  DoStor=T MaxTD1= 4 Len=   56
 NBasis=   185 RedAO= T EigKep=  6.83D-04  NBF=   185
 NBsUse=   185 1.00D-06 EigRej= -1.00D+00 NBFU=   185
 ExpMin= 1.22D-01 ExpMax= 2.27D+03 ExpMxC= 3.41D+02 IAcc=1 IRadAn=         1 AccDes= 0.00D+00
 Harris functional with IExCor= 1009 and IRadAn=       1 diagonalized for initial guess.
 HarFok:  IExCor= 1009 AccDes= 0.00D+00 IRadAn=         1 IDoV= 1 UseB2=F ITyADJ=14
 ICtDFT=  3500011 ScaDFX=  1.000000  1.000000  1.000000  1.000000
 FoFCou: FMM=F IPFlag=           0 FMFlag=      100000 FMFlg1=           0
         NFxFlg=           0 DoJE=T BraDBF=F KetDBF=T FulRan=T
         wScrn=  0.000000 ICntrl=     500 IOpCl=  0 I1Cent=   200000004 NGrid=           0
         NMat0=    1 NMatS0=      1 NMatT0=    0 NMatD0=    1 NMtDS0=    0 NMtDT0=    0
 Petite list used in FoFCou.
 Requested convergence on RMS density matrix=1.00D-08 within 128 cycles.
 Requested convergence on MAX density matrix=1.00D-06.
 Requested convergence on             energy=1.00D-06.
 No special actions if energy rises.
 Inv3:  Mode=1 IEnd=     8792832.
 Iteration    1 A*A^-1 deviation from unit magnitude is 5.44D-15 for   1710.
 Iteration    1 A*A^-1 deviation from orthogonality  is 1.41D-15 for    803    244.
 Iteration    1 A^-1*A deviation from unit magnitude is 5.44D-15 for   1710.
 Iteration    1 A^-1*A deviation from orthogonality  is 1.99D-15 for   1285   1231.
 Error on total polarization charges =  0.00329
 SCF Done:  E(RM062X) =  -550.972289041     A.U. after   13 cycles
            NFock= 13  Conv=0.28D-08     -V/T= 2.0085

 **********************************************************************

            Population analysis using the SCF density.

 **********************************************************************

 Orbital symmetries:
       Occupied  (A) (A) (A) (A) (A) (A) (A) (A) (A) (A) (A) (A)
                 (A) (A) (A) (A) (A) (A) (A) (A) (A) (A) (A) (A)
                 (A) (A) (A) (A) (A) (A) (A) (A) (A) (A) (A) (A)
                 (A) (A) (A)
       Virtual   (A) (A) (A) (A) (A) (A) (A) (A) (A) (A) (A) (A)
                 (A) (A) (A) (A) (A) (A) (A) (A) (A) (A) (A) (A)
                 (A) (A) (A) (A) (A) (A) (A) (A) (A) (A) (A) (A)
                 (A) (A) (A) (A) (A) (A) (A) (A) (A) (A) (A) (A)
                 (A) (A) (A) (A) (A) (A) (A) (A) (A) (A) (A) (A)
                 (A) (A) (A) (A) (A) (A) (A) (A) (A) (A) (A) (A)
                 (A) (A) (A) (A) (A) (A) (A) (A) (A) (A) (A) (A)
                 (A) (A) (A) (A) (A) (A) (A) (A) (A) (A) (A) (A)
                 (A) (A) (A) (A) (A) (A) (A) (A) (A) (A) (A) (A)
                 (A) (A) (A) (A) (A) (A) (A) (A) (A) (A) (A) (A)
                 (A) (A) (A) (A) (A) (A) (A) (A) (A) (A) (A) (A)
                 (A) (A) (A) (A) (A) (A) (A) (A) (A) (A) (A) (A)
                 (A) (A)
 The electronic state is 1-A.
 Alpha  occ. eigenvalues --  -19.65747 -19.65696 -19.61237 -19.61217 -14.82050
 Alpha  occ. eigenvalues --  -10.69854 -10.69715 -10.60402 -10.59479 -10.59380
 Alpha  occ. eigenvalues --   -1.20885  -1.18997  -1.09294  -1.09218  -1.08158
 Alpha  occ. eigenvalues --   -0.93392  -0.80777  -0.77149  -0.70644  -0.64344
 Alpha  occ. eigenvalues --   -0.59713  -0.58811  -0.58567  -0.58458  -0.55883
 Alpha  occ. eigenvalues --   -0.53627  -0.52920  -0.51141  -0.49824  -0.49416
 Alpha  occ. eigenvalues --   -0.47768  -0.45269  -0.45037  -0.39333  -0.38308
 Alpha  occ. eigenvalues --   -0.37716  -0.37574  -0.35727  -0.34705
 Alpha virt. eigenvalues --   -0.06803   0.09157   0.10070   0.10540   0.11245
 Alpha virt. eigenvalues --    0.11375   0.15585   0.16291   0.18069   0.18870
 Alpha virt. eigenvalues --    0.20392   0.20873   0.21616   0.24175   0.28153
 Alpha virt. eigenvalues --    0.28806   0.30640   0.37099   0.39976   0.40795
 Alpha virt. eigenvalues --    0.43759   0.44610   0.47768   0.48967   0.49620
 Alpha virt. eigenvalues --    0.50863   0.55741   0.59167   0.60968   0.61248
 Alpha virt. eigenvalues --    0.61926   0.65025   0.65130   0.66204   0.68466
 Alpha virt. eigenvalues --    0.69191   0.70012   0.70575   0.71453   0.71901
 Alpha virt. eigenvalues --    0.74054   0.74464   0.75319   0.77050   0.80464
 Alpha virt. eigenvalues --    0.82736   0.84484   0.91221   0.95819   0.98239
 Alpha virt. eigenvalues --    1.00341   1.01073   1.06327   1.07728   1.08863
 Alpha virt. eigenvalues --    1.08957   1.12724   1.13600   1.14131   1.17831
 Alpha virt. eigenvalues --    1.19908   1.22126   1.24532   1.24552   1.26735
 Alpha virt. eigenvalues --    1.28763   1.31033   1.33396   1.34089   1.37936
 Alpha virt. eigenvalues --    1.42853   1.45367   1.47638   1.49538   1.49571
 Alpha virt. eigenvalues --    1.53669   1.54269   1.55668   1.57809   1.62031
 Alpha virt. eigenvalues --    1.62631   1.65029   1.66747   1.71867   1.74774
 Alpha virt. eigenvalues --    1.75584   1.78780   1.80373   1.81304   1.82834
 Alpha virt. eigenvalues --    1.84180   1.84304   1.86417   1.90317   1.95767
 Alpha virt. eigenvalues --    1.99282   2.00348   2.04601   2.07465   2.09516
 Alpha virt. eigenvalues --    2.11250   2.17403   2.20546   2.24980   2.29752
 Alpha virt. eigenvalues --    2.29866   2.30954   2.37738   2.38781   2.39443
 Alpha virt. eigenvalues --    2.41416   2.42140   2.44529   2.46739   2.52924
 Alpha virt. eigenvalues --    2.61018   2.64879   2.67496   2.70783   2.74646
 Alpha virt. eigenvalues --    2.75047   2.78745   2.80231   2.84235   2.84899
 Alpha virt. eigenvalues --    2.92540   2.94703   3.02100   3.03518   3.04369
 Alpha virt. eigenvalues --    3.07398   3.08054   3.18382   3.21625   3.22207
 Alpha virt. eigenvalues --    3.25244   3.25287   3.37307   3.43365   3.55271
 Alpha virt. eigenvalues --    3.55569   3.60961   3.69109   3.70851   3.87705
 Alpha virt. eigenvalues --    3.87920
          Condensed to atoms (all electrons):
               1          2          3          4          5          6
     1  C    4.651145   0.238996   0.038604  -0.123562  -0.048933   0.008755
     2  C    0.238996   5.378892   0.224368   0.030570   0.407836  -0.041805
     3  C    0.038604   0.224368   5.397610   0.232400  -0.042348   0.406866
     4  C   -0.123562   0.030570   0.232400   4.653667   0.008814  -0.048611
     5  H   -0.048933   0.407836  -0.042348   0.008814   0.576252  -0.005823
     6  H    0.008755  -0.041805   0.406866  -0.048611  -0.005823   0.576222
     7  C   -0.018448   0.009691   0.007893  -0.024193  -0.000092  -0.000049
     8  H    0.005581  -0.001022   0.003265  -0.006526   0.000009  -0.000006
     9  H   -0.004445   0.001180  -0.000718   0.002846   0.000003   0.000004
    10  H   -0.003781   0.000669  -0.000598   0.001722   0.000005   0.000004
    11  N    0.298034  -0.117869  -0.122865   0.309418   0.004802   0.004724
    12  O    0.000375   0.004841  -0.077254   0.673376  -0.000049  -0.002346
    13  O    0.676398  -0.076130   0.004460   0.000362  -0.002176  -0.000052
    14  O   -0.000015   0.001292  -0.012172  -0.001729  -0.000008   0.052723
    15  H    0.000004  -0.000112   0.000894   0.000889   0.000002  -0.002534
    16  H    0.000010  -0.000013  -0.000620  -0.002566   0.000003  -0.009552
    17  O   -0.001688  -0.011873   0.001306  -0.000016   0.052281  -0.000007
    18  H   -0.002671  -0.000780  -0.000022   0.000009  -0.009420   0.000002
    19  H    0.000904   0.000888  -0.000118   0.000005  -0.002524   0.000002
               7          8          9         10         11         12
     1  C   -0.018448   0.005581  -0.004445  -0.003781   0.298034   0.000375
     2  C    0.009691  -0.001022   0.001180   0.000669  -0.117869   0.004841
     3  C    0.007893   0.003265  -0.000718  -0.000598  -0.122865  -0.077254
     4  C   -0.024193  -0.006526   0.002846   0.001722   0.309418   0.673376
     5  H   -0.000092   0.000009   0.000003   0.000005   0.004802  -0.000049
     6  H   -0.000049  -0.000006   0.000004   0.000004   0.004724  -0.002346
     7  C    4.483095   0.400780   0.409192   0.411922   0.247809  -0.003391
     8  H    0.400780   0.564989  -0.017440  -0.018817  -0.024927   0.014505
     9  H    0.409192  -0.017440   0.580677  -0.024341  -0.026427   0.000136
    10  H    0.411922  -0.018817  -0.024341   0.578797  -0.026537   0.000104
    11  N    0.247809  -0.024927  -0.026427  -0.026537   7.030725  -0.090077
    12  O   -0.003391   0.014505   0.000136   0.000104  -0.090077   7.712995
    13  O    0.008973   0.000220   0.002207   0.000916  -0.094536  -0.000012
    14  O    0.000001   0.000002   0.000000   0.000000   0.000022  -0.010494
    15  H    0.000000  -0.000001   0.000000   0.000000   0.000005   0.000650
    16  H   -0.000026  -0.000051   0.000001   0.000003   0.000727   0.035800
    17  O    0.000001   0.000000   0.000000   0.000000   0.000022   0.000000
    18  H   -0.000055   0.000002  -0.000018  -0.000001   0.000756   0.000000
    19  H   -0.000001   0.000000   0.000001   0.000000   0.000006   0.000000
              13         14         15         16         17         18
     1  C    0.676398  -0.000015   0.000004   0.000010  -0.001688  -0.002671
     2  C   -0.076130   0.001292  -0.000112  -0.000013  -0.011873  -0.000780
     3  C    0.004460  -0.012172   0.000894  -0.000620   0.001306  -0.000022
     4  C    0.000362  -0.001729   0.000889  -0.002566  -0.000016   0.000009
     5  H   -0.002176  -0.000008   0.000002   0.000003   0.052281  -0.009420
     6  H   -0.000052   0.052723  -0.002534  -0.009552  -0.000007   0.000002
     7  C    0.008973   0.000001   0.000000  -0.000026   0.000001  -0.000055
     8  H    0.000220   0.000002  -0.000001  -0.000051   0.000000   0.000002
     9  H    0.002207   0.000000   0.000000   0.000001   0.000000  -0.000018
    10  H    0.000916   0.000000   0.000000   0.000003   0.000000  -0.000001
    11  N   -0.094536   0.000022   0.000005   0.000727   0.000022   0.000756
    12  O   -0.000012  -0.010494   0.000650   0.035800   0.000000   0.000000
    13  O    7.713772   0.000000   0.000000   0.000000  -0.010646   0.036123
    14  O    0.000000   7.656909   0.331385   0.336975   0.000000   0.000000
    15  H    0.000000   0.331385   0.516776  -0.027689   0.000000   0.000000
    16  H    0.000000   0.336975  -0.027689   0.481607   0.000000   0.000000
    17  O   -0.010646   0.000000   0.000000   0.000000   7.657645   0.336820
    18  H    0.036123   0.000000   0.000000   0.000000   0.336820   0.481652
    19  H    0.000645   0.000000   0.000000   0.000000   0.331388  -0.027723
              19
     1  C    0.000904
     2  C    0.000888
     3  C   -0.000118
     4  C    0.000005
     5  H   -0.002524
     6  H    0.000002
     7  C   -0.000001
     8  H    0.000000
     9  H    0.000001
    10  H    0.000000
    11  N    0.000006
    12  O    0.000000
    13  O    0.000645
    14  O    0.000000
    15  H    0.000000
    16  H    0.000000
    17  O    0.331388
    18  H   -0.027723
    19  H    0.516898
 Mulliken charges:
               1
     1  C    0.284735
     2  C   -0.049620
     3  C   -0.060951
     4  C    0.293125
     5  H    0.061364
     6  H    0.061483
     7  C    0.066896
     8  H    0.079436
     9  H    0.077140
    10  H    0.079935
    11  N   -0.393813
    12  O   -0.259160
    13  O   -0.260525
    14  O   -0.354889
    15  H    0.179731
    16  H    0.185391
    17  O   -0.355233
    18  H    0.185324
    19  H    0.179630
 Sum of Mulliken charges =   0.00000
 Mulliken charges with hydrogens summed into heavy atoms:
               1
     1  C    0.284735
     2  C    0.011744
     3  C    0.000532
     4  C    0.293125
     7  C    0.303408
    11  N   -0.393813
    12  O   -0.259160
    13  O   -0.260525
    14  O    0.010232
    17  O    0.009721
 Electronic spatial extent (au):  <R**2>=           2104.4662
 Charge=              0.0000 electrons
 Dipole moment (field-independent basis, Debye):
    X=             -0.0278    Y=              2.0185    Z=              2.9595  Tot=              3.5824
 Quadrupole moment (field-independent basis, Debye-Ang):
   XX=            -75.8300   YY=            -58.0047   ZZ=            -54.8919
   XY=             -0.0357   XZ=             -0.0255   YZ=             -5.8412
 Traceless Quadrupole moment (field-independent basis, Debye-Ang):
   XX=            -12.9211   YY=              4.9041   ZZ=              8.0170
   XY=             -0.0357   XZ=             -0.0255   YZ=             -5.8412
 Octapole moment (field-independent basis, Debye-Ang**2):
  XXX=             -0.5509  YYY=             20.6894  ZZZ=              5.2074  XYY=             -0.3076
  XXY=             19.0413  XXZ=             49.4365  XZZ=              0.6597  YZZ=             -4.7912
  YYZ=             12.6034  XYZ=             -0.0361
 Hexadecapole moment (field-independent basis, Debye-Ang**3):
 XXXX=          -1812.7734 YYYY=           -736.4133 ZZZZ=            -59.8913 XXXY=             -2.2768
 XXXZ=             -1.2742 YYYX=              0.0585 YYYZ=            -24.8727 ZZZX=              0.1813
 ZZZY=            -10.1558 XXYY=           -486.3699 XXZZ=           -226.9474 YYZZ=           -127.5028
 XXYZ=            -97.0282 YYXZ=              0.0288 ZZXY=              1.8167
 N-N= 5.303217466256D+02 E-N=-2.349963748734D+03  KE= 5.463441390138D+02
   1 Symmetry operations used in ECPInt.
 ECPInt:  NShTT=    3828 NPrTT=   13852 LenC2=    3645 LenP2D=    9976.
 LDataN:  DoStor=T MaxTD1= 5 Len=  102
 D1PCM: C-PCM CHGder 1st derivatives, ID1Alg=3 FixD1E=F DoIter=F DoCFld=F I1PDM=0.
 Calling FoFJK, ICntrl=      2127 FMM=F ISym2X=0 I1Cent= 0 IOpClX= 0 NMat=1 NMatS=1 NMatT=0.
 ***** Axes restored to original set *****
 -------------------------------------------------------------------
 Center     Atomic                   Forces (Hartrees/Bohr)
 Number     Number              X              Y              Z
 -------------------------------------------------------------------
      1        6          -0.000014924    0.000003323   -0.000000913
      2        6           0.000028766   -0.000018890   -0.000003206
      3        6          -0.000033249   -0.000013676   -0.000002735
      4        6           0.000009886    0.000008472   -0.000002245
      5        1          -0.000018757   -0.000000280   -0.000000087
      6        1           0.000015921    0.000000397   -0.000000549
      7        6           0.000000539    0.000000263   -0.000003868
      8        1          -0.000008801    0.000004008    0.000001434
      9        1           0.000010877    0.000006767    0.000002204
     10        1           0.000006216    0.000011283   -0.000007314
     11        7           0.000002502   -0.000002609    0.000015928
     12        8          -0.000027914   -0.000027739   -0.000001906
     13        8           0.000028124   -0.000016084   -0.000002971
     14        8           0.000009227   -0.000000529    0.000008863
     15        1           0.000004113    0.000001728    0.000004188
     16        1          -0.000001751    0.000022431   -0.000004222
     17        8          -0.000006014   -0.000003744    0.000005016
     18        1          -0.000000629    0.000026382   -0.000008088
     19        1          -0.000004132   -0.000001504    0.000000471
 -------------------------------------------------------------------
 Cartesian Forces:  Max     0.000033249 RMS     0.000012189

 GradGradGradGradGradGradGradGradGradGradGradGradGradGradGradGradGradGrad
 Berny optimization.
 FormGI is forming the generalized inverse of G from B-inverse, IUseBI=4.
 Internal  Forces:  Max     0.000029841 RMS     0.000009799
 Search for a local minimum.
 Step number   1 out of a maximum of   90
 All quantities printed in internal units (Hartrees-Bohrs-Radians)
 Mixed Optimization -- En-DIIS/RFO-DIIS
 Second derivative matrix not updated -- first step.
 ITU=  0
     Eigenvalues ---    0.00230   0.00230   0.01082   0.01219   0.01368
     Eigenvalues ---    0.01424   0.01425   0.01602   0.01925   0.02008
     Eigenvalues ---    0.02036   0.02375   0.04242   0.04245   0.04443
     Eigenvalues ---    0.04455   0.07558   0.07864   0.16000   0.16000
     Eigenvalues ---    0.16000   0.16000   0.16000   0.16000   0.16000
     Eigenvalues ---    0.16000   0.16000   0.22724   0.24801   0.25000
     Eigenvalues ---    0.25000   0.25000   0.25000   0.25000   0.30461
     Eigenvalues ---    0.31616   0.33901   0.33967   0.34155   0.34893
     Eigenvalues ---    0.34901   0.38758   0.44473   0.46682   0.53360
     Eigenvalues ---    0.53374   0.54582   0.54583   0.56316   1.01275
     Eigenvalues ---    1.01395
 RFO step:  Lambda=-7.78546904D-08 EMin= 2.30000000D-03
 Linear search not attempted -- first point.
 Iteration  1 RMS(Cart)=  0.00074945 RMS(Int)=  0.00000064
 Iteration  2 RMS(Cart)=  0.00000064 RMS(Int)=  0.00000000
 Variable       Old X    -DE/DX   Delta X   Delta X   Delta X     New X
                                 (Linear)    (Quad)   (Total)
    R1        2.84471   0.00002   0.00000   0.00005   0.00005   2.84477
    R2        2.61778   0.00001   0.00000   0.00002   0.00002   2.61780
    R3        2.28132   0.00002   0.00000   0.00002   0.00002   2.28134
    R4        2.52114   0.00001   0.00000   0.00001   0.00001   2.52115
    R5        2.05836  -0.00001   0.00000  -0.00003  -0.00003   2.05833
    R6        2.84519   0.00001   0.00000   0.00003   0.00003   2.84522
    R7        2.05849  -0.00001   0.00000  -0.00003  -0.00003   2.05846
    R8        2.62082   0.00002   0.00000   0.00004   0.00004   2.62086
    R9        2.28085   0.00001   0.00000   0.00001   0.00001   2.28087
   R10        2.07069   0.00001   0.00000   0.00003   0.00003   2.07072
   R11        2.07387   0.00001   0.00000   0.00003   0.00003   2.07389
   R12        2.07498   0.00001   0.00000   0.00004   0.00004   2.07502
   R13        2.73277   0.00002   0.00000   0.00006   0.00006   2.73283
   R14        3.74403  -0.00002   0.00000  -0.00055  -0.00055   3.74348
   R15        3.74098  -0.00002   0.00000  -0.00055  -0.00055   3.74043
   R16        1.82205   0.00000   0.00000   0.00000   0.00000   1.82205
   R17        1.83306   0.00000   0.00000   0.00000   0.00000   1.83306
   R18        1.83319   0.00000   0.00000   0.00001   0.00001   1.83320
   R19        1.82205   0.00000   0.00000   0.00000   0.00000   1.82205
    A1        1.86393   0.00000   0.00000   0.00002   0.00002   1.86395
    A2        2.24323   0.00000   0.00000  -0.00001  -0.00001   2.24322
    A3        2.17603   0.00000   0.00000  -0.00001  -0.00001   2.17601
    A4        1.88697   0.00000   0.00000  -0.00001  -0.00001   1.88696
    A5        2.10584   0.00002   0.00000   0.00009   0.00009   2.10593
    A6        2.29037  -0.00001   0.00000  -0.00008  -0.00008   2.29029
    A7        1.88910   0.00000   0.00000   0.00000   0.00000   1.88910
    A8        2.29061  -0.00001   0.00000  -0.00008  -0.00008   2.29053
    A9        2.10347   0.00001   0.00000   0.00008   0.00008   2.10355
   A10        1.86167   0.00000   0.00000   0.00002   0.00002   1.86168
   A11        2.23766  -0.00002   0.00000  -0.00008  -0.00008   2.23759
   A12        2.18386   0.00002   0.00000   0.00006   0.00006   2.18392
   A13        1.91637   0.00000   0.00000   0.00000   0.00000   1.91637
   A14        1.91188   0.00000   0.00000  -0.00001  -0.00001   1.91188
   A15        1.87703   0.00000   0.00000   0.00001   0.00001   1.87704
   A16        1.90448  -0.00001   0.00000  -0.00007  -0.00007   1.90441
   A17        1.92213   0.00000   0.00000   0.00001   0.00001   1.92214
   A18        1.93183   0.00001   0.00000   0.00006   0.00006   1.93189
   A19        1.92311  -0.00001   0.00000  -0.00002  -0.00002   1.92308
   A20        2.17266   0.00000   0.00000  -0.00002  -0.00002   2.17264
   A21        2.18742   0.00001   0.00000   0.00004   0.00004   2.18746
   A22        1.88299  -0.00001   0.00000  -0.00005  -0.00005   1.88294
   A23        1.87845   0.00000   0.00000   0.00001   0.00001   1.87846
   A24        1.79989   0.00000   0.00000  -0.00002  -0.00002   1.79987
   A25        2.68736  -0.00003   0.00000  -0.00012  -0.00012   2.68724
   A26        1.79985   0.00000   0.00000   0.00000   0.00000   1.79986
   A27        2.68735  -0.00002   0.00000  -0.00010  -0.00010   2.68725
    D1       -0.00158   0.00000   0.00000   0.00000   0.00000  -0.00158
    D2        3.13846   0.00000   0.00000  -0.00002  -0.00002   3.13844
    D3        3.14063   0.00000   0.00000  -0.00008  -0.00008   3.14055
    D4       -0.00251   0.00000   0.00000  -0.00010  -0.00010  -0.00261
    D5        0.00278   0.00000   0.00000   0.00002   0.00002   0.00280
    D6       -3.13824   0.00000   0.00000   0.00003   0.00003  -3.13822
    D7       -3.13940   0.00000   0.00000   0.00010   0.00010  -3.13930
    D8        0.00276   0.00000   0.00000   0.00011   0.00011   0.00286
    D9        0.00501  -0.00001   0.00000  -0.00015  -0.00015   0.00486
   D10       -3.13586  -0.00001   0.00000  -0.00024  -0.00024  -3.13611
   D11       -0.00015   0.00000   0.00000  -0.00002  -0.00002  -0.00017
   D12        3.13934   0.00000   0.00000  -0.00004  -0.00004   3.13930
   D13       -3.13996   0.00000   0.00000   0.00000   0.00000  -3.13996
   D14       -0.00047   0.00000   0.00000  -0.00002  -0.00002  -0.00049
   D15        0.00182   0.00000   0.00000   0.00004   0.00004   0.00186
   D16       -3.14030   0.00000   0.00000   0.00011   0.00011  -3.14019
   D17       -3.13794   0.00000   0.00000   0.00005   0.00005  -3.13788
   D18        0.00313   0.00000   0.00000   0.00012   0.00012   0.00325
   D19       -0.00286   0.00000   0.00000  -0.00004  -0.00004  -0.00290
   D20        3.13816   0.00000   0.00000  -0.00004  -0.00004   3.13812
   D21        3.13924   0.00000   0.00000  -0.00010  -0.00010   3.13914
   D22       -0.00293   0.00000   0.00000  -0.00011  -0.00011  -0.00303
   D23       -0.00870   0.00001   0.00000   0.00024   0.00024  -0.00846
   D24        3.13228   0.00001   0.00000   0.00032   0.00032   3.13260
   D25       -3.05145   0.00000   0.00000   0.00014   0.00014  -3.05131
   D26        0.09080   0.00000   0.00000   0.00014   0.00014   0.09094
   D27       -0.96366   0.00000   0.00000   0.00015   0.00015  -0.96351
   D28        2.17859   0.00000   0.00000   0.00015   0.00015   2.17874
   D29        1.14380   0.00000   0.00000   0.00011   0.00011   1.14391
   D30       -1.99714   0.00000   0.00000   0.00011   0.00011  -1.99703
   D31        0.34900   0.00000   0.00000  -0.00065  -0.00065   0.34835
   D32       -0.34684   0.00000   0.00000   0.00182   0.00182  -0.34502
   D33        1.40922  -0.00001   0.00000  -0.00048  -0.00048   1.40873
   D34       -1.40984   0.00001   0.00000   0.00058   0.00058  -1.40927
         Item               Value     Threshold  Converged?
 Maximum Force            0.000030     0.000450     YES
 RMS     Force            0.000010     0.000300     YES
 Maximum Displacement     0.004770     0.001800     NO 
 RMS     Displacement     0.000749     0.001200     YES
 Predicted change in Energy=-3.892735D-08
 GradGradGradGradGradGradGradGradGradGradGradGradGradGradGradGradGradGrad

                          Input orientation:                          
 ---------------------------------------------------------------------
 Center     Atomic      Atomic             Coordinates (Angstroms)
 Number     Number       Type             X           Y           Z
 ---------------------------------------------------------------------
      1          6           0        1.136664    0.356901   -0.037286
      2          6           0        0.662561   -1.070304   -0.104345
      3          6           0       -0.671564   -1.064715   -0.103213
      4          6           0       -1.136708    0.365641   -0.035148
      5          1           0        1.376893   -1.891568   -0.145052
      6          1           0       -1.393066   -1.879820   -0.143095
      7          6           0        0.020961    2.598337    0.062429
      8          1           0       -1.015539    2.936320    0.172706
      9          1           0        0.614263    2.931660    0.923417
     10          1           0        0.449760    3.021971   -0.855385
     11          7           0        0.004045    1.153678   -0.001031
     12          8           0       -2.269384    0.782025   -0.013357
     13          8           0        2.269863    0.772689   -0.017417
     14          8           0       -3.714487   -1.713969   -0.006206
     15          1           0       -3.872887   -1.808001    0.940223
     16          1           0       -3.491536   -0.774594   -0.099962
     17          8           0        3.700777   -1.729685   -0.003902
     18          1           0        3.482953   -0.789207   -0.099405
     19          1           0        3.857321   -1.823105    0.942893
 ---------------------------------------------------------------------
                    Distance matrix (angstroms):
                    1          2          3          4          5
     1  C    0.000000
     2  C    1.505386   0.000000
     3  C    2.301092   1.334137   0.000000
     4  C    2.273390   2.303062   1.505626   0.000000
     5  H    2.263832   1.089220   2.209437   3.380127   0.000000
     6  H    3.378409   2.209619   1.089290   2.262623   2.769985
     7  C    2.505748   3.728055   3.731618   2.516873   4.694768
     8  H    3.365929   4.352679   4.025262   2.581914   5.397518
     9  H    2.797363   4.132112   4.321844   3.251031   4.998676
    10  H    2.871188   4.166061   4.303967   3.200900   5.050447
    11  N    1.385278   2.321726   2.321240   1.386897   3.343497
    12  O    3.432560   3.469251   2.443675   1.206982   4.523359
    13  O    1.207234   2.446957   3.469208   3.430849   2.812819
    14  O    5.274765   4.425210   3.112929   3.312184   5.096369
    15  H    5.544180   4.712283   3.448145   3.628050   5.361436
    16  H    4.764918   4.164611   2.834859   2.617164   4.995124
    17  O    3.305999   3.110568   4.423733   5.271871   2.333788
    18  H    2.611990   2.834369   4.163643   4.762254   2.377555
    19  H    3.621484   3.445273   4.709595   5.539629   2.709397
                    6          7          8          9         10
     6  H    0.000000
     7  C    4.700595   0.000000
     8  H    4.841225   1.095776   0.000000
     9  H    5.321387   1.097458   1.794392   0.000000
    10  H    5.284971   1.098051   1.792040   1.788674   0.000000
    11  N    3.342785   1.446151   2.060959   2.094801   2.102166
    12  O    2.805384   2.924108   2.499547   3.716705   3.622169
    13  O    4.524229   2.897745   3.938441   2.878774   3.012348
    14  O    2.331361   5.705634   5.379733   6.417488   6.363269
    15  H    2.707074   5.945451   5.591253   6.526805   6.725929
    16  H    2.372122   4.872439   4.469428   5.625052   5.524344
    17  O    5.097956   5.681304   6.636749   5.666977   5.819997
    18  H    4.996689   4.846342   5.847224   4.808368   4.929183
    19  H    5.361823   5.919630   6.854931   5.755484   6.190318
                   11         12         13         14         15
    11  N    0.000000
    12  O    2.303640   0.000000
    13  O    2.297684   4.539258   0.000000
    14  O    4.695839   2.884157   6.480435   0.000000
    15  H    4.968713   3.191985   6.731301   0.964189   0.000000
    16  H    3.993382   1.980963   5.966122   0.970012   1.515039
    17  O    4.688242   6.477005   2.882632   7.415282   7.632687
    18  H    3.985885   5.963686   1.979350   7.257204   7.498477
    19  H    4.959835   6.725892   3.190668   7.631840   7.730223
                   16         17         18         19
    16  H    0.000000
    17  O    7.256087   0.000000
    18  H    6.974504   0.970085   0.000000
    19  H    7.496173   0.964186   1.515085   0.000000
 Stoichiometry    C5H9NO4
 Framework group  C1[X(C5H9NO4)]
 Deg. of freedom    51
 Full point group                 C1      NOp   1
 Largest Abelian subgroup         C1      NOp   1
 Largest concise Abelian subgroup C1      NOp   1
                         Standard orientation:                         
 ---------------------------------------------------------------------
 Center     Atomic      Atomic             Coordinates (Angstroms)
 Number     Number       Type             X           Y           Z
 ---------------------------------------------------------------------
      1          6           0        1.136652    0.356815   -0.037244
      2          6           0        0.662489   -1.070371   -0.104302
      3          6           0       -0.671635   -1.064726   -0.103170
      4          6           0       -1.136720    0.365649   -0.035106
      5          1           0        1.376787   -1.891664   -0.145009
      6          1           0       -1.393171   -1.879801   -0.143053
      7          6           0        0.021041    2.598297    0.062471
      8          1           0       -1.015444    2.936324    0.172748
      9          1           0        0.614357    2.931596    0.923460
     10          1           0        0.449858    3.021914   -0.855342
     11          7           0        0.004066    1.153639   -0.000988
     12          8           0       -2.269378    0.782080   -0.013315
     13          8           0        2.269868    0.772556   -0.017374
     14          8           0       -3.714586   -1.713854   -0.006164
     15          1           0       -3.872990   -1.807879    0.940265
     16          1           0       -3.491595   -0.774488   -0.099920
     17          8           0        3.700679   -1.729877   -0.003860
     18          1           0        3.482893   -0.789391   -0.099363
     19          1           0        3.857218   -1.823304    0.942936
 ---------------------------------------------------------------------
 Rotational constants (GHZ):      1.7444175      0.7116679      0.5093162
 Standard basis: def2SVP (5D, 7F)
 There are   195 symmetry adapted cartesian basis functions of A   symmetry.
 There are   185 symmetry adapted basis functions of A   symmetry.
   185 basis functions,   313 primitive gaussians,   195 cartesian basis functions
    39 alpha electrons       39 beta electrons
       nuclear repulsion energy       530.3377677986 Hartrees.
 NAtoms=   19 NActive=   19 NUniq=   19 SFac= 1.00D+00 NAtFMM=   60 NAOKFM=F Big=F
 Integral buffers will be    131072 words long.
 Raffenetti 2 integral format.
 Two-electron integral symmetry is turned on.
 Nuclear repulsion after empirical dispersion term =      530.3371781957 Hartrees.
 ------------------------------------------------------------------------------
 Polarizable Continuum Model (PCM)
 =================================
 Model                : C-PCM.
 Atomic radii         : UFF (Universal Force Field).
 Polarization charges : Total charges.
 Charge compensation  : None.
 Solution method      : On-the-fly selection.
 Cavity type          : Scaled VdW (van der Waals Surface) (Alpha=1.100).
 Cavity algorithm     : GePol (No added spheres)
                        Default sphere list used, NSphG=   19.
                        Lebedev-Laikov grids with approx.  5.0 points / Ang**2.
                        Smoothing algorithm: Karplus/York (Gamma=1.0000).
                        Polarization charges: spherical gaussians, with
                                              point-specific exponents (IZeta= 3).
                        Self-potential: point-specific (ISelfS= 7).
                        Self-field    : sphere-specific E.n sum rule (ISelfD= 2).
 1st derivatives      : Analytical E(r).r(x)/FMM algorithm (CHGder, D1EAlg=3).
                        Cavity 1st derivative terms included.
 Solvent              : Toluene, Eps=   2.374100 Eps(inf)=   2.238315
 ------------------------------------------------------------------------------
 Spheres list:
 ISph  on   Nord     Re0    Alpha      Xe            Ye            Ze
    1   C      1    1.9255  1.100      1.136652      0.356815     -0.037244
    2   C      2    1.9255  1.100      0.662489     -1.070371     -0.104302
    3   C      3    1.9255  1.100     -0.671635     -1.064726     -0.103170
    4   C      4    1.9255  1.100     -1.136720      0.365649     -0.035106
    5   H      5    1.4430  1.100      1.376787     -1.891664     -0.145009
    6   H      6    1.4430  1.100     -1.393171     -1.879801     -0.143053
    7   C      7    1.9255  1.100      0.021041      2.598297      0.062471
    8   H      8    1.4430  1.100     -1.015444      2.936324      0.172748
    9   H      9    1.4430  1.100      0.614357      2.931596      0.923460
   10   H     10    1.4430  1.100      0.449858      3.021914     -0.855342
   11   N     11    1.8300  1.100      0.004066      1.153639     -0.000988
   12   O     12    1.7500  1.100     -2.269378      0.782080     -0.013315
   13   O     13    1.7500  1.100      2.269868      0.772556     -0.017374
   14   O     14    1.7500  1.100     -3.714586     -1.713854     -0.006164
   15   H     15    1.4430  1.100     -3.872990     -1.807879      0.940265
   16   H     16    1.4430  1.100     -3.491595     -0.774488     -0.099920
   17   O     17    1.7500  1.100      3.700679     -1.729877     -0.003860
   18   H     18    1.4430  1.100      3.482893     -0.789391     -0.099363
   19   H     19    1.4430  1.100      3.857218     -1.823304      0.942936
 ------------------------------------------------------------------------------
 One-electron integrals computed using PRISM.
   1 Symmetry operations used in ECPInt.
 ECPInt:  NShTT=    3828 NPrTT=   13852 LenC2=    3645 LenP2D=    9978.
 LDataN:  DoStor=T MaxTD1= 4 Len=   56
 NBasis=   185 RedAO= T EigKep=  6.83D-04  NBF=   185
 NBsUse=   185 1.00D-06 EigRej= -1.00D+00 NBFU=   185
 Initial guess from the checkpoint file:  "m062x_PM6_2H2O_dienophile_pm6_cpcmtoluene_1_gd3.chk"
 B after Tr=     0.000000    0.000000    0.000000
         Rot=    1.000000    0.000007   -0.000005    0.000008 Ang=   0.00 deg.
 Requested convergence on RMS density matrix=1.00D-08 within 128 cycles.
 Requested convergence on MAX density matrix=1.00D-06.
 Requested convergence on             energy=1.00D-06.
 No special actions if energy rises.
 Inv3:  Mode=1 IEnd=     8792832.
 Iteration    1 A*A^-1 deviation from unit magnitude is 6.22D-15 for   1705.
 Iteration    1 A*A^-1 deviation from orthogonality  is 1.86D-15 for   1696   1635.
 Iteration    1 A^-1*A deviation from unit magnitude is 6.22D-15 for   1705.
 Iteration    1 A^-1*A deviation from orthogonality  is 1.20D-15 for    875    470.
 Error on total polarization charges =  0.00329
 SCF Done:  E(RM062X) =  -550.972289071     A.U. after    7 cycles
            NFock=  7  Conv=0.77D-08     -V/T= 2.0085
   1 Symmetry operations used in ECPInt.
 ECPInt:  NShTT=    3828 NPrTT=   13852 LenC2=    3645 LenP2D=    9978.
 LDataN:  DoStor=T MaxTD1= 5 Len=  102
 D1PCM: C-PCM CHGder 1st derivatives, ID1Alg=3 FixD1E=F DoIter=F DoCFld=F I1PDM=0.
 Calling FoFJK, ICntrl=      2127 FMM=F ISym2X=0 I1Cent= 0 IOpClX= 0 NMat=1 NMatS=1 NMatT=0.
 ***** Axes restored to original set *****
 -------------------------------------------------------------------
 Center     Atomic                   Forces (Hartrees/Bohr)
 Number     Number              X              Y              Z
 -------------------------------------------------------------------
      1        6          -0.000001724   -0.000003743    0.000006243
      2        6           0.000004643    0.000004231   -0.000002403
      3        6          -0.000001438    0.000005182   -0.000004310
      4        6           0.000003034   -0.000002301    0.000001464
      5        1          -0.000008189   -0.000000149   -0.000005784
      6        1           0.000006252   -0.000000775    0.000000058
      7        6          -0.000000909   -0.000000638   -0.000000982
      8        1           0.000000672   -0.000000639    0.000000668
      9        1           0.000002916   -0.000001395   -0.000002811
     10        1          -0.000000591   -0.000001483   -0.000001450
     11        7          -0.000005501   -0.000002903    0.000008031
     12        8          -0.000006431   -0.000011286   -0.000003030
     13        8           0.000008809   -0.000014770   -0.000003873
     14        8          -0.000000308   -0.000009179    0.000012694
     15        1          -0.000000327    0.000001614    0.000004384
     16        1          -0.000001624    0.000024595   -0.000007891
     17        8          -0.000001783   -0.000012914    0.000010636
     18        1          -0.000002045    0.000023531   -0.000012090
     19        1           0.000004545    0.000003020    0.000000448
 -------------------------------------------------------------------
 Cartesian Forces:  Max     0.000024595 RMS     0.000007106

 GradGradGradGradGradGradGradGradGradGradGradGradGradGradGradGradGradGrad
 Berny optimization.
 Using GEDIIS/GDIIS optimizer.
 FormGI is forming the generalized inverse of G from B-inverse, IUseBI=4.
 Internal  Forces:  Max     0.000041305 RMS     0.000009630
 Search for a local minimum.
 Step number   2 out of a maximum of   90
 All quantities printed in internal units (Hartrees-Bohrs-Radians)
 Mixed Optimization -- En-DIIS/RFO-DIIS
 Swapping is turned off.
 Update second derivatives using D2CorX and points    1    2
 DE= -3.00D-08 DEPred=-3.89D-08 R= 7.71D-01
 Trust test= 7.71D-01 RLast= 2.34D-03 DXMaxT set to 3.00D-01
 ITU=  0  0
     Eigenvalues ---    0.00229   0.00497   0.00948   0.01181   0.01341
     Eigenvalues ---    0.01369   0.01504   0.01601   0.01926   0.02008
     Eigenvalues ---    0.02073   0.02257   0.02395   0.04253   0.04449
     Eigenvalues ---    0.04612   0.07546   0.07863   0.14869   0.16000
     Eigenvalues ---    0.16000   0.16000   0.16000   0.16000   0.16000
     Eigenvalues ---    0.16000   0.18413   0.22716   0.23827   0.24834
     Eigenvalues ---    0.25000   0.25000   0.25000   0.29263   0.30502
     Eigenvalues ---    0.32021   0.33930   0.34048   0.34269   0.34745
     Eigenvalues ---    0.34898   0.39140   0.44803   0.46778   0.53353
     Eigenvalues ---    0.53717   0.54583   0.54586   0.56247   1.00780
     Eigenvalues ---    1.01365
 En-DIIS/RFO-DIIS IScMMF=        0 using points:     2    1
 RFO step:  Lambda=-2.51756755D-08.
 DidBck=T Rises=F RFO-DIIS coefs:    0.78477    0.21523
 Iteration  1 RMS(Cart)=  0.00135356 RMS(Int)=  0.00000064
 Iteration  2 RMS(Cart)=  0.00000062 RMS(Int)=  0.00000001
 Variable       Old X    -DE/DX   Delta X   Delta X   Delta X     New X
                                 (Linear)    (Quad)   (Total)
    R1        2.84477   0.00000  -0.00001   0.00011   0.00010   2.84487
    R2        2.61780   0.00000   0.00000   0.00004   0.00004   2.61783
    R3        2.28134   0.00001   0.00000   0.00005   0.00005   2.28139
    R4        2.52115   0.00000   0.00000   0.00004   0.00003   2.52119
    R5        2.05833   0.00000   0.00001  -0.00009  -0.00008   2.05824
    R6        2.84522   0.00000  -0.00001   0.00008   0.00007   2.84529
    R7        2.05846   0.00000   0.00001  -0.00008  -0.00007   2.05839
    R8        2.62086  -0.00001  -0.00001   0.00008   0.00007   2.62093
    R9        2.28087   0.00001   0.00000   0.00004   0.00003   2.28090
   R10        2.07072   0.00000  -0.00001   0.00007   0.00006   2.07078
   R11        2.07389   0.00000  -0.00001   0.00007   0.00006   2.07396
   R12        2.07502   0.00000  -0.00001   0.00008   0.00007   2.07509
   R13        2.73283   0.00000  -0.00001   0.00012   0.00011   2.73294
   R14        3.74348  -0.00001   0.00012  -0.00147  -0.00135   3.74212
   R15        3.74043  -0.00001   0.00012  -0.00146  -0.00135   3.73908
   R16        1.82205   0.00000   0.00000   0.00001   0.00001   1.82206
   R17        1.83306   0.00001   0.00000   0.00001   0.00001   1.83306
   R18        1.83320   0.00001   0.00000   0.00003   0.00003   1.83322
   R19        1.82205   0.00000   0.00000   0.00001   0.00001   1.82206
    A1        1.86395  -0.00001   0.00000   0.00002   0.00002   1.86397
    A2        2.24322   0.00002   0.00000   0.00005   0.00005   2.24327
    A3        2.17601  -0.00001   0.00000  -0.00008  -0.00007   2.17594
    A4        1.88696   0.00000   0.00000  -0.00002  -0.00002   1.88695
    A5        2.10593   0.00001  -0.00002   0.00025   0.00023   2.10616
    A6        2.29029  -0.00001   0.00002  -0.00023  -0.00021   2.29008
    A7        1.88910   0.00000   0.00000   0.00001   0.00001   1.88910
    A8        2.29053  -0.00001   0.00002  -0.00021  -0.00020   2.29034
    A9        2.10355   0.00000  -0.00002   0.00021   0.00019   2.10374
   A10        1.86168  -0.00001   0.00000   0.00001   0.00001   1.86169
   A11        2.23759   0.00002   0.00002  -0.00011  -0.00009   2.23750
   A12        2.18392  -0.00002  -0.00001   0.00009   0.00008   2.18400
   A13        1.91637   0.00000   0.00000   0.00002   0.00001   1.91638
   A14        1.91188   0.00000   0.00000  -0.00001  -0.00001   1.91187
   A15        1.87704   0.00000   0.00000   0.00002   0.00002   1.87705
   A16        1.90441   0.00000   0.00001  -0.00016  -0.00015   1.90426
   A17        1.92214   0.00000   0.00000   0.00001   0.00001   1.92215
   A18        1.93189   0.00000  -0.00001   0.00013   0.00012   1.93201
   A19        1.92308   0.00001   0.00001  -0.00002  -0.00002   1.92306
   A20        2.17264  -0.00001   0.00000  -0.00006  -0.00006   2.17259
   A21        2.18746   0.00000  -0.00001   0.00009   0.00008   2.18754
   A22        1.88294   0.00004   0.00001   0.00007   0.00008   1.88301
   A23        1.87846   0.00004   0.00000   0.00022   0.00022   1.87868
   A24        1.79987   0.00000   0.00000  -0.00006  -0.00005   1.79982
   A25        2.68724  -0.00001   0.00003  -0.00031  -0.00028   2.68696
   A26        1.79986   0.00000   0.00000  -0.00002  -0.00002   1.79984
   A27        2.68725   0.00000   0.00002  -0.00024  -0.00022   2.68702
    D1       -0.00158   0.00000   0.00000  -0.00006  -0.00006  -0.00164
    D2        3.13844   0.00000   0.00000  -0.00020  -0.00020   3.13824
    D3        3.14055   0.00000   0.00002  -0.00014  -0.00013   3.14043
    D4       -0.00261   0.00000   0.00002  -0.00029  -0.00027  -0.00288
    D5        0.00280   0.00000   0.00000   0.00013   0.00012   0.00293
    D6       -3.13822   0.00000  -0.00001   0.00012   0.00012  -3.13810
    D7       -3.13930   0.00000  -0.00002   0.00021   0.00018  -3.13912
    D8        0.00286   0.00000  -0.00002   0.00020   0.00018   0.00305
    D9        0.00486  -0.00002   0.00003  -0.00072  -0.00069   0.00417
   D10       -3.13611  -0.00002   0.00005  -0.00082  -0.00077  -3.13687
   D11       -0.00017   0.00000   0.00001  -0.00002  -0.00002  -0.00019
   D12        3.13930   0.00000   0.00001  -0.00016  -0.00015   3.13915
   D13       -3.13996   0.00000   0.00000   0.00014   0.00014  -3.13982
   D14       -0.00049   0.00000   0.00000   0.00000   0.00000  -0.00048
   D15        0.00186   0.00000  -0.00001   0.00010   0.00009   0.00195
   D16       -3.14019   0.00000  -0.00002   0.00019   0.00017  -3.14002
   D17       -3.13788   0.00000  -0.00001   0.00022   0.00021  -3.13767
   D18        0.00325   0.00000  -0.00003   0.00031   0.00029   0.00354
   D19       -0.00290   0.00000   0.00001  -0.00014  -0.00013  -0.00303
   D20        3.13812   0.00000   0.00001  -0.00014  -0.00013   3.13799
   D21        3.13914   0.00000   0.00002  -0.00023  -0.00021   3.13893
   D22       -0.00303   0.00000   0.00002  -0.00023  -0.00020  -0.00324
   D23       -0.00846   0.00001  -0.00005   0.00084   0.00079  -0.00766
   D24        3.13260   0.00001  -0.00007   0.00095   0.00088   3.13348
   D25       -3.05131   0.00000  -0.00003   0.00042   0.00039  -3.05092
   D26        0.09094   0.00000  -0.00003   0.00042   0.00039   0.09133
   D27       -0.96351   0.00000  -0.00003   0.00046   0.00043  -0.96308
   D28        2.17874   0.00000  -0.00003   0.00046   0.00042   2.17916
   D29        1.14391   0.00000  -0.00002   0.00035   0.00033   1.14424
   D30       -1.99703   0.00000  -0.00002   0.00035   0.00033  -1.99670
   D31        0.34835   0.00001   0.00014   0.00171   0.00185   0.35020
   D32       -0.34502  -0.00002  -0.00039  -0.00246  -0.00285  -0.34787
   D33        1.40873   0.00000   0.00010  -0.00109  -0.00098   1.40775
   D34       -1.40927  -0.00001  -0.00012   0.00088   0.00075  -1.40851
         Item               Value     Threshold  Converged?
 Maximum Force            0.000041     0.000450     YES
 RMS     Force            0.000010     0.000300     YES
 Maximum Displacement     0.004164     0.001800     NO 
 RMS     Displacement     0.001354     0.001200     NO 
 Predicted change in Energy=-8.417035D-08
 GradGradGradGradGradGradGradGradGradGradGradGradGradGradGradGradGradGrad

                          Input orientation:                          
 ---------------------------------------------------------------------
 Center     Atomic      Atomic             Coordinates (Angstroms)
 Number     Number       Type             X           Y           Z
 ---------------------------------------------------------------------
      1          6           0        1.136518    0.356418   -0.037953
      2          6           0        0.662294   -1.070765   -0.105862
      3          6           0       -0.671848   -1.065055   -0.104781
      4          6           0       -1.136887    0.365334   -0.035876
      5          1           0        1.376352   -1.892179   -0.147152
      6          1           0       -1.393237   -1.880177   -0.145299
      7          6           0        0.021088    2.597981    0.062773
      8          1           0       -1.015352    2.936078    0.173591
      9          1           0        0.614794    2.930844    0.923702
     10          1           0        0.449667    3.022120   -0.854957
     11          7           0        0.003955    1.153295   -0.001361
     12          8           0       -2.269583    0.781696   -0.013727
     13          8           0        2.269747    0.772174   -0.017671
     14          8           0       -3.714323   -1.713592   -0.004661
     15          1           0       -3.872773   -1.806458    0.941878
     16          1           0       -3.491402   -0.774317   -0.099519
     17          8           0        3.700800   -1.729235   -0.002048
     18          1           0        3.482716   -0.788948   -0.098961
     19          1           0        3.858367   -1.820958    0.944747
 ---------------------------------------------------------------------
                    Distance matrix (angstroms):
                    1          2          3          4          5
     1  C    0.000000
     2  C    1.505441   0.000000
     3  C    2.301138   1.334155   0.000000
     4  C    2.273423   2.303114   1.505663   0.000000
     5  H    2.263986   1.089176   2.209310   3.380106   0.000000
     6  H    3.378393   2.209504   1.089251   2.262743   2.769615
     7  C    2.505780   3.728174   3.731764   2.517012   4.694928
     8  H    3.365997   4.352859   4.025488   2.582126   5.397702
     9  H    2.797257   4.132207   4.322087   3.251311   4.998825
    10  H    2.871450   4.166301   4.304133   3.201025   5.050749
    11  N    1.385298   2.321804   2.321310   1.386937   3.343597
    12  O    3.432633   3.469295   2.443673   1.207000   4.523301
    13  O    1.207258   2.447061   3.469291   3.430890   2.813130
    14  O    5.274154   4.424731   3.112439   3.311508   5.095799
    15  H    5.543563   4.712307   3.448347   3.627362   5.361590
    16  H    4.764451   4.164266   2.834509   2.616600   4.994689
    17  O    3.305568   3.110768   4.423996   5.271772   2.334665
    18  H    2.611558   2.834475   4.163733   4.762046   2.378279
    19  H    3.621482   3.446949   4.711237   5.540223   2.712511
                    6          7          8          9         10
     6  H    0.000000
     7  C    4.700798   0.000000
     8  H    4.841570   1.095809   0.000000
     9  H    5.321736   1.097490   1.794455   0.000000
    10  H    5.285113   1.098090   1.792092   1.788638   0.000000
    11  N    3.342875   1.446210   2.061046   2.094886   2.102331
    12  O    2.805506   2.924365   2.499909   3.717155   3.622359
    13  O    4.524235   2.897673   3.938392   2.878351   3.012639
    14  O    2.331302   5.705042   5.379187   6.416689   6.363079
    15  H    2.708411   5.944246   5.589881   6.525383   6.725122
    16  H    2.372197   4.871993   4.469054   5.624593   5.524097
    17  O    5.098285   5.680606   6.636119   5.665402   5.820025
    18  H    4.996784   4.845649   5.846599   4.807044   4.929012
    19  H    5.363866   5.918583   6.853993   5.753333   6.189797
                   11         12         13         14         15
    11  N    0.000000
    12  O    2.303739   0.000000
    13  O    2.297680   4.539341   0.000000
    14  O    4.695172   2.883370   6.479837   0.000000
    15  H    4.967781   3.190915   6.730574   0.964192   0.000000
    16  H    3.992849   1.980247   5.965666   0.970015   1.515013
    17  O    4.687819   6.476912   2.881876   7.415139   7.632560
    18  H    3.985425   5.963484   1.978637   7.256806   7.498126
    19  H    4.959617   6.726385   3.189718   7.632728   7.731155
                   16         17         18         19
    16  H    0.000000
    17  O    7.255973   0.000000
    18  H    6.974134   0.970100   0.000000
    19  H    7.497004   0.964190   1.515087   0.000000
 Stoichiometry    C5H9NO4
 Framework group  C1[X(C5H9NO4)]
 Deg. of freedom    51
 Full point group                 C1      NOp   1
 Largest Abelian subgroup         C1      NOp   1
 Largest concise Abelian subgroup C1      NOp   1
                         Standard orientation:                         
 ---------------------------------------------------------------------
 Center     Atomic      Atomic             Coordinates (Angstroms)
 Number     Number       Type             X           Y           Z
 ---------------------------------------------------------------------
      1          6           0        1.136571    0.356491   -0.037869
      2          6           0        0.662292   -1.070674   -0.105778
      3          6           0       -0.671850   -1.064912   -0.104697
      4          6           0       -1.136834    0.365495   -0.035792
      5          1           0        1.376318   -1.892116   -0.147068
      6          1           0       -1.393270   -1.880006   -0.145215
      7          6           0        0.021228    2.598097    0.062857
      8          1           0       -1.015198    2.936234    0.173675
      9          1           0        0.614947    2.930937    0.923786
     10          1           0        0.449823    3.022219   -0.854873
     11          7           0        0.004039    1.153411   -0.001277
     12          8           0       -2.269513    0.781901   -0.013643
     13          8           0        2.269816    0.772203   -0.017587
     14          8           0       -3.714350   -1.713332   -0.004577
     15          1           0       -3.872804   -1.806191    0.941962
     16          1           0       -3.491393   -0.774065   -0.099435
     17          8           0        3.700772   -1.729262   -0.001964
     18          1           0        3.482725   -0.788966   -0.098877
     19          1           0        3.858336   -1.820991    0.944831
 ---------------------------------------------------------------------
 Rotational constants (GHZ):      1.7449370      0.7116559      0.5093725
 Standard basis: def2SVP (5D, 7F)
 There are   195 symmetry adapted cartesian basis functions of A   symmetry.
 There are   185 symmetry adapted basis functions of A   symmetry.
   185 basis functions,   313 primitive gaussians,   195 cartesian basis functions
    39 alpha electrons       39 beta electrons
       nuclear repulsion energy       530.3455646202 Hartrees.
 NAtoms=   19 NActive=   19 NUniq=   19 SFac= 1.00D+00 NAtFMM=   60 NAOKFM=F Big=F
 Integral buffers will be    131072 words long.
 Raffenetti 2 integral format.
 Two-electron integral symmetry is turned on.
 Nuclear repulsion after empirical dispersion term =      530.3449749557 Hartrees.
 ------------------------------------------------------------------------------
 Polarizable Continuum Model (PCM)
 =================================
 Model                : C-PCM.
 Atomic radii         : UFF (Universal Force Field).
 Polarization charges : Total charges.
 Charge compensation  : None.
 Solution method      : On-the-fly selection.
 Cavity type          : Scaled VdW (van der Waals Surface) (Alpha=1.100).
 Cavity algorithm     : GePol (No added spheres)
                        Default sphere list used, NSphG=   19.
                        Lebedev-Laikov grids with approx.  5.0 points / Ang**2.
                        Smoothing algorithm: Karplus/York (Gamma=1.0000).
                        Polarization charges: spherical gaussians, with
                                              point-specific exponents (IZeta= 3).
                        Self-potential: point-specific (ISelfS= 7).
                        Self-field    : sphere-specific E.n sum rule (ISelfD= 2).
 1st derivatives      : Analytical E(r).r(x)/FMM algorithm (CHGder, D1EAlg=3).
                        Cavity 1st derivative terms included.
 Solvent              : Toluene, Eps=   2.374100 Eps(inf)=   2.238315
 ------------------------------------------------------------------------------
 Spheres list:
 ISph  on   Nord     Re0    Alpha      Xe            Ye            Ze
    1   C      1    1.9255  1.100      1.136571      0.356491     -0.037869
    2   C      2    1.9255  1.100      0.662292     -1.070674     -0.105778
    3   C      3    1.9255  1.100     -0.671850     -1.064912     -0.104697
    4   C      4    1.9255  1.100     -1.136834      0.365495     -0.035792
    5   H      5    1.4430  1.100      1.376318     -1.892116     -0.147068
    6   H      6    1.4430  1.100     -1.393270     -1.880006     -0.145215
    7   C      7    1.9255  1.100      0.021228      2.598097      0.062857
    8   H      8    1.4430  1.100     -1.015198      2.936234      0.173675
    9   H      9    1.4430  1.100      0.614947      2.930937      0.923786
   10   H     10    1.4430  1.100      0.449823      3.022219     -0.854873
   11   N     11    1.8300  1.100      0.004039      1.153411     -0.001277
   12   O     12    1.7500  1.100     -2.269513      0.781901     -0.013643
   13   O     13    1.7500  1.100      2.269816      0.772203     -0.017587
   14   O     14    1.7500  1.100     -3.714350     -1.713332     -0.004577
   15   H     15    1.4430  1.100     -3.872804     -1.806191      0.941962
   16   H     16    1.4430  1.100     -3.491393     -0.774065     -0.099435
   17   O     17    1.7500  1.100      3.700772     -1.729262     -0.001964
   18   H     18    1.4430  1.100      3.482725     -0.788966     -0.098877
   19   H     19    1.4430  1.100      3.858336     -1.820991      0.944831
 ------------------------------------------------------------------------------
 One-electron integrals computed using PRISM.
   1 Symmetry operations used in ECPInt.
 ECPInt:  NShTT=    3828 NPrTT=   13852 LenC2=    3645 LenP2D=    9978.
 LDataN:  DoStor=T MaxTD1= 4 Len=   56
 NBasis=   185 RedAO= T EigKep=  6.84D-04  NBF=   185
 NBsUse=   185 1.00D-06 EigRej= -1.00D+00 NBFU=   185
 Initial guess from the checkpoint file:  "m062x_PM6_2H2O_dienophile_pm6_cpcmtoluene_1_gd3.chk"
 B after Tr=     0.000000    0.000000    0.000000
         Rot=    1.000000    0.000086    0.000013    0.000000 Ang=   0.01 deg.
 Requested convergence on RMS density matrix=1.00D-08 within 128 cycles.
 Requested convergence on MAX density matrix=1.00D-06.
 Requested convergence on             energy=1.00D-06.
 No special actions if energy rises.
 Inv3:  Mode=1 IEnd=     8772300.
 Iteration    1 A*A^-1 deviation from unit magnitude is 5.33D-15 for   1677.
 Iteration    1 A*A^-1 deviation from orthogonality  is 1.87D-15 for   1657   1588.
 Iteration    1 A^-1*A deviation from unit magnitude is 5.11D-15 for   1677.
 Iteration    1 A^-1*A deviation from orthogonality  is 1.52D-15 for   1515   1260.
 Error on total polarization charges =  0.00329
 SCF Done:  E(RM062X) =  -550.972289097     A.U. after    8 cycles
[...]
 072,-0.03248759,0.07032159,0.00407629,0.01988732,-0.00793965,-0.000648
 82,0.01076048,-0.20328242,-0.00629703,-0.19129885,0.60949899,-0.001478
 98,0.00403874,-0.01539661,0.00090006,-0.00032361,0.00140865,0.00043935
 ,-0.00613348,-0.07498169,-0.01051725,0.01932083,0.19972889,0.01408400,
 -0.00848509,-0.00034645,-0.18286145,0.15360463,0.00766025,-0.00475705,
 0.01983082,0.00090760,-0.00414069,-0.00225280,-0.00009800,0.18127538,0
 .01940857,-0.00908801,-0.00060146,0.15042545,-0.23418331,-0.00959633,-
 0.00582314,0.01166505,0.00010526,-0.00326651,-0.00312413,-0.00077107,-
 0.16050512,0.23642834,0.00104371,-0.00035127,0.00170878,0.00782262,-0.
 00987022,-0.04106169,-0.00022753,0.00003085,0.00879813,-0.00015623,-0.
 00060056,0.01268476,-0.00772903,0.01020967,0.02814340,-0.00409508,0.00
 226770,0.00011397,-0.00487958,-0.01971178,-0.00089574,-0.18559364,-0.1
 5395716,-0.00762301,0.01391136,0.00841865,0.00033136,0.00116423,0.0006
 9195,0.00001930,0.18422399,0.00323354,-0.00317258,-0.00078062,0.005954
 26,0.01179789,0.00009478,-0.15068448,-0.23143576,-0.00936467,-0.019482
 08,-0.00911982,-0.00057808,-0.00070168,-0.00009805,0.00030459,0.160771
 86,0.23360640,0.00017862,-0.00060178,0.01268466,0.00026076,0.00006059,
 0.00889276,-0.00780498,-0.00964982,-0.04102826,-0.00105484,-0.00036720
 ,0.00172311,-0.00002465,0.00030284,-0.00612371,0.00767334,0.00997364,0
 .02807837,0.00747780,0.02919665,0.00189547,-0.00563035,0.00311061,-0.0
 0001005,-0.00373010,-0.00403922,-0.00001831,0.01364275,-0.02519918,-0.
 00174816,0.00097813,0.00118659,-0.00000947,0.00085966,-0.00095834,0.00
 001752,0.62851487,0.01862252,-0.02338777,-0.00109385,-0.00047344,0.002
 99046,0.00001737,0.00037015,0.00321806,-0.00001964,-0.02172681,-0.0226
 3288,-0.00077315,0.00024770,0.00037805,-0.00001679,-0.00023022,0.00041
 631,-0.00003448,0.00591752,0.50869603,0.00187184,-0.00159061,0.0004465
 3,0.00021164,0.00014612,0.00240760,-0.00021780,0.00011661,0.00344875,-
 0.00202194,-0.00129926,-0.00480507,-0.00000909,-0.00005729,0.00080028,
 0.00000959,-0.00007232,0.00113419,0.00105976,-0.00562615,0.59319800,0.
 00057946,-0.00146883,0.00000532,-0.00010305,0.00003811,0.00004055,0.00
 006365,-0.00003519,0.00004658,-0.00174905,-0.00117227,-0.00011349,-0.0
 0001985,-0.00003121,0.00000485,-0.00003363,0.00005631,-0.00000046,-0.3
 0795895,0.08464310,0.02825647,0.32264392,-0.00528027,-0.00450181,-0.00
 069201,0.00152703,-0.00120704,0.00004662,0.00005958,-0.00003058,-0.000
 00326,0.00510075,0.00019777,-0.00016030,-0.00037462,-0.00040319,0.0000
 2673,-0.00004514,0.00007560,-0.00000095,0.07219937,-0.07053658,-0.0076
 2649,-0.08940005,0.08574520,-0.00060033,0.00001553,-0.00015362,0.00003
 502,-0.00008497,0.00023956,-0.00001894,-0.00003257,0.00008177,0.000697
 38,-0.00005293,0.00151492,-0.00001490,-0.00001310,-0.00000174,-0.00000
 111,0.00000569,-0.00003750,0.02753131,-0.00843917,-0.05095458,-0.02989
 191,0.00970334,0.04758962,0.00044570,0.00080124,0.00077300,0.00025850,
 0.00011644,-0.00030711,-0.00024195,0.00016242,-0.00014497,-0.00045301,
 0.00016372,-0.00067743,-0.00001693,-0.00002518,-0.00001379,0.00002314,
 -0.00002838,0.00001030,-0.13224860,-0.04369188,-0.12224967,-0.01067974
 ,-0.00888576,-0.02265430,0.13331779,-0.00519153,0.00178637,-0.00017072
 ,-0.00048928,-0.00065874,0.00017861,-0.00052481,-0.00147106,0.00078706
 ,0.00657081,-0.00134086,-0.00305124,-0.00003795,0.00002478,0.00006809,
 0.00025790,-0.00024354,0.00023950,-0.03866419,-0.06608202,-0.05661446,
 0.00408642,0.00326140,0.00935720,0.04925756,0.08301503,-0.00241219,0.0
 0008258,0.00051988,0.00007063,-0.00010160,-0.00025107,0.00016156,-0.00
 013552,-0.00009425,0.00147100,0.00127805,-0.00022062,-0.00003908,-0.00
 002182,0.00000251,0.00000872,0.00001621,0.00000533,-0.12222404,-0.0619
 5470,-0.22719129,0.00356580,0.00253245,0.00499986,0.13105791,0.0677323
 2,0.23436117,0.00073710,0.00088867,-0.00077018,0.00019816,0.00006601,0
 .00031071,-0.00021466,0.00012591,0.00007871,-0.00023835,-0.00026837,0.
 00075822,-0.00000191,-0.00001018,0.00002545,0.00002562,-0.00003029,-0.
 00002703,-0.09251839,-0.03992910,0.09325876,-0.00708987,-0.01130269,0.
 02418390,0.00769793,0.00697576,-0.01508374,0.09009918,-0.00567549,0.00
 181354,0.00048342,-0.00048207,-0.00083672,-0.00033446,-0.00024053,-0.0
 0138160,-0.00088978,0.00674677,-0.00061880,0.00272015,-0.00006793,0.00
 000866,-0.00010723,0.00021874,-0.00016362,-0.00025035,-0.03665818,-0.0
 7945727,0.08011683,0.00257974,0.00443951,-0.00970540,0.00437590,0.0041
 9154,-0.00705713,0.04513826,0.09872065,0.00159190,-0.00008846,0.000424
 54,-0.00010717,0.00005578,-0.00032829,-0.00014453,0.00000853,-0.000271
 63,-0.00059066,-0.00125453,-0.00001021,0.00003669,0.00002421,-0.000001
 44,0.00000656,-0.00002780,-0.00002383,0.09376682,0.08543094,-0.2518929
 4,-0.00113322,-0.00044968,-0.00023017,0.01094919,0.00802641,-0.0176678
 3,-0.10006242,-0.09176417,0.25983780,-0.16333374,0.05057713,0.00130650
 ,0.00994452,0.00936050,0.00066779,0.00885985,-0.00983089,-0.00068186,-
 0.16513377,-0.04965859,-0.00108902,-0.00044242,-0.00041311,-0.00006924
 ,-0.00037686,0.00027926,0.00006822,-0.10958626,-0.00437355,-0.00017434
 ,0.00407454,0.03788087,0.00093519,0.00146081,-0.02254698,0.00282722,0.
 00097917,-0.01618162,-0.00387369,0.64461084,0.07509604,-0.22050776,-0.
 00636730,0.02158908,-0.05374536,-0.00320459,-0.02193128,-0.05367408,-0
 .00309067,-0.07132279,-0.21739989,-0.00652240,-0.00490728,-0.00413819,
 -0.00024393,0.00487371,-0.00422948,-0.00023400,-0.00822817,-0.25359372
 ,-0.00664350,0.00196536,-0.02032278,-0.00124510,-0.00046905,-0.0248493
 1,-0.00343730,-0.00002789,-0.02873920,0.00026029,0.00505524,0.81595940
 ,0.00301000,-0.00658226,-0.06519460,0.00069556,-0.00332935,0.01569032,
 -0.00070335,-0.00325906,0.01454246,-0.00273347,-0.00669136,-0.05903565
 ,-0.00021844,-0.00016130,-0.00028338,0.00021595,-0.00014810,-0.0006015
 3,-0.00039332,-0.00757418,-0.06178930,-0.00072843,-0.00364367,-0.00199
 685,0.00344821,-0.02678343,0.00572440,-0.00262205,0.02651390,0.0103250
 2,-0.00012239,0.03021827,0.10400199,0.02703666,-0.02618509,-0.00123296
 ,0.00483908,0.00432264,0.00015011,-0.02192442,0.02544069,0.00118974,-0
 .67761232,0.23923106,0.01234021,-0.00045052,-0.00010550,0.00002308,-0.
 00197785,0.00179620,0.00021523,-0.00134326,0.01222133,0.00081734,0.000
 29329,-0.00184565,-0.00024367,0.00008051,-0.00182526,-0.00030006,0.000
 08250,-0.00210850,0.00014218,-0.11814353,0.00064422,0.00017950,0.80586
 797,0.00012468,-0.01241528,-0.00102017,0.00133627,-0.00821707,-0.00038
 914,0.04717125,-0.00473307,-0.00123440,0.23115671,-0.20521734,-0.00680
 622,0.00159643,0.00162808,0.00016176,-0.00207128,0.00242759,0.00019358
 ,0.00225581,-0.00071329,-0.00049905,-0.00139107,0.00196909,0.00022893,
 -0.00087967,0.00109636,0.00017033,-0.00051707,0.00094538,0.00023526,-0
 .02269265,0.03239060,0.00079797,-0.25006193,0.19883630,-0.00002757,-0.
 00094119,0.00811597,0.00006363,-0.00042847,0.00080655,0.00230534,-0.00
 115601,0.01918753,0.01192469,-0.00667957,-0.07076981,0.00007348,0.0001
 9428,-0.00238517,-0.00005287,0.00018352,-0.00109720,0.00004718,-0.0000
 6692,-0.00163885,-0.00006497,0.00022413,-0.00121492,0.00025283,-0.0001
 0582,-0.00006405,-0.00040695,0.00026579,-0.00003133,-0.00088571,0.0003
 9102,0.01842083,-0.01311344,0.00784431,0.03408881,-0.68007607,-0.23692
 710,-0.01135510,-0.02169633,-0.02552033,-0.00110730,0.00465396,-0.0043
 0990,-0.00016368,0.02663436,0.02586280,0.00121571,-0.00205784,-0.00188
 059,-0.00022410,-0.00044795,0.00009994,-0.00002624,0.00147824,-0.01165
 159,-0.00080982,0.00001422,0.00051398,0.00004872,0.00037048,0.00208246
 ,0.00088128,0.00026083,0.00232352,-0.00057381,-0.11955384,-0.00234735,
 -0.00002369,-0.01899684,-0.00226935,-0.00006456,0.80713003,-0.22937788
 ,-0.20412924,-0.00639618,-0.04686213,-0.00440381,-0.00113098,-0.001218
 69,-0.00820374,-0.00039198,0.00015985,-0.01207297,-0.00100770,0.002136
 52,0.00241672,0.00019032,-0.00158492,0.00164871,0.00016790,-0.00010883
 ,0.00131424,-0.00034613,0.00017614,0.00131016,0.00026131,-0.00094981,0
 .00119675,0.00088293,-0.00114921,0.00098566,-0.00043767,0.02255967,0.0
 3297695,0.00073993,0.00231085,0.00366470,0.00028397,0.25023760,0.19504
 929,-0.01088958,-0.00621260,-0.07094216,-0.00221480,-0.00109897,0.0191
 3473,-0.00006753,-0.00041383,0.00084629,0.00002124,-0.00096123,0.00814
 129,0.00005819,0.00018793,-0.00110969,-0.00007281,0.00019625,-0.002423
 84,0.00008215,0.00012564,-0.00318517,0.00000841,0.00004281,0.00016284,
 -0.00041650,0.00033017,-0.00011979,0.00033897,0.00002367,-0.00012018,0
 .00107820,0.00034987,0.01930378,0.00008312,0.00028651,-0.00190943,0.01
 194221,0.00713926,0.03375574,0.00092743,0.00224305,-0.00003705,-0.0010
 4581,-0.00333734,-0.00030449,-0.00389125,0.00362072,0.00108592,0.00428
 352,0.00194883,-0.00043389,0.00018954,-0.00018367,0.00003121,-0.001422
 02,-0.00173191,-0.00037976,-0.00010384,0.00084335,0.00001835,0.0000551
 6,0.00006144,0.00001249,-0.00007139,-0.00017067,-0.00001053,-0.0000616
 9,-0.00018853,0.00001634,-0.00137697,-0.00174223,-0.00004633,-0.003129
 54,-0.00606753,0.00016315,-0.00180842,-0.00134585,-0.00002713,0.057210
 02,0.00215463,-0.00111026,-0.00001154,-0.00000368,0.00040209,-0.000030
 91,-0.00005098,0.00071186,-0.00029251,0.00943223,-0.00240302,-0.000172
 71,-0.00005193,-0.00006732,-0.00001086,-0.00171169,-0.00106269,0.00084
 075,0.00000657,0.00052849,0.00001500,0.00007126,0.00013619,0.00002313,
 -0.00005012,-0.00007227,-0.00001240,-0.00003444,-0.00008275,0.00001810
 ,-0.00417705,0.00038587,-0.00005729,-0.01054386,-0.00458952,0.00052069
 ,-0.00154612,-0.00000589,-0.00001113,0.12905579,0.52979871,-0.00014071
 ,0.00007129,-0.00036525,0.00003230,0.00010197,0.00008668,0.00042617,-0
 .00014759,0.00141950,-0.00085922,0.00009424,-0.00077375,0.00000383,0.0
 0000542,0.00003720,-0.00023245,0.00033879,-0.00147951,0.00000828,-0.00
 005749,-0.00001890,-0.00000938,-0.00000875,-0.00002371,0.00002484,0.00
 000988,0.00000141,-0.00001782,0.00001142,0.00000259,0.00038957,0.00005
 296,-0.00011159,0.00096966,0.00036501,0.00288922,0.00016141,0.00003228
 ,0.00010867,-0.09915751,-0.07831785,0.56532345,-0.00026332,-0.00041118
 ,0.00011275,0.00009500,0.00031278,0.00003130,-0.00012711,-0.00007603,-
 0.00066420,-0.00050367,-0.00047431,0.00036028,-0.00004410,0.00003920,-
 0.00001299,-0.00080779,-0.00017232,0.00109273,0.00002513,-0.00016866,0
 .00000113,-0.00000741,-0.00000908,0.00000155,0.00000805,0.00003217,0.0
 0000445,0.00001223,0.00003668,-0.00000624,0.00023733,0.00040190,0.0000
 2545,0.00019269,0.00021529,-0.00050689,0.00031570,0.00022232,-0.000025
 64,-0.01715039,-0.01824195,0.07845961,0.01941897,-0.00033824,0.0000477
 4,0.00000571,0.00002311,0.00008272,0.00004755,0.00024393,-0.00022733,0
 .00012872,-0.00099565,0.00003504,-0.00009528,-0.00000742,0.00002057,0.
 00000519,-0.00041909,0.00033428,-0.00048147,-0.00000377,-0.00006506,-0
 .00000664,-0.00000869,-0.00001203,0.00000413,-0.00000025,0.00001094,0.
 00000424,0.00000742,0.00001167,-0.00000561,0.00048278,0.00002751,0.000
 14457,0.00044534,-0.00037893,-0.00099974,0.00027527,0.00005140,-0.0000
 0271,-0.01035332,-0.04490247,0.01482303,0.01878244,0.05138786,0.000203
 38,0.00009615,0.00000869,-0.00007984,-0.00018929,-0.00005137,-0.000160
 62,0.00015330,0.00008305,0.00098569,0.00011268,0.00003155,0.00001344,-
 0.00001500,0.00001076,0.00089921,-0.00011015,-0.00011734,-0.00001298,0
 .00009503,0.00000675,0.00000952,0.00000897,0.00000993,-0.00001417,-0.0
 0002154,-0.00000090,-0.00000338,-0.00002163,0.00000006,-0.00036581,-0.
 00012232,-0.00003647,-0.00086464,-0.00049408,-0.00004084,-0.00022619,-
 0.00009751,-0.00001201,0.08944554,0.06748547,-0.51774065,-0.08998793,-
 0.06147846,0.52705958,-0.00249162,-0.00005853,-0.00003954,0.00044891,0
 .00044972,0.00012324,-0.00038229,-0.00048512,-0.00008832,-0.01381906,-
 0.00169841,-0.00015999,0.00000380,0.00017060,0.00000643,-0.00072387,0.
 00162541,-0.00017193,0.00011204,-0.00092879,-0.00001415,-0.00008408,-0
 .00017411,-0.00002337,0.00008785,0.00017526,0.00001021,0.00006650,0.00
 019054,-0.00001984,0.00446651,0.00092995,0.00003417,0.00451740,0.00155
 128,0.00027870,0.00215014,0.00059302,0.00003839,-0.03255531,-0.1043688
 1,0.01994069,-0.00141368,-0.00812643,0.00016163,0.03962684,-0.00305283
 ,0.00203958,0.00006736,-0.00002080,-0.00115960,-0.00009819,0.00035014,
 0.00132397,0.00026461,-0.01192508,0.00411570,0.00025746,0.00006864,0.0
 0002673,-0.00000528,0.00224108,-0.00076194,-0.00014827,0.00001658,-0.0
 0075809,-0.00001487,-0.00009320,-0.00014470,-0.00002468,0.00006608,0.0
 0011088,0.00001781,0.00003859,0.00012538,-0.00002254,0.00637016,-0.000
 48860,-0.00013715,0.00702385,-0.00656961,0.00047389,0.00202239,-0.0001
 6163,0.00000910,-0.11260930,-0.47760658,0.06261904,-0.00049749,-0.0064
 3472,-0.00539419,0.11008685,0.48626167,-0.00001296,-0.00010533,0.00022
 190,0.00004924,0.00012053,-0.00003648,0.00019029,-0.00013281,-0.000787
 39,-0.00016027,-0.00008783,0.00088925,-0.00001119,-0.00000439,0.000084
 16,-0.00039407,-0.00001760,0.00028041,0.00000205,-0.00002658,0.0000234
 9,0.00000363,-0.00000080,0.00001390,-0.00002071,0.00001713,0.00000025,
 0.00003195,-0.00000183,-0.00000485,-0.00000340,-0.00004063,0.00057050,
 -0.00037834,0.00017647,-0.00436485,0.00004326,0.00004590,-0.00008741,0
 .00960738,0.01001186,-0.04935588,0.01111974,0.04790671,-0.00921192,-0.
 02006692,-0.05786112,0.06176944,0.00422968,-0.00198067,0.00043469,-0.0
 0392498,-0.00362325,-0.00110773,-0.00102918,0.00333674,0.00030996,0.00
 089520,-0.00226068,0.00004139,-0.00141456,0.00175710,0.00037706,0.0001
 9022,0.00018530,-0.00003164,-0.00013697,-0.00089257,-0.00002133,-0.000
 04655,0.00007526,-0.00000642,0.00006327,0.00011718,0.00001400,0.000055
 62,0.00015382,-0.00002291,-0.00138478,0.00172730,0.00005143,-0.0018031
 6,0.00136544,0.00002892,-0.00307634,0.00611772,-0.00018201,-0.00068093
 ,-0.00017663,0.00001820,0.00015083,0.00005464,-0.00005741,0.00047903,0
 .00016334,0.00002273,0.05589624,-0.00944724,-0.00242703,-0.00015700,0.
 00007171,0.00072364,-0.00028983,0.00001617,0.00040492,-0.00002987,-0.0
 0216822,-0.00109885,-0.00001288,0.00172041,-0.00107542,0.00083619,0.00
 005136,-0.00006996,-0.00001111,0.00004894,0.00055904,0.00001321,0.0000
 2412,-0.00001871,0.00000655,-0.00008432,-0.00001297,0.00003135,-0.0000
 8125,-0.00003814,-0.00001068,0.00421085,0.00042500,-0.00006837,0.00157
 993,-0.00000622,-0.00001145,0.01061692,-0.00477187,0.00055108,0.000182
 99,0.00018658,-0.00002538,-0.00002599,-0.00005044,0.00002392,-0.000216
 74,-0.00019670,0.00000367,-0.12621165,0.53068713,0.00088118,0.00009544
 ,-0.00077726,-0.00043684,-0.00015258,0.00141145,-0.00003512,0.00010500
 ,0.00008758,0.00014309,0.00006986,-0.00036844,0.00023222,0.00033671,-0
 .00146638,-0.00000433,0.00000624,0.00003555,-0.00001141,-0.00006532,-0
 .00004176,-0.00000370,0.00000329,-0.00000105,0.00002087,0.00001434,0.0
 0000170,0.00000221,-0.00000077,0.00000955,-0.00040308,0.00005452,-0.00
 013568,-0.00016757,0.00003402,0.00011007,-0.00099938,0.00040500,0.0029
 3178,-0.00001953,-0.00002557,0.00003622,-0.00000818,0.00001030,-0.0000
 1372,0.00002692,0.00002174,-0.00002199,0.09867116,-0.07880580,0.565783
 94,-0.01374527,0.00178175,0.00017461,-0.00038461,0.00046977,0.00009255
 ,0.00045402,-0.00043553,-0.00012447,-0.00245988,0.00008436,0.00004289,
 -0.00069113,-0.00160415,0.00017368,0.00000429,-0.00017332,-0.00000732,
 0.00014444,0.00102236,0.00001572,0.00003936,-0.00008631,0.00000959,-0.
 00009553,-0.00008652,0.00000340,-0.00007965,-0.00013002,0.00001370,0.0
 0445899,-0.00090024,-0.00003809,0.00215734,-0.00059801,-0.00004060,0.0
 0451750,-0.00170005,-0.00026223,0.00048129,0.00021213,-0.00002593,-0.0
 0009455,-0.00005493,0.00004662,-0.00039506,-0.00022357,-0.00001119,-0.
 03155672,0.10180065,-0.01972903,0.03859819,0.01197932,0.00415959,0.000
 24195,-0.00036759,0.00131526,0.00026403,0.00000893,-0.00117323,-0.0000
 9923,0.00306177,0.00203502,0.00006381,-0.00223448,-0.00075132,-0.00015
 300,-0.00006934,0.00002971,-0.00000460,-0.00007043,-0.00081125,-0.0000
 1789,-0.00003429,0.00004108,-0.00000499,0.00010871,0.00003858,-0.00002
 035,0.00009550,0.00007007,0.00000287,-0.00641980,-0.00050646,-0.000130
 36,-0.00206133,-0.00016910,0.00001080,-0.00714494,-0.00648128,0.000470
 13,-0.00017022,-0.00019696,0.00002158,0.00002683,0.00004376,-0.0000241
 6,0.00022882,0.00023500,-0.00000042,0.11006335,-0.47834358,0.06355603,
 -0.10744263,0.48685054,0.00012444,-0.00009944,0.00087376,-0.00019290,-
 0.00013052,-0.00080325,-0.00004607,0.00012401,-0.00003875,0.00000363,-
 0.00010884,0.00023203,0.00039927,-0.00001722,0.00028324,0.00001175,-0.
 00000504,0.00008747,-0.00000592,-0.00002394,0.00003900,-0.00000100,0.0
 0000706,-0.00000020,-0.00002590,0.00000217,-0.00000890,0.00001546,0.00
 001199,-0.00001507,0.00002829,-0.00005412,0.00064269,-0.00003697,0.000
 04739,-0.00009063,0.00041532,0.00016128,-0.00443909,-0.00002187,0.0000
 0432,-0.00002209,0.00001109,-0.00000309,0.00000448,0.00001035,-0.00000
 115,0.00001307,-0.00970721,0.01092251,-0.04963051,0.01987410,-0.058793
 15,0.06218830,-0.00049001,0.00048184,-0.00036404,-0.00012449,0.0000749
 7,0.00066513,0.00009227,-0.00031094,-0.00003182,-0.00025638,0.00041384
 ,-0.00011326,-0.00079662,0.00016892,-0.00108500,-0.00004424,-0.0000393
 1,0.00001213,0.00002366,0.00017860,-0.00000246,0.00000858,-0.00001458,
 -0.00000018,-0.00000687,-0.00001831,-0.00000656,-0.00001030,-0.0000311
 1,0.00001112,0.00023964,-0.00040651,-0.00003071,0.00031401,-0.00022460
 ,0.00002564,0.00018816,-0.00021631,0.00050734,0.00015058,0.00002464,0.
 00000845,-0.00004390,-0.00000712,0.00000792,-0.00009405,-0.00002544,-0
 .00001124,-0.01690593,0.01791135,-0.07815948,-0.00135301,0.00044182,-0
 .01085588,0.01910892,0.00098863,0.00003457,-0.00009912,-0.00024688,-0.
 00022481,0.00012638,-0.00002247,0.00008106,0.00004761,0.00034003,0.000
 04649,0.00000712,0.00042112,0.00033196,-0.00047426,0.00000767,0.000020
 97,0.00000522,-0.00000831,-0.00006277,0.00000687,-0.00000575,0.0000014
 0,-0.00000290,0.00001235,-0.00000187,-0.00000746,0.00001437,0.00000606
 ,-0.00000124,-0.00048222,0.00002950,0.00015126,-0.00027901,0.00005133,
 -0.00000325,-0.00043759,-0.00038416,-0.00101193,-0.00005559,-0.0000500
 5,0.00001017,0.00000740,0.00001748,-0.00000719,0.00005549,0.00004328,-
 0.00000292,0.01002824,-0.04487643,0.01433754,0.00806427,-0.00638541,0.
 04795577,-0.01840174,0.05132140,-0.00098363,0.00011443,0.00003217,0.00
 016102,0.00015160,0.00008475,0.00007881,-0.00018877,-0.00005125,-0.000
 19984,0.00009719,0.00000741,-0.00089415,-0.00010735,-0.00012000,-0.000
 01337,-0.00001533,0.00001086,0.00002310,0.00010340,0.00001327,0.000005
 42,-0.00000947,0.00000193,-0.00001261,-0.00001568,0.00000220,-0.000010
 78,-0.00001442,-0.00000177,0.00036757,-0.00012107,-0.00003693,0.000227
 47,-0.00009849,-0.00001191,0.00086593,-0.00050193,-0.00003634,0.000057
 72,0.00002345,-0.00001361,-0.00000801,-0.00000715,0.00001037,-0.000046
 69,-0.00002359,0.00000440,-0.08883288,0.06703388,-0.51795103,-0.000207
 99,-0.00538304,-0.00931555,0.08942291,-0.06103766,0.52737102\\-0.00000
 912,-0.00000217,-0.00000359,0.00002540,-0.00001959,0.00000224,-0.00002
 293,-0.00001696,0.00000402,0.00000490,-0.00000319,-0.00000420,-0.00001
 523,0.00000210,-0.00000083,0.00001593,0.00000201,-0.00000322,0.0000002
 6,-0.00000246,-0.00000082,-0.00001106,0.00000379,0.00000061,0.00000696
 ,0.00000777,0.00000691,0.00000842,0.00001027,-0.00000395,0.00000033,0.
 00000108,-0.00000353,-0.00002356,0.00000561,0.00000382,0.00001930,0.00
 001097,0.00000478,0.00000084,0.00000323,-0.00001021,-0.00000124,-0.000
 00062,-0.00000050,0.00000329,-0.00000413,0.00000434,-0.00000095,0.0000
 0392,-0.00000454,-0.00000182,-0.00000124,0.00000609,0.00000029,-0.0000
 0038,0.00000259\\\@


 It is also a good rule not to put too much confidence in
 experimental results until they have been confirmed by
 Theory.
                             -- Sir Arthur Eddington
 Job cpu time:       0 days  0 hours 15 minutes  8.9 seconds.
 File lengths (MBytes):  RWF=    111 Int=      0 D2E=      0 Chk=     10 Scr=      1
 Normal termination of Gaussian 09 at Sun Sep  6 03:45:22 2020.
