 Entering Gaussian System, Link 0=g09
 Input=HSO4_opt_2.com
 Output=HSO4_opt_2.log
 Initial command:
 /apps/applications/gaussian/G09.D01/2/default/g09/l1.exe "/nobackup/pmmass/Temp/Gau-8615.inp" -scrdir="/nobackup/pmmass/Temp/"
 Entering Link 1 = /apps/applications/gaussian/G09.D01/2/default/g09/l1.exe PID=      8616.
  
 Copyright (c) 1988,1990,1992,1993,1995,1998,2003,2009,2013,
            Gaussian, Inc.  All Rights Reserved.
  
 This is part of the Gaussian(R) 09 program.  It is based on
 the Gaussian(R) 03 system (copyright 2003, Gaussian, Inc.),
 the Gaussian(R) 98 system (copyright 1998, Gaussian, Inc.),
 the Gaussian(R) 94 system (copyright 1995, Gaussian, Inc.),
 the Gaussian 92(TM) system (copyright 1992, Gaussian, Inc.),
 the Gaussian 90(TM) system (copyright 1990, Gaussian, Inc.),
 the Gaussian 88(TM) system (copyright 1988, Gaussian, Inc.),
 the Gaussian 86(TM) system (copyright 1986, Carnegie Mellon
 University), and the Gaussian 82(TM) system (copyright 1983,
 Carnegie Mellon University). Gaussian is a federally registered
 trademark of Gaussian, Inc.
  
 This software contains proprietary and confidential information,
 including trade secrets, belonging to Gaussian, Inc.
  
 This software is provided under written license and may be
 used, copied, transmitted, or stored only in accord with that
 written license.
  
 The following legend is applicable only to US Government
 contracts under FAR:
  
                    RESTRICTED RIGHTS LEGEND
  
 Use, reproduction and disclosure by the US Government is
 subject to restrictions as set forth in subparagraphs (a)
 and (c) of the Commercial Computer Software - Restricted
 Rights clause in FAR 52.227-19.
  
 Gaussian, Inc.
 340 Quinnipiac St., Bldg. 40, Wallingford CT 06492
  
  
 ---------------------------------------------------------------
 Warning -- This program may not be used in any manner that
 competes with the business of Gaussian, Inc. or will provide
 assistance to any competitor of Gaussian, Inc.  The licensee
 of this program is prohibited from giving any competitor of
 Gaussian, Inc. access to this program.  By using this program,
 the user acknowledges that Gaussian, Inc. is engaged in the
 business of creating and licensing software in the field of
 computational chemistry and represents and warrants to the
 licensee that it is not a competitor of Gaussian, Inc. and that
 it will not use this program in any manner prohibited above.
 ---------------------------------------------------------------
  

 Cite this work as:
 Gaussian 09, Revision D.01,
 M. J. Frisch, G. W. Trucks, H. B. Schlegel, G. E. Scuseria, 
 M. A. Robb, J. R. Cheeseman, G. Scalmani, V. Barone, B. Mennucci, 
 G. A. Petersson, H. Nakatsuji, M. Caricato, X. Li, H. P. Hratchian, 
 A. F. Izmaylov, J. Bloino, G. Zheng, J. L. Sonnenberg, M. Hada, 
 M. Ehara, K. Toyota, R. Fukuda, J. Hasegawa, M. Ishida, T. Nakajima, 
 Y. Honda, O. Kitao, H. Nakai, T. Vreven, J. A. Montgomery, Jr., 
 J. E. Peralta, F. Ogliaro, M. Bearpark, J. J. Heyd, E. Brothers, 
 K. N. Kudin, V. N. Staroverov, T. Keith, R. Kobayashi, J. Normand, 
 K. Raghavachari, A. Rendell, J. C. Burant, S. S. Iyengar, J. Tomasi, 
 M. Cossi, N. Rega, J. M. Millam, M. Klene, J. E. Knox, J. B. Cross, 
 V. Bakken, C. Adamo, J. Jaramillo, R. Gomperts, R. E. Stratmann, 
 O. Yazyev, A. J. Austin, R. Cammi, C. Pomelli, J. W. Ochterski, 
 R. L. Martin, K. Morokuma, V. G. Zakrzewski, G. A. Voth, 
 P. Salvador, J. J. Dannenberg, S. Dapprich, A. D. Daniels, 
 O. Farkas, J. B. Foresman, J. V. Ortiz, J. Cioslowski, 
 and D. J. Fox, Gaussian, Inc., Wallingford CT, 2013.
 
 ******************************************
 Gaussian 09:  ES64L-G09RevD.01 24-Apr-2013
                28-Sep-2022 
 ******************************************
 %nprocshared=4
 Will use up to    4 processors via shared memory.
 %mem=4GB
 %chk=HSO4_opt_2.chk
 %NoSave
 ----------------------------------------------------------------------
 # opt=tight freq scrf=(cpcm,solvent=nitromethane) def2svp m062x int=(g
 rid=ultrafine)
 ----------------------------------------------------------------------
 1/7=10,14=-1,18=20,19=15,26=4,38=1/1,3;
 2/9=110,12=2,17=6,18=5,40=1/2;
 3/5=43,7=101,11=2,16=1,25=1,30=1,70=2101,71=1,72=15,74=-55,75=-5/1,2,3;
 4//1;
 5/5=2,38=5,53=15/2;
 6/7=2,8=2,9=2,10=2,28=1/1;
 7//1,2,3,16;
 1/7=10,14=-1,18=20,19=15,26=4/3(2);
 2/9=110/2;
 99//99;
 2/9=110/2;
 3/5=43,7=101,11=2,16=1,25=1,30=1,70=2105,71=1,72=15,74=-55,75=-5/1,2,3;
 4/5=5,16=3,69=1/1;
 5/5=2,38=5,53=15/2;
 7//1,2,3,16;
 1/7=10,14=-1,18=20,19=15,26=4/3(-5);
 2/9=110/2;
 6/7=2,8=2,9=2,10=2,19=2,28=1/1;
 99/9=1/99;
 --------------
 HSO4- opt freq
 --------------
 Symbolic Z-matrix:
 Charge = -1 Multiplicity = 1
 S                     0.12944  -0.02233  -0.00062 
 O                    -1.42232   0.44603   0.00718 
 H                    -1.97899  -0.34719   0.00909 
 O                     0.82308   1.24578  -0.01629 
 O                     0.28425  -0.81212  -1.20783 
 O                     0.30348  -0.79163   1.21704 
 

 GradGradGradGradGradGradGradGradGradGradGradGradGradGradGradGradGradGrad
 Berny optimization.
 Initialization pass.
                           ----------------------------
                           !    Initial Parameters    !
                           ! (Angstroms and Degrees)  !
 --------------------------                            --------------------------
 ! Name  Definition              Value          Derivative Info.                !
 --------------------------------------------------------------------------------
 ! R1    R(1,2)                  1.6209         estimate D2E/DX2                !
 ! R2    R(1,4)                  1.4455         estimate D2E/DX2                !
 ! R3    R(1,5)                  1.4509         estimate D2E/DX2                !
 ! R4    R(1,6)                  1.4508         estimate D2E/DX2                !
 ! R5    R(2,3)                  0.9691         estimate D2E/DX2                !
 ! A1    A(2,1,4)              101.8852         estimate D2E/DX2                !
 ! A2    A(2,1,5)              105.2742         estimate D2E/DX2                !
 ! A3    A(2,1,6)              105.3088         estimate D2E/DX2                !
 ! A4    A(4,1,5)              114.6657         estimate D2E/DX2                !
 ! A5    A(4,1,6)              114.6277         estimate D2E/DX2                !
 ! A6    A(5,1,6)              113.3842         estimate D2E/DX2                !
 ! A7    A(1,2,3)              108.2658         estimate D2E/DX2                !
 ! D1    D(4,1,2,3)            179.4512         estimate D2E/DX2                !
 ! D2    D(5,1,2,3)             59.4806         estimate D2E/DX2                !
 ! D3    D(6,1,2,3)            -60.6066         estimate D2E/DX2                !
 --------------------------------------------------------------------------------
 Trust Radius=3.00D-01 FncErr=1.00D-07 GrdErr=1.00D-06
 Number of steps in this run=     25 maximum allowed number of steps=    100.
 GradGradGradGradGradGradGradGradGradGradGradGradGradGradGradGradGradGrad

                          Input orientation:                          
 ---------------------------------------------------------------------
 Center     Atomic      Atomic             Coordinates (Angstroms)
 Number     Number       Type             X           Y           Z
 ---------------------------------------------------------------------
      1         16           0        0.129440   -0.022330   -0.000620
      2          8           0       -1.422320    0.446030    0.007180
      3          1           0       -1.978990   -0.347190    0.009090
      4          8           0        0.823080    1.245780   -0.016290
      5          8           0        0.284250   -0.812120   -1.207830
      6          8           0        0.303480   -0.791630    1.217040
 ---------------------------------------------------------------------
                    Distance matrix (angstroms):
                    1          2          3          4          5
     1  S    0.000000
     2  O    1.620920   0.000000
     3  H    2.133332   0.969063   0.000000
     4  O    1.445505   2.383689   3.223320   0.000000
     5  O    1.450893   2.443680   2.611381   2.438249   0.000000
     6  O    1.450796   2.444166   2.620370   2.437648   2.425033
                    6
     6  O    0.000000
 Stoichiometry    HO4S(1-)
 Framework group  C1[X(HO4S)]
 Deg. of freedom    12
 Full point group                 C1      NOp   1
 Largest Abelian subgroup         C1      NOp   1
 Largest concise Abelian subgroup C1      NOp   1
                         Standard orientation:                         
 ---------------------------------------------------------------------
 Center     Atomic      Atomic             Coordinates (Angstroms)
 Number     Number       Type             X           Y           Z
 ---------------------------------------------------------------------
      1         16           0        0.129441   -0.022328   -0.000619
      2          8           0       -1.422326    0.446010    0.007181
      3          1           0       -1.978984   -0.347218    0.009091
      4          8           0        0.823063    1.245791   -0.016289
      5          8           0        0.284262   -0.812116   -1.207829
      6          8           0        0.303492   -0.791626    1.217041
 ---------------------------------------------------------------------
 Rotational constants (GHZ):      5.2919021      5.1739249      5.0988088
 Standard basis: def2SVP (5D, 7F)
 There are    84 symmetry adapted cartesian basis functions of A   symmetry.
 There are    79 symmetry adapted basis functions of A   symmetry.
    79 basis functions,   144 primitive gaussians,    84 cartesian basis functions
    25 alpha electrons       25 beta electrons
       nuclear repulsion energy       278.5796204463 Hartrees.
 NAtoms=    6 NActive=    6 NUniq=    6 SFac= 1.00D+00 NAtFMM=   60 NAOKFM=F Big=F
 Integral buffers will be    131072 words long.
 Raffenetti 2 integral format.
 Two-electron integral symmetry is turned on.
 ------------------------------------------------------------------------------
 Polarizable Continuum Model (PCM)
 =================================
 Model                : C-PCM.
 Atomic radii         : UFF (Universal Force Field).
 Polarization charges : Total charges.
 Charge compensation  : None.
 Solution method      : On-the-fly selection.
 Cavity type          : Scaled VdW (van der Waals Surface) (Alpha=1.100).
 Cavity algorithm     : GePol (No added spheres)
                        Default sphere list used, NSphG=    6.
                        Lebedev-Laikov grids with approx.  5.0 points / Ang**2.
                        Smoothing algorithm: Karplus/York (Gamma=1.0000).
                        Polarization charges: spherical gaussians, with
                                              point-specific exponents (IZeta= 3).
                        Self-potential: point-specific (ISelfS= 7).
                        Self-field    : sphere-specific E.n sum rule (ISelfD= 2).
 1st derivatives      : Analytical E(r).r(x)/FMM algorithm (CHGder, D1EAlg=3).
                        Cavity 1st derivative terms included.
 Solvent              : NitroMethane, Eps=  36.562000 Eps(inf)=   1.909095
 ------------------------------------------------------------------------------
 Spheres list:
 ISph  on   Nord     Re0    Alpha      Xe            Ye            Ze
    1   S      1    2.0175  1.100      0.129441     -0.022328     -0.000619
    2   O      2    1.7500  1.100     -1.422326      0.446010      0.007181
    3   H      3    1.4430  1.100     -1.978984     -0.347218      0.009091
    4   O      4    1.7500  1.100      0.823063      1.245791     -0.016289
    5   O      5    1.7500  1.100      0.284262     -0.812116     -1.207829
    6   O      6    1.7500  1.100      0.303492     -0.791626      1.217041
 ------------------------------------------------------------------------------
 One-electron integrals computed using PRISM.
   1 Symmetry operations used in ECPInt.
 ECPInt:  NShTT=     630 NPrTT=    2634 LenC2=     625 LenP2D=    2133.
 LDataN:  DoStor=T MaxTD1= 4 Len=   56
 NBasis=    79 RedAO= T EigKep=  7.66D-03  NBF=    79
 NBsUse=    79 1.00D-06 EigRej= -1.00D+00 NBFU=    79
 ExpMin= 1.22D-01 ExpMax= 9.18D+03 ExpMxC= 1.38D+03 IAcc=3 IRadAn=         5 AccDes= 0.00D+00
 Harris functional with IExCor= 1009 and IRadAn=       5 diagonalized for initial guess.
 HarFok:  IExCor= 1009 AccDes= 0.00D+00 IRadAn=         5 IDoV= 1 UseB2=F ITyADJ=14
 ICtDFT=  3500011 ScaDFX=  1.000000  1.000000  1.000000  1.000000
 FoFCou: FMM=F IPFlag=           0 FMFlag=      100000 FMFlg1=           0
         NFxFlg=           0 DoJE=T BraDBF=F KetDBF=T FulRan=T
         wScrn=  0.000000 ICntrl=     500 IOpCl=  0 I1Cent=   200000004 NGrid=           0
         NMat0=    1 NMatS0=      1 NMatT0=    0 NMatD0=    1 NMtDS0=    0 NMtDT0=    0
 Petite list used in FoFCou.
 Keep R1 ints in memory in canonical form, NReq=8780161.
 Requested convergence on RMS density matrix=1.00D-08 within 128 cycles.
 Requested convergence on MAX density matrix=1.00D-06.
 Requested convergence on             energy=1.00D-06.
 No special actions if energy rises.
 Inv3:  Mode=1 IEnd=     2162403.
 Iteration    1 A*A^-1 deviation from unit magnitude is 3.55D-15 for    811.
 Iteration    1 A*A^-1 deviation from orthogonality  is 2.87D-15 for    709    454.
 Iteration    1 A^-1*A deviation from unit magnitude is 3.33D-15 for    811.
 Iteration    1 A^-1*A deviation from orthogonality  is 2.02D-15 for    832    486.
 Error on total polarization charges =  0.00227
 SCF Done:  E(RM062X) =  -699.294182892     A.U. after   11 cycles
            NFock= 11  Conv=0.39D-08     -V/T= 2.0036

 **********************************************************************

            Population analysis using the SCF density.

 **********************************************************************

 Orbital symmetries:
       Occupied  (A) (A) (A) (A) (A) (A) (A) (A) (A) (A) (A) (A)
                 (A) (A) (A) (A) (A) (A) (A) (A) (A) (A) (A) (A)
                 (A)
       Virtual   (A) (A) (A) (A) (A) (A) (A) (A) (A) (A) (A) (A)
                 (A) (A) (A) (A) (A) (A) (A) (A) (A) (A) (A) (A)
                 (A) (A) (A) (A) (A) (A) (A) (A) (A) (A) (A) (A)
                 (A) (A) (A) (A) (A) (A) (A) (A) (A) (A) (A) (A)
                 (A) (A) (A) (A) (A) (A)
 The electronic state is 1-A.
 Alpha  occ. eigenvalues --  -90.11197 -19.63408 -19.56874 -19.56732 -19.56723
 Alpha  occ. eigenvalues --   -8.43924  -6.36505  -6.36339  -6.36321  -1.24357
 Alpha  occ. eigenvalues --   -1.10199  -1.06410  -1.06011  -0.67997  -0.57486
 Alpha  occ. eigenvalues --   -0.53321  -0.52214  -0.47918  -0.42565  -0.39072
 Alpha  occ. eigenvalues --   -0.38641  -0.38214  -0.34016  -0.32611  -0.30227
 Alpha virt. eigenvalues --    0.12018   0.21687   0.25114   0.29082   0.30131
 Alpha virt. eigenvalues --    0.43889   0.63234   0.74873   0.75132   0.75836
 Alpha virt. eigenvalues --    0.76206   0.77595   0.93742   0.94184   0.94329
 Alpha virt. eigenvalues --    0.99151   0.99669   1.05559   1.12654   1.12989
 Alpha virt. eigenvalues --    1.13925   1.17333   1.19804   1.21272   1.31944
 Alpha virt. eigenvalues --    1.34424   1.39891   1.40111   1.41498   1.46582
 Alpha virt. eigenvalues --    1.54166   1.68033   1.80105   2.27482   2.67775
 Alpha virt. eigenvalues --    2.67820   2.73466   2.74024   2.74202   2.74537
 Alpha virt. eigenvalues --    2.74734   2.75731   2.82139   2.96682   2.97124
 Alpha virt. eigenvalues --    3.03002   3.04193   3.10722   3.14298   3.18882
 Alpha virt. eigenvalues --    3.37620   3.52152   3.52226   3.74117
          Condensed to atoms (all electrons):
               1          2          3          4          5          6
     1  S   13.162227   0.250726  -0.005345   0.496522   0.490325   0.490663
     2  O    0.250726   8.059527   0.308898  -0.054954  -0.058730  -0.058688
     3  H   -0.005345   0.308898   0.467770   0.004065   0.004951   0.004800
     4  O    0.496522  -0.054954   0.004065   8.303144  -0.061815  -0.061956
     5  O    0.490325  -0.058730   0.004951  -0.061815   8.319625  -0.065279
     6  O    0.490663  -0.058688   0.004800  -0.061956  -0.065279   8.319343
 Mulliken charges:
               1
     1  S    1.114883
     2  O   -0.446779
     3  H    0.214861
     4  O   -0.625005
     5  O   -0.629077
     6  O   -0.628883
 Sum of Mulliken charges =  -1.00000
 Mulliken charges with hydrogens summed into heavy atoms:
               1
     1  S    1.114883
     2  O   -0.231918
     4  O   -0.625005
     5  O   -0.629077
     6  O   -0.628883
 Electronic spatial extent (au):  <R**2>=            358.6042
 Charge=             -1.0000 electrons
 Dipole moment (field-independent basis, Debye):
    X=             -3.4759    Y=             -0.8696    Z=              0.0159  Tot=              3.5831
 Quadrupole moment (field-independent basis, Debye-Ang):
   XX=            -34.6047   YY=            -43.3200   ZZ=            -43.5946
   XY=              1.6794   XZ=             -0.0494   YZ=             -0.0079
 Traceless Quadrupole moment (field-independent basis, Debye-Ang):
   XX=              5.9017   YY=             -2.8135   ZZ=             -3.0881
   XY=              1.6794   XZ=             -0.0494   YZ=             -0.0079
 Octapole moment (field-independent basis, Debye-Ang**2):
  XXX=            -10.2490  YYY=             -3.2076  ZZZ=             -0.1285  XYY=             -5.6663
  XXY=             -8.6749  XXZ=              0.0171  XZZ=             -3.2789  YZZ=              7.7130
  YYZ=              0.1964  XYZ=              0.1307
 Hexadecapole moment (field-independent basis, Debye-Ang**3):
 XXXX=           -119.3860 YYYY=           -145.2744 ZZZZ=           -145.4101 XXXY=              8.9332
 XXXZ=             -0.1087 YYYX=             -2.6863 YYYZ=             -0.0413 ZZZX=             -0.1578
 ZZZY=             -0.0169 XXYY=            -49.5266 XXZZ=            -46.2896 YYZZ=            -50.4055
 XXYZ=              0.0193 YYXZ=              0.0403 ZZXY=              2.3563
 N-N= 2.785796204463D+02 E-N=-2.225933043636D+03  KE= 6.967567873761D+02
   1 Symmetry operations used in ECPInt.
 ECPInt:  NShTT=     630 NPrTT=    2634 LenC2=     625 LenP2D=    2133.
 LDataN:  DoStor=T MaxTD1= 5 Len=  102
 D1PCM: C-PCM CHGder 1st derivatives, ID1Alg=3 FixD1E=F DoIter=F DoCFld=F I1PDM=0.
 Calling FoFJK, ICntrl=      2127 FMM=F ISym2X=0 I1Cent= 0 IOpClX= 0 NMat=1 NMatS=1 NMatT=0.
 ***** Axes restored to original set *****
 -------------------------------------------------------------------
 Center     Atomic                   Forces (Hartrees/Bohr)
 Number     Number              X              Y              Z
 -------------------------------------------------------------------
      1       16           0.002974193   -0.001869715   -0.000029946
      2        8          -0.016122655    0.003922129    0.000044657
      3        1          -0.000066880    0.000668179    0.000022011
      4        8           0.010562106    0.021729999   -0.000282175
      5        8           0.001164286   -0.012358955   -0.019573307
      6        8           0.001488949   -0.012091636    0.019818759
 -------------------------------------------------------------------
 Cartesian Forces:  Max     0.021729999 RMS     0.010409320

 GradGradGradGradGradGradGradGradGradGradGradGradGradGradGradGradGradGrad
 Berny optimization.
 FormGI is forming the generalized inverse of G from B-inverse, IUseBI=4.
 Internal  Forces:  Max     0.024144192 RMS     0.011442750
 Search for a local minimum.
 Step number   1 out of a maximum of   25
 All quantities printed in internal units (Hartrees-Bohrs-Radians)
 Mixed Optimization -- RFO/linear search
 Second derivative matrix not updated -- first step.
 The second derivative matrix:
                          R1        R2        R3        R4        R5
           R1           0.47376
           R2           0.00000   0.97975
           R3           0.00000   0.00000   0.95542
           R4           0.00000   0.00000   0.00000   0.95585
           R5           0.00000   0.00000   0.00000   0.00000   0.53569
           A1           0.00000   0.00000   0.00000   0.00000   0.00000
           A2           0.00000   0.00000   0.00000   0.00000   0.00000
           A3           0.00000   0.00000   0.00000   0.00000   0.00000
           A4           0.00000   0.00000   0.00000   0.00000   0.00000
           A5           0.00000   0.00000   0.00000   0.00000   0.00000
           A6           0.00000   0.00000   0.00000   0.00000   0.00000
           A7           0.00000   0.00000   0.00000   0.00000   0.00000
           D1           0.00000   0.00000   0.00000   0.00000   0.00000
           D2           0.00000   0.00000   0.00000   0.00000   0.00000
           D3           0.00000   0.00000   0.00000   0.00000   0.00000
                          A1        A2        A3        A4        A5
           A1           0.25000
           A2           0.00000   0.25000
           A3           0.00000   0.00000   0.25000
           A4           0.00000   0.00000   0.00000   0.25000
           A5           0.00000   0.00000   0.00000   0.00000   0.25000
           A6           0.00000   0.00000   0.00000   0.00000   0.00000
           A7           0.00000   0.00000   0.00000   0.00000   0.00000
           D1           0.00000   0.00000   0.00000   0.00000   0.00000
           D2           0.00000   0.00000   0.00000   0.00000   0.00000
           D3           0.00000   0.00000   0.00000   0.00000   0.00000
                          A6        A7        D1        D2        D3
           A6           0.25000
           A7           0.00000   0.16000
           D1           0.00000   0.00000   0.02342
           D2           0.00000   0.00000   0.00000   0.02342
           D3           0.00000   0.00000   0.00000   0.00000   0.02342
 ITU=  0
     Eigenvalues ---    0.02342   0.16000   0.17438   0.17806   0.25000
     Eigenvalues ---    0.25000   0.25000   0.47376   0.53569   0.95542
     Eigenvalues ---    0.95585   0.97975
 RFO step:  Lambda=-2.40553441D-03 EMin= 2.34221358D-02
 Linear search not attempted -- first point.
 Iteration  1 RMS(Cart)=  0.01565918 RMS(Int)=  0.00009202
 Iteration  2 RMS(Cart)=  0.00011219 RMS(Int)=  0.00003598
 Iteration  3 RMS(Cart)=  0.00000001 RMS(Int)=  0.00003598
 Variable       Old X    -DE/DX   Delta X   Delta X   Delta X     New X
                                 (Linear)    (Quad)   (Total)
    R1        3.06309   0.01681   0.00000   0.03530   0.03530   3.09840
    R2        2.73161   0.02414   0.00000   0.02458   0.02458   2.75619
    R3        2.74179   0.02313   0.00000   0.02415   0.02415   2.76594
    R4        2.74161   0.02322   0.00000   0.02423   0.02423   2.76584
    R5        1.83126  -0.00048   0.00000  -0.00089  -0.00089   1.83038
    A1        1.77823  -0.00199   0.00000  -0.00786  -0.00791   1.77032
    A2        1.83738  -0.00233   0.00000  -0.00927  -0.00932   1.82806
    A3        1.83799  -0.00230   0.00000  -0.00910  -0.00915   1.82884
    A4        2.00129   0.00163   0.00000   0.00646   0.00639   2.00769
    A5        2.00063   0.00167   0.00000   0.00670   0.00664   2.00727
    A6        1.97893   0.00186   0.00000   0.00730   0.00723   1.98616
    A7        1.88959   0.00075   0.00000   0.00460   0.00460   1.89419
    D1        3.13201  -0.00001   0.00000   0.00031   0.00031   3.13233
    D2        1.03813  -0.00001   0.00000   0.00028   0.00029   1.03842
    D3       -1.05778   0.00006   0.00000   0.00068   0.00067  -1.05711
         Item               Value     Threshold  Converged?
 Maximum Force            0.024144     0.000015     NO 
 RMS     Force            0.011443     0.000010     NO 
 Maximum Displacement     0.029306     0.000060     NO 
 RMS     Displacement     0.015646     0.000040     NO 
 Predicted change in Energy=-1.206871D-03
 GradGradGradGradGradGradGradGradGradGradGradGradGradGradGradGradGradGrad

                          Input orientation:                          
 ---------------------------------------------------------------------
 Center     Atomic      Atomic             Coordinates (Angstroms)
 Number     Number       Type             X           Y           Z
 ---------------------------------------------------------------------
      1         16           0        0.140449   -0.024962   -0.000645
      2          8           0       -1.430042    0.445984    0.007054
      3          1           0       -1.988665   -0.345285    0.009302
      4          8           0        0.827887    1.261288   -0.016499
      5          8           0        0.284994   -0.819517   -1.221353
      6          8           0        0.304317   -0.798968    1.230712
 ---------------------------------------------------------------------
                    Distance matrix (angstroms):
                    1          2          3          4          5
     1  S    0.000000
     2  O    1.639601   0.000000
     3  H    2.153098   0.968593   0.000000
     4  O    1.458514   2.400732   3.242639   0.000000
     5  O    1.463672   2.460046   2.628485   2.464986   0.000000
     6  O    1.463618   2.460740   2.637316   2.464612   2.452227
                    6
     6  O    0.000000
 Stoichiometry    HO4S(1-)
 Framework group  C1[X(HO4S)]
 Deg. of freedom    12
 Full point group                 C1      NOp   1
 Largest Abelian subgroup         C1      NOp   1
 Largest concise Abelian subgroup C1      NOp   1
                         Standard orientation:                         
 ---------------------------------------------------------------------
 Center     Atomic      Atomic             Coordinates (Angstroms)
 Number     Number       Type             X           Y           Z
 ---------------------------------------------------------------------
      1         16           0        0.136577   -0.027895   -0.000780
      2          8           0       -1.420848    0.484560    0.009598
      3          1           0       -2.000288   -0.291598    0.009133
      4          8           0        0.857927    1.239697   -0.012099
      5          8           0        0.259410   -0.821319   -1.224597
      6          8           0        0.280393   -0.810698    1.227517
 ---------------------------------------------------------------------
 Rotational constants (GHZ):      5.1776279      5.0889217      5.0169183
 Standard basis: def2SVP (5D, 7F)
 There are    84 symmetry adapted cartesian basis functions of A   symmetry.
 There are    79 symmetry adapted basis functions of A   symmetry.
    79 basis functions,   144 primitive gaussians,    84 cartesian basis functions
    25 alpha electrons       25 beta electrons
       nuclear repulsion energy       276.0619471114 Hartrees.
 NAtoms=    6 NActive=    6 NUniq=    6 SFac= 1.00D+00 NAtFMM=   60 NAOKFM=F Big=F
 Integral buffers will be    131072 words long.
 Raffenetti 2 integral format.
 Two-electron integral symmetry is turned on.
 ------------------------------------------------------------------------------
 Polarizable Continuum Model (PCM)
 =================================
 Model                : C-PCM.
 Atomic radii         : UFF (Universal Force Field).
 Polarization charges : Total charges.
 Charge compensation  : None.
 Solution method      : On-the-fly selection.
 Cavity type          : Scaled VdW (van der Waals Surface) (Alpha=1.100).
 Cavity algorithm     : GePol (No added spheres)
                        Default sphere list used, NSphG=    6.
                        Lebedev-Laikov grids with approx.  5.0 points / Ang**2.
                        Smoothing algorithm: Karplus/York (Gamma=1.0000).
                        Polarization charges: spherical gaussians, with
                                              point-specific exponents (IZeta= 3).
                        Self-potential: point-specific (ISelfS= 7).
                        Self-field    : sphere-specific E.n sum rule (ISelfD= 2).
 1st derivatives      : Analytical E(r).r(x)/FMM algorithm (CHGder, D1EAlg=3).
                        Cavity 1st derivative terms included.
 Solvent              : NitroMethane, Eps=  36.562000 Eps(inf)=   1.909095
 ------------------------------------------------------------------------------
 Spheres list:
 ISph  on   Nord     Re0    Alpha      Xe            Ye            Ze
    1   S      1    2.0175  1.100      0.136577     -0.027895     -0.000780
    2   O      2    1.7500  1.100     -1.420848      0.484560      0.009598
    3   H      3    1.4430  1.100     -2.000288     -0.291598      0.009133
    4   O      4    1.7500  1.100      0.857927      1.239697     -0.012099
    5   O      5    1.7500  1.100      0.259410     -0.821319     -1.224597
    6   O      6    1.7500  1.100      0.280393     -0.810698      1.227517
 ------------------------------------------------------------------------------
 One-electron integrals computed using PRISM.
   1 Symmetry operations used in ECPInt.
 ECPInt:  NShTT=     630 NPrTT=    2634 LenC2=     625 LenP2D=    2132.
 LDataN:  DoStor=T MaxTD1= 4 Len=   56
 NBasis=    79 RedAO= T EigKep=  7.93D-03  NBF=    79
 NBsUse=    79 1.00D-06 EigRej= -1.00D+00 NBFU=    79
 Initial guess from the checkpoint file:  "HSO4_opt_2.chk"
 B after Tr=     0.000000    0.000000    0.000000
         Rot=    0.999916   -0.001922   -0.000230    0.012815 Ang=  -1.49 deg.
 ExpMin= 1.22D-01 ExpMax= 9.18D+03 ExpMxC= 1.38D+03 IAcc=2 IRadAn=         4 AccDes= 0.00D+00
 Harris functional with IExCor= 1009 and IRadAn=       4 diagonalized for initial guess.
 HarFok:  IExCor= 1009 AccDes= 0.00D+00 IRadAn=         4 IDoV= 1 UseB2=F ITyADJ=14
 ICtDFT=  3500011 ScaDFX=  1.000000  1.000000  1.000000  1.000000
 FoFCou: FMM=F IPFlag=           0 FMFlag=      100000 FMFlg1=           0
         NFxFlg=           0 DoJE=T BraDBF=F KetDBF=T FulRan=T
         wScrn=  0.000000 ICntrl=     500 IOpCl=  0 I1Cent=   200000004 NGrid=           0
         NMat0=    1 NMatS0=      1 NMatT0=    0 NMatD0=    1 NMtDS0=    0 NMtDT0=    0
 Petite list used in FoFCou.
 Keep R1 ints in memory in canonical form, NReq=8798819.
 Requested convergence on RMS density matrix=1.00D-08 within 128 cycles.
 Requested convergence on MAX density matrix=1.00D-06.
 Requested convergence on             energy=1.00D-06.
 No special actions if energy rises.
 Inv3:  Mode=1 IEnd=     2213643.
 Iteration    1 A*A^-1 deviation from unit magnitude is 4.00D-15 for    458.
 Iteration    1 A*A^-1 deviation from orthogonality  is 2.99D-15 for    716    458.
 Iteration    1 A^-1*A deviation from unit magnitude is 3.77D-15 for    458.
 Iteration    1 A^-1*A deviation from orthogonality  is 1.39D-15 for    855    522.
 Error on total polarization charges =  0.00226
 SCF Done:  E(RM062X) =  -699.295637588     A.U. after   10 cycles
            NFock= 10  Conv=0.56D-08     -V/T= 2.0039
   1 Symmetry operations used in ECPInt.
 ECPInt:  NShTT=     630 NPrTT=    2634 LenC2=     625 LenP2D=    2132.
 LDataN:  DoStor=T MaxTD1= 5 Len=  102
 D1PCM: C-PCM CHGder 1st derivatives, ID1Alg=3 FixD1E=F DoIter=F DoCFld=F I1PDM=0.
 Calling FoFJK, ICntrl=      2127 FMM=F ISym2X=0 I1Cent= 0 IOpClX= 0 NMat=1 NMatS=1 NMatT=0.
 ***** Axes restored to original set *****
 -------------------------------------------------------------------
 Center     Atomic                   Forces (Hartrees/Bohr)
 Number     Number              X              Y              Z
 -------------------------------------------------------------------
      1       16          -0.001186088   -0.001138782   -0.000004806
      2        8          -0.006054607    0.002712896    0.000013505
      3        1           0.000705595   -0.000305178    0.000017072
      4        8           0.003404511    0.004396157   -0.000043328
      5        8           0.001552133   -0.002866441   -0.004067078
      6        8           0.001578457   -0.002798653    0.004084635
 -------------------------------------------------------------------
 Cartesian Forces:  Max     0.006054607 RMS     0.002712184

 GradGradGradGradGradGradGradGradGradGradGradGradGradGradGradGradGradGrad
 Berny optimization.
 Using GEDIIS/GDIIS optimizer.
 FormGI is forming the generalized inverse of G from B-inverse, IUseBI=4.
 Internal  Forces:  Max     0.005795249 RMS     0.002974397
 Search for a local minimum.
 Step number   2 out of a maximum of   25
 All quantities printed in internal units (Hartrees-Bohrs-Radians)
 Mixed Optimization -- RFO/linear search
 Update second derivatives using D2CorX and points    1    2
 DE= -1.45D-03 DEPred=-1.21D-03 R= 1.21D+00
 TightC=F SS=  1.41D+00  RLast= 5.84D-02 DXNew= 5.0454D-01 1.7528D-01
 Trust test= 1.21D+00 RLast= 5.84D-02 DXMaxT set to 3.00D-01
 The second derivative matrix:
                          R1        R2        R3        R4        R5
           R1           0.42092
           R2          -0.05994   0.92079
           R3          -0.05643  -0.05481   0.90453
           R4          -0.05647  -0.05472  -0.05080   0.90515
           R5           0.00124   0.00126   0.00117   0.00117   0.53566
           A1          -0.00573  -0.01319  -0.01294  -0.01304   0.00024
           A2          -0.00885  -0.01909  -0.01868  -0.01882   0.00036
           A3          -0.00850  -0.01842  -0.01803  -0.01816   0.00034
           A4           0.00616   0.01325   0.01296   0.01306  -0.00025
           A5           0.00600   0.01309   0.01282   0.01291  -0.00024
           A6           0.00566   0.01278   0.01253   0.01263  -0.00024
           A7           0.00759   0.01416   0.01376   0.01385  -0.00027
           D1          -0.00026  -0.00043  -0.00042  -0.00042   0.00001
           D2          -0.00116  -0.00195  -0.00189  -0.00190   0.00004
           D3           0.00112   0.00193   0.00187   0.00188  -0.00004
                          A1        A2        A3        A4        A5
           A1           0.25434
           A2           0.00576   0.25761
           A3           0.00559   0.00739   0.25718
           A4          -0.00398  -0.00525  -0.00510   0.25363
           A5          -0.00401  -0.00530  -0.00515   0.00366   0.25369
           A6          -0.00410  -0.00543  -0.00528   0.00375   0.00378
           A7          -0.00329  -0.00429  -0.00417   0.00296   0.00300
           D1           0.00007   0.00009   0.00009  -0.00006  -0.00006
           D2           0.00035   0.00044   0.00043  -0.00031  -0.00031
           D3          -0.00036  -0.00047  -0.00046   0.00032   0.00033
                          A6        A7        D1        D2        D3
           A6           0.25387
           A7           0.00309   0.16231
           D1          -0.00007  -0.00004   0.02342
           D2          -0.00032  -0.00022   0.00000   0.02344
           D3           0.00034   0.00024   0.00000  -0.00002   0.02345
 ITU=  1  0
 Use linear search instead of GDIIS.
     Eigenvalues ---    0.02342   0.16066   0.17559   0.17910   0.24998
     Eigenvalues ---    0.25000   0.26672   0.40488   0.53567   0.83433
     Eigenvalues ---    0.95564   0.97184
 RFO step:  Lambda=-1.97305148D-04 EMin= 2.34216646D-02
 Quartic linear search produced a step of  0.26643.
 Iteration  1 RMS(Cart)=  0.01056560 RMS(Int)=  0.00006047
 Iteration  2 RMS(Cart)=  0.00003926 RMS(Int)=  0.00004231
 Iteration  3 RMS(Cart)=  0.00000000 RMS(Int)=  0.00004231
 Variable       Old X    -DE/DX   Delta X   Delta X   Delta X     New X
                                 (Linear)    (Quad)   (Total)
    R1        3.09840   0.00580   0.00941   0.00897   0.01837   3.11677
    R2        2.75619   0.00549   0.00655   0.00257   0.00912   2.76531
    R3        2.76594   0.00509   0.00643   0.00230   0.00873   2.77467
    R4        2.76584   0.00508   0.00646   0.00227   0.00872   2.77456
    R5        1.83038  -0.00012  -0.00024  -0.00012  -0.00035   1.83002
    A1        1.77032   0.00138  -0.00211   0.00822   0.00606   1.77638
    A2        1.82806   0.00200  -0.00248   0.01198   0.00944   1.83750
    A3        1.82884   0.00192  -0.00244   0.01155   0.00905   1.83789
    A4        2.00769  -0.00136   0.00170  -0.00831  -0.00667   2.00101
    A5        2.00727  -0.00136   0.00177  -0.00843  -0.00673   2.00054
    A6        1.98616  -0.00129   0.00193  -0.00731  -0.00547   1.98069
    A7        1.89419  -0.00145   0.00123  -0.01231  -0.01108   1.88311
    D1        3.13233   0.00003   0.00008   0.00088   0.00097   3.13330
    D2        1.03842   0.00018   0.00008   0.00198   0.00207   1.04049
    D3       -1.05711  -0.00016   0.00018  -0.00050  -0.00034  -1.05745
         Item               Value     Threshold  Converged?
 Maximum Force            0.005795     0.000015     NO 
 RMS     Force            0.002974     0.000010     NO 
 Maximum Displacement     0.025425     0.000060     NO 
 RMS     Displacement     0.010568     0.000040     NO 
 Predicted change in Energy=-1.658623D-04
 GradGradGradGradGradGradGradGradGradGradGradGradGradGradGradGradGradGrad

                          Input orientation:                          
 ---------------------------------------------------------------------
 Center     Atomic      Atomic             Coordinates (Angstroms)
 Number     Number       Type             X           Y           Z
 ---------------------------------------------------------------------
      1         16           0        0.135756   -0.024375   -0.000768
      2          8           0       -1.443496    0.451198    0.006906
      3          1           0       -1.994131   -0.345421    0.009856
      4          8           0        0.834768    1.261120   -0.016476
      5          8           0        0.293675   -0.822284   -1.223180
      6          8           0        0.312368   -0.801698    1.232231
 ---------------------------------------------------------------------
                    Distance matrix (angstroms):
                    1          2          3          4          5
     1  S    0.000000
     2  O    1.649323   0.000000
     3  H    2.153974   0.968406   0.000000
     4  O    1.463339   2.418059   3.253358   0.000000
     5  O    1.468294   2.480450   2.642315   2.467688   0.000000
     6  O    1.468234   2.480772   2.649968   2.467264   2.455568
                    6
     6  O    0.000000
 Stoichiometry    HO4S(1-)
 Framework group  C1[X(HO4S)]
 Deg. of freedom    12
 Full point group                 C1      NOp   1
 Largest Abelian subgroup         C1      NOp   1
 Largest concise Abelian subgroup C1      NOp   1
                         Standard orientation:                         
 ---------------------------------------------------------------------
 Center     Atomic      Atomic             Coordinates (Angstroms)
 Number     Number       Type             X           Y           Z
 ---------------------------------------------------------------------
      1         16           0        0.133211   -0.019843   -0.000470
      2          8           0       -1.459471    0.408639    0.005496
      3          1           0       -1.986222   -0.403976    0.006635
      4          8           0        0.793781    1.285851   -0.013534
      5          8           0        0.316483   -0.811117   -1.223656
      6          8           0        0.331062   -0.793190    1.231804
 ---------------------------------------------------------------------
 Rotational constants (GHZ):      5.1657610      5.0286907      4.9602471
 Standard basis: def2SVP (5D, 7F)
 There are    84 symmetry adapted cartesian basis functions of A   symmetry.
 There are    79 symmetry adapted basis functions of A   symmetry.
    79 basis functions,   144 primitive gaussians,    84 cartesian basis functions
    25 alpha electrons       25 beta electrons
       nuclear repulsion energy       274.9789025286 Hartrees.
 NAtoms=    6 NActive=    6 NUniq=    6 SFac= 1.00D+00 NAtFMM=   60 NAOKFM=F Big=F
 Integral buffers will be    131072 words long.
 Raffenetti 2 integral format.
 Two-electron integral symmetry is turned on.
 ------------------------------------------------------------------------------
 Polarizable Continuum Model (PCM)
 =================================
 Model                : C-PCM.
 Atomic radii         : UFF (Universal Force Field).
 Polarization charges : Total charges.
 Charge compensation  : None.
 Solution method      : On-the-fly selection.
 Cavity type          : Scaled VdW (van der Waals Surface) (Alpha=1.100).
 Cavity algorithm     : GePol (No added spheres)
                        Default sphere list used, NSphG=    6.
                        Lebedev-Laikov grids with approx.  5.0 points / Ang**2.
                        Smoothing algorithm: Karplus/York (Gamma=1.0000).
                        Polarization charges: spherical gaussians, with
                                              point-specific exponents (IZeta= 3).
                        Self-potential: point-specific (ISelfS= 7).
                        Self-field    : sphere-specific E.n sum rule (ISelfD= 2).
 1st derivatives      : Analytical E(r).r(x)/FMM algorithm (CHGder, D1EAlg=3).
                        Cavity 1st derivative terms included.
 Solvent              : NitroMethane, Eps=  36.562000 Eps(inf)=   1.909095
 ------------------------------------------------------------------------------
 Spheres list:
 ISph  on   Nord     Re0    Alpha      Xe            Ye            Ze
    1   S      1    2.0175  1.100      0.133211     -0.019843     -0.000470
    2   O      2    1.7500  1.100     -1.459471      0.408639      0.005496
    3   H      3    1.4430  1.100     -1.986222     -0.403976      0.006635
    4   O      4    1.7500  1.100      0.793781      1.285851     -0.013534
    5   O      5    1.7500  1.100      0.316483     -0.811117     -1.223656
    6   O      6    1.7500  1.100      0.331062     -0.793190      1.231804
 ------------------------------------------------------------------------------
 One-electron integrals computed using PRISM.
   1 Symmetry operations used in ECPInt.
 ECPInt:  NShTT=     630 NPrTT=    2634 LenC2=     625 LenP2D=    2130.
 LDataN:  DoStor=T MaxTD1= 4 Len=   56
 NBasis=    79 RedAO= T EigKep=  8.12D-03  NBF=    79
 NBsUse=    79 1.00D-06 EigRej= -1.00D+00 NBFU=    79
 Initial guess from the checkpoint file:  "HSO4_opt_2.chk"
 B after Tr=     0.000000    0.000000    0.000000
         Rot=    0.999600    0.001265    0.001082   -0.028222 Ang=   3.24 deg.
 ExpMin= 1.22D-01 ExpMax= 9.18D+03 ExpMxC= 1.38D+03 IAcc=2 IRadAn=         4 AccDes= 0.00D+00
 Harris functional with IExCor= 1009 and IRadAn=       4 diagonalized for initial guess.
 HarFok:  IExCor= 1009 AccDes= 0.00D+00 IRadAn=         4 IDoV= 1 UseB2=F ITyADJ=14
 ICtDFT=  3500011 ScaDFX=  1.000000  1.000000  1.000000  1.000000
 FoFCou: FMM=F IPFlag=           0 FMFlag=      100000 FMFlg1=           0
         NFxFlg=           0 DoJE=T BraDBF=F KetDBF=T FulRan=T
         wScrn=  0.000000 ICntrl=     500 IOpCl=  0 I1Cent=   200000004 NGrid=           0
         NMat0=    1 NMatS0=      1 NMatT0=    0 NMatD0=    1 NMtDS0=    0 NMtDT0=    0
 Petite list used in FoFCou.
 Keep R1 ints in memory in canonical form, NReq=8808223.
 Requested convergence on RMS density matrix=1.00D-08 within 128 cycles.
 Requested convergence on MAX density matrix=1.00D-06.
 Requested convergence on             energy=1.00D-06.
 No special actions if energy rises.
 Inv3:  Mode=1 IEnd=     2239488.
 Iteration    1 A*A^-1 deviation from unit magnitude is 2.44D-15 for    730.
 Iteration    1 A*A^-1 deviation from orthogonality  is 1.91D-15 for    862    495.
 Iteration    1 A^-1*A deviation from unit magnitude is 2.55D-15 for    857.
 Iteration    1 A^-1*A deviation from orthogonality  is 6.33D-16 for    159    100.
 Error on total polarization charges =  0.00229
 SCF Done:  E(RM062X) =  -699.295703477     A.U. after   10 cycles
            NFock= 10  Conv=0.43D-08     -V/T= 2.0039
   1 Symmetry operations used in ECPInt.
 ECPInt:  NShTT=     630 NPrTT=    2634 LenC2=     625 LenP2D=    2130.
 LDataN:  DoStor=T MaxTD1= 5 Len=  102
 D1PCM: C-PCM CHGder 1st derivatives, ID1Alg=3 FixD1E=F DoIter=F DoCFld=F I1PDM=0.
 Calling FoFJK, ICntrl=      2127 FMM=F ISym2X=0 I1Cent= 0 IOpClX= 0 NMat=1 NMatS=1 NMatT=0.
 ***** Axes restored to original set *****
 -------------------------------------------------------------------
 Center     Atomic                   Forces (Hartrees/Bohr)
 Number     Number              X              Y              Z
 -------------------------------------------------------------------
      1       16           0.004502515   -0.001059514   -0.000041617
      2        8           0.000941170    0.000154641   -0.000033824
      3        1          -0.000120552   -0.000502524    0.000016580
      4        8          -0.001673067    0.000266223   -0.000015914
      5        8          -0.001854296    0.000577578    0.000339617
      6        8          -0.001795770    0.000563595   -0.000264841
 -------------------------------------------------------------------
 Cartesian Forces:  Max     0.004502515 RMS     0.001352885

 GradGradGradGradGradGradGradGradGradGradGradGradGradGradGradGradGradGrad
 Berny optimization.
 Using GEDIIS/GDIIS optimizer.
 FormGI is forming the generalized inverse of G from B-inverse, IUseBI=4.
 Internal  Forces:  Max     0.003200266 RMS     0.001735299
 Search for a local minimum.
 Step number   3 out of a maximum of   25
 All quantities printed in internal units (Hartrees-Bohrs-Radians)
 Mixed Optimization -- RFO/linear search
 Update second derivatives using D2CorX and points    1    2    3
 DE= -6.59D-05 DEPred=-1.66D-04 R= 3.97D-01
 Trust test= 3.97D-01 RLast= 3.21D-02 DXMaxT set to 3.00D-01
 The second derivative matrix:
                          R1        R2        R3        R4        R5
           R1           0.41036
           R2          -0.07796   0.89417
           R3          -0.06958  -0.07580   0.88876
           R4          -0.07056  -0.07672  -0.06755   0.88743
           R5          -0.00514  -0.00537  -0.00542  -0.00534   0.53643
           A1           0.03007   0.02403   0.02396   0.02342  -0.00381
           A2           0.03279   0.02378   0.02408   0.02338  -0.00477
           A3           0.03185   0.02315   0.02342   0.02274  -0.00460
           A4          -0.02354  -0.01733  -0.01754  -0.01704   0.00342
           A5          -0.02325  -0.01700  -0.01722  -0.01672   0.00339
           A6          -0.02641  -0.02060  -0.02054  -0.02006   0.00336
           A7           0.01574   0.02389   0.02266   0.02283   0.00001
           D1           0.00011  -0.00004  -0.00003  -0.00003  -0.00003
           D2           0.00461   0.00421   0.00412   0.00407  -0.00046
           D3          -0.00517  -0.00482  -0.00470  -0.00464   0.00047
                          A1        A2        A3        A4        A5
           A1           0.27580
           A2           0.03304   0.29209
           A3           0.03191   0.04066   0.28928
           A4          -0.02348  -0.02989  -0.02888   0.27123
           A5          -0.02337  -0.02976  -0.02875   0.02114   0.27104
           A6          -0.02315  -0.02966  -0.02865   0.02107   0.02098
           A7          -0.00519  -0.00611  -0.00596   0.00425   0.00424
           D1           0.00028   0.00036   0.00034  -0.00025  -0.00025
           D2           0.00295   0.00383   0.00370  -0.00273  -0.00272
           D3          -0.00300  -0.00392  -0.00378   0.00279   0.00279
                          A6        A7        D1        D2        D3
           A6           0.27077
           A7           0.00483   0.16076
           D1          -0.00025  -0.00007   0.02342
           D2          -0.00263  -0.00067   0.00003   0.02373
           D3           0.00267   0.00077  -0.00003  -0.00030   0.02372
 ITU=  0  1  0
 Use linear search instead of GDIIS.
     Eigenvalues ---    0.02342   0.15196   0.17473   0.17822   0.24973
     Eigenvalues ---    0.25000   0.30108   0.48175   0.53839   0.79862
     Eigenvalues ---    0.95565   0.97138
 RFO step:  Lambda=-5.15342593D-05 EMin= 2.34199999D-02
 Quartic linear search produced a step of -0.38432.
 Iteration  1 RMS(Cart)=  0.00727135 RMS(Int)=  0.00004543
 Iteration  2 RMS(Cart)=  0.00004491 RMS(Int)=  0.00001513
 Iteration  3 RMS(Cart)=  0.00000000 RMS(Int)=  0.00001513
 Variable       Old X    -DE/DX   Delta X   Delta X   Delta X     New X
                                 (Linear)    (Quad)   (Total)
    R1        3.11677  -0.00089  -0.00706   0.00608  -0.00098   3.11579
    R2        2.76531  -0.00056  -0.00350   0.00337  -0.00013   2.76518
    R3        2.77467  -0.00080  -0.00336   0.00301  -0.00034   2.77433
    R4        2.77456  -0.00073  -0.00335   0.00305  -0.00030   2.77426
    R5        1.83002   0.00048   0.00014   0.00047   0.00060   1.83063
    A1        1.77638  -0.00259  -0.00233  -0.00413  -0.00647   1.76991
    A2        1.83750  -0.00320  -0.00363  -0.00470  -0.00834   1.82915
    A3        1.83789  -0.00309  -0.00348  -0.00455  -0.00805   1.82984
    A4        2.00101   0.00234   0.00256   0.00366   0.00619   2.00721
    A5        2.00054   0.00233   0.00259   0.00364   0.00620   2.00674
    A6        1.98069   0.00224   0.00210   0.00313   0.00520   1.98589
    A7        1.88311  -0.00034   0.00426  -0.00511  -0.00085   1.88226
    D1        3.13330  -0.00001  -0.00037  -0.00087  -0.00124   3.13205
    D2        1.04049  -0.00021  -0.00080  -0.00127  -0.00206   1.03842
    D3       -1.05745   0.00022   0.00013  -0.00044  -0.00031  -1.05776
         Item               Value     Threshold  Converged?
 Maximum Force            0.003200     0.000015     NO 
 RMS     Force            0.001735     0.000010     NO 
 Maximum Displacement     0.013653     0.000060     NO 
 RMS     Displacement     0.007299     0.000040     NO 
 Predicted change in Energy=-5.006386D-05
 GradGradGradGradGradGradGradGradGradGradGradGradGradGradGradGradGradGrad

                          Input orientation:                          
 ---------------------------------------------------------------------
 Center     Atomic      Atomic             Coordinates (Angstroms)
 Number     Number       Type             X           Y           Z
 ---------------------------------------------------------------------
      1         16           0        0.140873   -0.025278   -0.000648
      2          8           0       -1.437849    0.450249    0.007204
      3          1           0       -1.988046   -0.347064    0.009167
      4          8           0        0.831598    1.264607   -0.016566
      5          8           0        0.286450   -0.822313   -1.224943
      6          8           0        0.305914   -0.801660    1.234356
 ---------------------------------------------------------------------
                    Distance matrix (angstroms):
                    1          2          3          4          5
     1  S    0.000000
     2  O    1.648802   0.000000
     3  H    2.153123   0.968726   0.000000
     4  O    1.463270   2.411251   3.247852   0.000000
     5  O    1.468113   2.472004   2.631012   2.472367   0.000000
     6  O    1.468074   2.472628   2.640075   2.471964   2.459463
                    6
     6  O    0.000000
 Stoichiometry    HO4S(1-)
 Framework group  C1[X(HO4S)]
 Deg. of freedom    12
 Full point group                 C1      NOp   1
 Largest Abelian subgroup         C1      NOp   1
 Largest concise Abelian subgroup C1      NOp   1
                         Standard orientation:                         
 ---------------------------------------------------------------------
 Center     Atomic      Atomic             Coordinates (Angstroms)
 Number     Number       Type             X           Y           Z
 ---------------------------------------------------------------------
      1         16           0        0.137514   -0.025857   -0.000744
      2          8           0       -1.437424    0.462021    0.008933
      3          1           0       -1.993862   -0.330952    0.008809
      4          8           0        0.838338    1.258607   -0.013224
      5          8           0        0.276486   -0.820542   -1.227332
      6          8           0        0.296805   -0.807003    1.232009
 ---------------------------------------------------------------------
 Rotational constants (GHZ):      5.1472289      5.0473367      4.9761077
 Standard basis: def2SVP (5D, 7F)
 There are    84 symmetry adapted cartesian basis functions of A   symmetry.
 There are    79 symmetry adapted basis functions of A   symmetry.
    79 basis functions,   144 primitive gaussians,    84 cartesian basis functions
    25 alpha electrons       25 beta electrons
       nuclear repulsion energy       275.0772001583 Hartrees.
 NAtoms=    6 NActive=    6 NUniq=    6 SFac= 1.00D+00 NAtFMM=   60 NAOKFM=F Big=F
 Integral buffers will be    131072 words long.
 Raffenetti 2 integral format.
 Two-electron integral symmetry is turned on.
 ------------------------------------------------------------------------------
 Polarizable Continuum Model (PCM)
 =================================
 Model                : C-PCM.
 Atomic radii         : UFF (Universal Force Field).
 Polarization charges : Total charges.
 Charge compensation  : None.
 Solution method      : On-the-fly selection.
 Cavity type          : Scaled VdW (van der Waals Surface) (Alpha=1.100).
 Cavity algorithm     : GePol (No added spheres)
                        Default sphere list used, NSphG=    6.
                        Lebedev-Laikov grids with approx.  5.0 points / Ang**2.
                        Smoothing algorithm: Karplus/York (Gamma=1.0000).
                        Polarization charges: spherical gaussians, with
                                              point-specific exponents (IZeta= 3).
                        Self-potential: point-specific (ISelfS= 7).
                        Self-field    : sphere-specific E.n sum rule (ISelfD= 2).
 1st derivatives      : Analytical E(r).r(x)/FMM algorithm (CHGder, D1EAlg=3).
                        Cavity 1st derivative terms included.
 Solvent              : NitroMethane, Eps=  36.562000 Eps(inf)=   1.909095
 ------------------------------------------------------------------------------
 Spheres list:
 ISph  on   Nord     Re0    Alpha      Xe            Ye            Ze
    1   S      1    2.0175  1.100      0.137514     -0.025857     -0.000744
    2   O      2    1.7500  1.100     -1.437424      0.462021      0.008933
    3   H      3    1.4430  1.100     -1.993862     -0.330952      0.008809
    4   O      4    1.7500  1.100      0.838338      1.258607     -0.013224
    5   O      5    1.7500  1.100      0.276486     -0.820542     -1.227332
    6   O      6    1.7500  1.100      0.296805     -0.807003      1.232009
 ------------------------------------------------------------------------------
 One-electron integrals computed using PRISM.
   1 Symmetry operations used in ECPInt.
 ECPInt:  NShTT=     630 NPrTT=    2634 LenC2=     625 LenP2D=    2130.
 LDataN:  DoStor=T MaxTD1= 4 Len=   56
 NBasis=    79 RedAO= T EigKep=  8.06D-03  NBF=    79
 NBsUse=    79 1.00D-06 EigRej= -1.00D+00 NBFU=    79
 Initial guess from the checkpoint file:  "HSO4_opt_2.chk"
 B after Tr=     0.000000    0.000000    0.000000
         Rot=    0.999816   -0.000754   -0.000979    0.019120 Ang=  -2.20 deg.
 Keep R1 ints in memory in canonical form, NReq=8791231.
 Requested convergence on RMS density matrix=1.00D-08 within 128 cycles.
 Requested convergence on MAX density matrix=1.00D-06.
 Requested convergence on             energy=1.00D-06.
 No special actions if energy rises.
 Inv3:  Mode=1 IEnd=     2193075.
 Iteration    1 A*A^-1 deviation from unit magnitude is 3.22D-15 for    831.
 Iteration    1 A*A^-1 deviation from orthogonality  is 1.92D-15 for    711     91.
 Iteration    1 A^-1*A deviation from unit magnitude is 3.22D-15 for    831.
 Iteration    1 A^-1*A deviation from orthogonality  is 1.73D-15 for    836    592.
 Error on total polarization charges =  0.00227
 SCF Done:  E(RM062X) =  -699.295753552     A.U. after    9 cycles
            NFock=  9  Conv=0.86D-08     -V/T= 2.0039
   1 Symmetry operations used in ECPInt.
 ECPInt:  NShTT=     630 NPrTT=    2634 LenC2=     625 LenP2D=    2130.
 LDataN:  DoStor=T MaxTD1= 5 Len=  102
 D1PCM: C-PCM CHGder 1st derivatives, ID1Alg=3 FixD1E=F DoIter=F DoCFld=F I1PDM=0.
 Calling FoFJK, ICntrl=      2127 FMM=F ISym2X=0 I1Cent= 0 IOpClX= 0 NMat=1 NMatS=1 NMatT=0.
 ***** Axes restored to original set *****
 -------------------------------------------------------------------
 Center     Atomic                   Forces (Hartrees/Bohr)
 Number     Number              X              Y              Z
 -------------------------------------------------------------------
      1       16          -0.000432223    0.000009130    0.000019632
      2        8          -0.000762073    0.000382171   -0.000016017
      3        1           0.000151586   -0.000081079    0.000019247
      4        8           0.000233994   -0.001034461    0.000008905
      5        8           0.000417348    0.000364115    0.000805107
      6        8           0.000391369    0.000360125   -0.000836875
 -------------------------------------------------------------------
 Cartesian Forces:  Max     0.001034461 RMS     0.000471840

 GradGradGradGradGradGradGradGradGradGradGradGradGradGradGradGradGradGrad
 Berny optimization.
 Using GEDIIS/GDIIS optimizer.
 FormGI is forming the generalized inverse of G from B-inverse, IUseBI=4.
 Internal  Forces:  Max     0.001192219 RMS     0.000704476
 Search for a local minimum.
 Step number   4 out of a maximum of   25
 All quantities printed in internal units (Hartrees-Bohrs-Radians)
 Mixed Optimization -- En-DIIS/RFO-DIIS
 Update second derivatives using D2CorX and points    1    2    3    4
 DE= -5.01D-05 DEPred=-5.01D-05 R= 1.00D+00
 TightC=F SS=  1.41D+00  RLast= 1.70D-02 DXNew= 5.0454D-01 5.0935D-02
 Trust test= 1.00D+00 RLast= 1.70D-02 DXMaxT set to 3.00D-01
 The second derivative matrix:
                          R1        R2        R3        R4        R5
           R1           0.40603
           R2          -0.07341   0.93207
           R3          -0.06343  -0.03884   0.92419
           R4          -0.06439  -0.03886  -0.03121   0.92470
           R5          -0.00674  -0.00413  -0.00359  -0.00352   0.53581
           A1           0.02750  -0.01376  -0.01360  -0.01496  -0.00418
           A2           0.03440  -0.00460  -0.00566  -0.00692  -0.00346
           A3           0.03330  -0.00468  -0.00568  -0.00691  -0.00337
           A4          -0.02407   0.00627   0.00679   0.00778   0.00274
           A5          -0.02379   0.00631   0.00682   0.00780   0.00272
           A6          -0.02542   0.00604   0.00638   0.00742   0.00314
           A7           0.01888   0.02149   0.01938   0.01955   0.00095
           D1           0.00036   0.00027   0.00019   0.00019   0.00006
           D2           0.00471   0.00224   0.00202   0.00194  -0.00031
           D3          -0.00482  -0.00190  -0.00178  -0.00167   0.00046
                          A1        A2        A3        A4        A5
           A1           0.31134
           A2           0.05823   0.30400
           A3           0.05665   0.05257   0.30118
           A4          -0.04497  -0.04158  -0.04049   0.28214
           A5          -0.04465  -0.04121  -0.04012   0.03186   0.28157
           A6          -0.04736  -0.04546  -0.04421   0.03486   0.03461
           A7          -0.00469  -0.00591  -0.00575   0.00389   0.00378
           D1          -0.00009  -0.00020  -0.00019   0.00014   0.00014
           D2           0.00416   0.00474   0.00459  -0.00347  -0.00346
           D3          -0.00512  -0.00607  -0.00587   0.00442   0.00442
                          A6        A7        D1        D2        D3
           A6           0.28704
           A7           0.00493   0.15679
           D1           0.00007  -0.00012   0.02341
           D2          -0.00351  -0.00139   0.00001   0.02375
           D3           0.00434   0.00154  -0.00003  -0.00037   0.02381
 ITU=  1  0  1  0
 Use linear search instead of GDIIS.
     Eigenvalues ---    0.02339   0.15142   0.17525   0.17907   0.24934
     Eigenvalues ---    0.25000   0.35976   0.52437   0.54628   0.89054
     Eigenvalues ---    0.95566   0.97107
 RFO step:  Lambda=-3.91255543D-06 EMin= 2.33904377D-02
 Quartic linear search produced a step of -0.16879.
 Iteration  1 RMS(Cart)=  0.00156029 RMS(Int)=  0.00000467
 Iteration  2 RMS(Cart)=  0.00000254 RMS(Int)=  0.00000398
 Iteration  3 RMS(Cart)=  0.00000000 RMS(Int)=  0.00000398
 Variable       Old X    -DE/DX   Delta X   Delta X   Delta X     New X
                                 (Linear)    (Quad)   (Total)
    R1        3.11579   0.00065   0.00017   0.00062   0.00078   3.11657
    R2        2.76518  -0.00079   0.00002  -0.00077  -0.00075   2.76443
    R3        2.77433  -0.00083   0.00006  -0.00087  -0.00081   2.77352
    R4        2.77426  -0.00086   0.00005  -0.00088  -0.00082   2.77343
    R5        1.83063   0.00002  -0.00010   0.00022   0.00011   1.83074
    A1        1.76991   0.00119   0.00109   0.00106   0.00216   1.77207
    A2        1.82915   0.00092   0.00141  -0.00061   0.00080   1.82995
    A3        1.82984   0.00090   0.00136  -0.00055   0.00081   1.83065
    A4        2.00721  -0.00077  -0.00105   0.00016  -0.00088   2.00633
    A5        2.00674  -0.00077  -0.00105   0.00018  -0.00086   2.00587
    A6        1.98589  -0.00075  -0.00088  -0.00025  -0.00112   1.98477
    A7        1.88226  -0.00038   0.00014  -0.00235  -0.00221   1.88005
    D1        3.13205   0.00001   0.00021  -0.00153  -0.00132   3.13073
    D2        1.03842   0.00001   0.00035  -0.00192  -0.00158   1.03685
    D3       -1.05776   0.00002   0.00005  -0.00110  -0.00105  -1.05880
         Item               Value     Threshold  Converged?
 Maximum Force            0.001192     0.000015     NO 
 RMS     Force            0.000704     0.000010     NO 
 Maximum Displacement     0.002676     0.000060     NO 
 RMS     Displacement     0.001560     0.000040     NO 
 Predicted change in Energy=-5.445727D-06
 GradGradGradGradGradGradGradGradGradGradGradGradGradGradGradGradGradGrad

                          Input orientation:                          
 ---------------------------------------------------------------------
 Center     Atomic      Atomic             Coordinates (Angstroms)
 Number     Number       Type             X           Y           Z
 ---------------------------------------------------------------------
      1         16           0        0.139946   -0.024622   -0.000536
      2          8           0       -1.439265    0.450707    0.007638
      3          1           0       -1.987577   -0.347979    0.008529
      4          8           0        0.833006    1.263559   -0.016667
      5          8           0        0.286421   -0.821929   -1.224031
      6          8           0        0.306409   -0.801196    1.233637
 ---------------------------------------------------------------------
                    Distance matrix (angstroms):
                    1          2          3          4          5
     1  S    0.000000
     2  O    1.649216   0.000000
     3  H    2.151976   0.968786   0.000000
     4  O    1.462875   2.413407   3.248597   0.000000
     5  O    1.467683   2.472772   2.629620   2.470980   0.000000
     6  O    1.467638   2.473401   2.639824   2.470582   2.457837
                    6
     6  O    0.000000
 Stoichiometry    HO4S(1-)
 Framework group  C1[X(HO4S)]
 Deg. of freedom    12
 Full point group                 C1      NOp   1
 Largest Abelian subgroup         C1      NOp   1
 Largest concise Abelian subgroup C1      NOp   1
                         Standard orientation:                         
 ---------------------------------------------------------------------
 Center     Atomic      Atomic             Coordinates (Angstroms)
 Number     Number       Type             X           Y           Z
 ---------------------------------------------------------------------
      1         16           0        0.136820   -0.025372   -0.000771
      2          8           0       -1.438824    0.461609    0.009517
      3          1           0       -1.993033   -0.332997    0.008747
      4          8           0        0.839387    1.257681   -0.014111
      5          8           0        0.276689   -0.820695   -1.226329
      6          8           0        0.298236   -0.806225    1.231371
 ---------------------------------------------------------------------
 Rotational constants (GHZ):      5.1527731      5.0464565      4.9741623
 Standard basis: def2SVP (5D, 7F)
 There are    84 symmetry adapted cartesian basis functions of A   symmetry.
 There are    79 symmetry adapted basis functions of A   symmetry.
    79 basis functions,   144 primitive gaussians,    84 cartesian basis functions
    25 alpha electrons       25 beta electrons
       nuclear repulsion energy       275.1125550522 Hartrees.
 NAtoms=    6 NActive=    6 NUniq=    6 SFac= 1.00D+00 NAtFMM=   60 NAOKFM=F Big=F
 Integral buffers will be    131072 words long.
 Raffenetti 2 integral format.
 Two-electron integral symmetry is turned on.
 ------------------------------------------------------------------------------
 Polarizable Continuum Model (PCM)
 =================================
 Model                : C-PCM.
 Atomic radii         : UFF (Universal Force Field).
 Polarization charges : Total charges.
 Charge compensation  : None.
 Solution method      : On-the-fly selection.
 Cavity type          : Scaled VdW (van der Waals Surface) (Alpha=1.100).
 Cavity algorithm     : GePol (No added spheres)
                        Default sphere list used, NSphG=    6.
                        Lebedev-Laikov grids with approx.  5.0 points / Ang**2.
                        Smoothing algorithm: Karplus/York (Gamma=1.0000).
                        Polarization charges: spherical gaussians, with
                                              point-specific exponents (IZeta= 3).
                        Self-potential: point-specific (ISelfS= 7).
                        Self-field    : sphere-specific E.n sum rule (ISelfD= 2).
 1st derivatives      : Analytical E(r).r(x)/FMM algorithm (CHGder, D1EAlg=3).
                        Cavity 1st derivative terms included.
 Solvent              : NitroMethane, Eps=  36.562000 Eps(inf)=   1.909095
 ------------------------------------------------------------------------------
 Spheres list:
 ISph  on   Nord     Re0    Alpha      Xe            Ye            Ze
    1   S      1    2.0175  1.100      0.136820     -0.025372     -0.000771
    2   O      2    1.7500  1.100     -1.438824      0.461609      0.009517
    3   H      3    1.4430  1.100     -1.993033     -0.332997      0.008747
    4   O      4    1.7500  1.100      0.839387      1.257681     -0.014111
    5   O      5    1.7500  1.100      0.276689     -0.820695     -1.226329
    6   O      6    1.7500  1.100      0.298236     -0.806225      1.231371
 ------------------------------------------------------------------------------
 One-electron integrals computed using PRISM.
   1 Symmetry operations used in ECPInt.
 ECPInt:  NShTT=     630 NPrTT=    2634 LenC2=     625 LenP2D=    2130.
 LDataN:  DoStor=T MaxTD1= 4 Len=   56
 NBasis=    79 RedAO= T EigKep=  8.07D-03  NBF=    79
 NBsUse=    79 1.00D-06 EigRej= -1.00D+00 NBFU=    79
 Initial guess from the checkpoint file:  "HSO4_opt_2.chk"
 B after Tr=     0.000000    0.000000    0.000000
         Rot=    1.000000    0.000187   -0.000229   -0.000098 Ang=   0.04 deg.
 Keep R1 ints in memory in canonical form, NReq=8791259.
 Requested convergence on RMS density matrix=1.00D-08 within 128 cycles.
 Requested convergence on MAX density matrix=1.00D-06.
 Requested convergence on             energy=1.00D-06.
 No special actions if energy rises.
 Inv3:  Mode=1 IEnd=     2193075.
 Iteration    1 A*A^-1 deviation from unit magnitude is 3.00D-15 for    829.
 Iteration    1 A*A^-1 deviation from orthogonality  is 1.55D-15 for    712    455.
 Iteration    1 A^-1*A deviation from unit magnitude is 3.22D-15 for    829.
 Iteration    1 A^-1*A deviation from orthogonality  is 1.71D-15 for    712    455.
 Error on total polarization charges =  0.00227
 SCF Done:  E(RM062X) =  -699.295759417     A.U. after    8 cycles
            NFock=  8  Conv=0.70D-08     -V/T= 2.0039
   1 Symmetry operations used in ECPInt.
 ECPInt:  NShTT=     630 NPrTT=    2634 LenC2=     625 LenP2D=    2130.
 LDataN:  DoStor=T MaxTD1= 5 Len=  102
 D1PCM: C-PCM CHGder 1st derivatives, ID1Alg=3 FixD1E=F DoIter=F DoCFld=F I1PDM=0.
 Calling FoFJK, ICntrl=      2127 FMM=F ISym2X=0 I1Cent= 0 IOpClX= 0 NMat=1 NMatS=1 NMatT=0.
 ***** Axes restored to original set *****
 -------------------------------------------------------------------
 Center     Atomic                   Forces (Hartrees/Bohr)
 Number     Number              X              Y              Z
 -------------------------------------------------------------------
      1       16           0.000012476   -0.000188466    0.000018627
      2        8          -0.000352971    0.000243747   -0.000028455
      3        1           0.000056436    0.000020138    0.000022497
      4        8           0.000026719   -0.000368732    0.000011433
      5        8           0.000131502    0.000142022    0.000213731
      6        8           0.000125837    0.000151291   -0.000237833
 -------------------------------------------------------------------
 Cartesian Forces:  Max     0.000368732 RMS     0.000173232

 GradGradGradGradGradGradGradGradGradGradGradGradGradGradGradGradGradGrad
 Berny optimization.
 Using GEDIIS/GDIIS optimizer.
 FormGI is forming the generalized inverse of G from B-inverse, IUseBI=4.
 Internal  Forces:  Max     0.000341586 RMS     0.000227328
 Search for a local minimum.
 Step number   5 out of a maximum of   25
 All quantities printed in internal units (Hartrees-Bohrs-Radians)
 Mixed Optimization -- En-DIIS/RFO-DIIS
 Swapping is turned off.
 Update second derivatives using D2CorX and points    1    2    3    4    5
 DE= -5.86D-06 DEPred=-5.45D-06 R= 1.08D+00
 TightC=F SS=  1.41D+00  RLast= 4.63D-03 DXNew= 5.0454D-01 1.3899D-02
 Trust test= 1.08D+00 RLast= 4.63D-03 DXMaxT set to 3.00D-01
 The second derivative matrix:
                          R1        R2        R3        R4        R5
           R1           0.36233
           R2          -0.03124   0.88837
           R3          -0.02121  -0.08174   0.88337
           R4          -0.02013  -0.08386  -0.07437   0.87914
           R5          -0.01015  -0.00113  -0.00075  -0.00048   0.53542
           A1           0.00397   0.00742  -0.00088   0.00037  -0.00334
           A2           0.02488   0.00623   0.00043   0.00049  -0.00250
           A3           0.02263   0.00724   0.00184   0.00192  -0.00260
           A4          -0.01377  -0.00456   0.00011  -0.00015   0.00213
           A5          -0.01304  -0.00514  -0.00072  -0.00097   0.00222
           A6          -0.01081  -0.00737  -0.00218  -0.00269   0.00260
           A7           0.04420  -0.00550  -0.00685  -0.00807   0.00300
           D1           0.00342  -0.00273  -0.00301  -0.00311   0.00033
           D2           0.00094   0.00568   0.00675   0.00659  -0.00079
           D3           0.00623  -0.01242  -0.01421  -0.01424   0.00160
                          A1        A2        A3        A4        A5
           A1           0.33684
           A2           0.07007   0.30909
           A3           0.06632   0.05662   0.30423
           A4          -0.05560  -0.04619  -0.04411   0.28632
           A5          -0.05382  -0.04513  -0.04310   0.03539   0.28448
           A6          -0.05975  -0.05111  -0.04864   0.03984   0.03878
           A7           0.00500  -0.00321  -0.00214  -0.00005  -0.00061
           D1           0.00271   0.00114   0.00118  -0.00116  -0.00116
           D2          -0.00527   0.00002   0.00008   0.00093   0.00074
           D3           0.01189   0.00232   0.00233  -0.00351  -0.00329
                          A6        A7        D1        D2        D3
           A6           0.29288
           A7          -0.00074   0.14265
           D1          -0.00159  -0.00207   0.02323
           D2           0.00185   0.00119   0.00005   0.02472
           D3          -0.00550  -0.00563  -0.00047  -0.00138   0.02397
 ITU=  1  1  0  1  0
     Eigenvalues ---    0.02224   0.13349   0.17874   0.17907   0.24987
     Eigenvalues ---    0.25169   0.36120   0.53402   0.56975   0.72959
     Eigenvalues ---    0.95566   0.97201
 En-DIIS/RFO-DIIS IScMMF=        0 using points:     5    4
 RFO step:  Lambda=-1.08566177D-06.
 DidBck=F Rises=F RFO-DIIS coefs:    1.39833   -0.39833
 Iteration  1 RMS(Cart)=  0.00067031 RMS(Int)=  0.00000056
 Iteration  2 RMS(Cart)=  0.00000038 RMS(Int)=  0.00000046
 Variable       Old X    -DE/DX   Delta X   Delta X   Delta X     New X
                                 (Linear)    (Quad)   (Total)
    R1        3.11657   0.00034   0.00031   0.00057   0.00088   3.11745
    R2        2.76443  -0.00030  -0.00030  -0.00011  -0.00041   2.76402
    R3        2.77352  -0.00025  -0.00032  -0.00003  -0.00035   2.77317
    R4        2.77343  -0.00027  -0.00033  -0.00005  -0.00038   2.77305
    R5        1.83074  -0.00001   0.00005  -0.00003   0.00001   1.83075
    A1        1.77207   0.00021   0.00086  -0.00073   0.00013   1.77220
    A2        1.82995   0.00032   0.00032   0.00036   0.00068   1.83063
    A3        1.83065   0.00032   0.00032   0.00041   0.00073   1.83138
    A4        2.00633  -0.00025  -0.00035  -0.00027  -0.00062   2.00571
    A5        2.00587  -0.00026  -0.00034  -0.00036  -0.00071   2.00517
    A6        1.98477  -0.00015  -0.00045   0.00059   0.00014   1.98491
    A7        1.88005  -0.00013  -0.00088  -0.00035  -0.00123   1.87882
    D1        3.13073   0.00002  -0.00053   0.00056   0.00004   3.13077
    D2        1.03685   0.00008  -0.00063   0.00103   0.00040   1.03725
    D3       -1.05880  -0.00005  -0.00042   0.00001  -0.00041  -1.05921
         Item               Value     Threshold  Converged?
 Maximum Force            0.000342     0.000015     NO 
 RMS     Force            0.000227     0.000010     NO 
 Maximum Displacement     0.001305     0.000060     NO 
 RMS     Displacement     0.000670     0.000040     NO 
 Predicted change in Energy=-8.139817D-07
 GradGradGradGradGradGradGradGradGradGradGradGradGradGradGradGradGradGrad

                          Input orientation:                          
 ---------------------------------------------------------------------
 Center     Atomic      Atomic             Coordinates (Angstroms)
 Number     Number       Type             X           Y           Z
 ---------------------------------------------------------------------
      1         16           0        0.139557   -0.024785   -0.000533
      2          8           0       -1.439955    0.451167    0.007624
      3          1           0       -1.987534   -0.348031    0.008518
      4          8           0        0.833079    1.262901   -0.016627
      5          8           0        0.286874   -0.821740   -1.223933
      6          8           0        0.306920   -0.800972    1.233521
 ---------------------------------------------------------------------
                    Distance matrix (angstroms):
                    1          2          3          4          5
     1  S    0.000000
     2  O    1.649683   0.000000
     3  H    2.151530   0.968793   0.000000
     4  O    1.462658   2.413750   3.248321   0.000000
     5  O    1.467496   2.473654   2.629879   2.470153   0.000000
     6  O    1.467435   2.474318   2.640134   2.469673   2.457624
                    6
     6  O    0.000000
 Stoichiometry    HO4S(1-)
 Framework group  C1[X(HO4S)]
 Deg. of freedom    12
 Full point group                 C1      NOp   1
 Largest Abelian subgroup         C1      NOp   1
 Largest concise Abelian subgroup C1      NOp   1
                         Standard orientation:                         
 ---------------------------------------------------------------------
 Center     Atomic      Atomic             Coordinates (Angstroms)
 Number     Number       Type             X           Y           Z
 ---------------------------------------------------------------------
      1         16           0        0.136655   -0.024670   -0.000779
      2          8           0       -1.442271    0.453187    0.009399
      3          1           0       -1.990819   -0.345346    0.009578
      4          8           0        0.831728    1.262196   -0.015562
      5          8           0        0.281981   -0.820004   -1.225471
      6          8           0        0.304105   -0.802871    1.231994
 ---------------------------------------------------------------------
 Rotational constants (GHZ):      5.1555180      5.0442134      4.9737102
 Standard basis: def2SVP (5D, 7F)
 There are    84 symmetry adapted cartesian basis functions of A   symmetry.
 There are    79 symmetry adapted basis functions of A   symmetry.
    79 basis functions,   144 primitive gaussians,    84 cartesian basis functions
    25 alpha electrons       25 beta electrons
       nuclear repulsion energy       275.1194326573 Hartrees.
 NAtoms=    6 NActive=    6 NUniq=    6 SFac= 1.00D+00 NAtFMM=   60 NAOKFM=F Big=F
 Integral buffers will be    131072 words long.
 Raffenetti 2 integral format.
 Two-electron integral symmetry is turned on.
 ------------------------------------------------------------------------------
 Polarizable Continuum Model (PCM)
 =================================
 Model                : C-PCM.
 Atomic radii         : UFF (Universal Force Field).
 Polarization charges : Total charges.
 Charge compensation  : None.
 Solution method      : On-the-fly selection.
 Cavity type          : Scaled VdW (van der Waals Surface) (Alpha=1.100).
 Cavity algorithm     : GePol (No added spheres)
                        Default sphere list used, NSphG=    6.
                        Lebedev-Laikov grids with approx.  5.0 points / Ang**2.
                        Smoothing algorithm: Karplus/York (Gamma=1.0000).
                        Polarization charges: spherical gaussians, with
                                              point-specific exponents (IZeta= 3).
                        Self-potential: point-specific (ISelfS= 7).
                        Self-field    : sphere-specific E.n sum rule (ISelfD= 2).
 1st derivatives      : Analytical E(r).r(x)/FMM algorithm (CHGder, D1EAlg=3).
                        Cavity 1st derivative terms included.
 Solvent              : NitroMethane, Eps=  36.562000 Eps(inf)=   1.909095
 ------------------------------------------------------------------------------
 Spheres list:
 ISph  on   Nord     Re0    Alpha      Xe            Ye            Ze
    1   S      1    2.0175  1.100      0.136655     -0.024670     -0.000779
    2   O      2    1.7500  1.100     -1.442271      0.453187      0.009399
    3   H      3    1.4430  1.100     -1.990819     -0.345346      0.009578
    4   O      4    1.7500  1.100      0.831728      1.262196     -0.015562
    5   O      5    1.7500  1.100      0.281981     -0.820004     -1.225471
    6   O      6    1.7500  1.100      0.304105     -0.802871      1.231994
 ------------------------------------------------------------------------------
 One-electron integrals computed using PRISM.
   1 Symmetry operations used in ECPInt.
 ECPInt:  NShTT=     630 NPrTT=    2634 LenC2=     625 LenP2D=    2130.
 LDataN:  DoStor=T MaxTD1= 4 Len=   56
 NBasis=    79 RedAO= T EigKep=  8.07D-03  NBF=    79
 NBsUse=    79 1.00D-06 EigRej= -1.00D+00 NBFU=    79
 Initial guess from the checkpoint file:  "HSO4_opt_2.chk"
[...]
 ECPInt:  NShTT=     630 NPrTT=    2634 LenC2=     625 LenP2D=    2130.
 LDataN:  DoStor=T MaxTD1= 6 Len=  172
 D2PCM: C-PCM CHGder 2nd derivatives, FixD1E=F FixD2E=F DoIter=F DoCFld=F I1PDM=0
 Calling FoFJK, ICntrl=    100127 FMM=F ISym2X=0 I1Cent= 0 IOpClX= 0 NMat=1 NMatS=1 NMatT=0.
 Full mass-weighted force constant matrix:
 Low frequencies ---  -25.5281  -19.2580   -8.7155    0.0013    0.0027    0.0031
 Low frequencies ---  150.8166  398.1156  420.9935
 Diagonal vibrational polarizability:
       29.4474600      14.1074095     172.3866685
 Harmonic frequencies (cm**-1), IR intensities (KM/Mole), Raman scattering
 activities (A**4/AMU), depolarization ratios for plane and unpolarized
 incident light, reduced masses (AMU), force constants (mDyne/A),
 and normal coordinates:
                      1                      2                      3
                      A                      A                      A
 Frequencies --    150.7767               398.1155               420.9927
 Red. masses --      1.1411                 8.1797                 7.7453
 Frc consts  --      0.0153                 0.7638                 0.8088
 IR Inten    --    129.3339                 7.7133                18.8335
  Atom  AN      X      Y      Z        X      Y      Z        X      Y      Z
     1  16     0.00   0.00  -0.01    -0.02  -0.05   0.00     0.00   0.00  -0.02
     2   8     0.00   0.00   0.00     0.12   0.37   0.00     0.00   0.00   0.41
     3   1     0.00   0.00   1.00    -0.31   0.66   0.00     0.00   0.00  -0.74
     4   8     0.00   0.00  -0.02    -0.36   0.13   0.00     0.00   0.00  -0.29
     5   8     0.06   0.01  -0.01     0.15  -0.22   0.13     0.31   0.05  -0.02
     6   8    -0.06  -0.01  -0.01     0.15  -0.22  -0.13    -0.31  -0.05  -0.02
                      4                      5                      6
                      A                      A                      A
 Frequencies --    547.0095               565.8797               570.3999
 Red. masses --      8.9295                17.8751                15.9667
 Frc consts  --      1.5742                 3.3725                 3.0607
 IR Inten    --     83.8588                88.1696                53.5801
  Atom  AN      X      Y      Z        X      Y      Z        X      Y      Z
     1  16     0.13   0.19   0.00     0.00   0.00  -0.34     0.22  -0.19   0.00
     2   8     0.10  -0.17   0.00     0.00   0.00   0.35     0.51  -0.03   0.00
     3   1     0.55  -0.48   0.00     0.00   0.00  -0.03     0.26   0.15   0.00
     4   8     0.05   0.27   0.00     0.00   0.00   0.57    -0.40   0.14   0.00
     5   8    -0.23  -0.22   0.23     0.07  -0.44  -0.12    -0.28   0.13  -0.31
     6   8    -0.23  -0.22  -0.23    -0.07   0.44  -0.12    -0.28   0.13   0.31
                      7                      8                      9
                      A                      A                      A
 Frequencies --    787.5204              1077.5855              1124.2896
 Red. masses --     17.1334                15.7317                 1.2457
 Frc consts  --      6.2606                10.7629                 0.9277
 IR Inten    --    375.2547               155.4407                84.2987
  Atom  AN      X      Y      Z        X      Y      Z        X      Y      Z
     1  16     0.45  -0.12   0.00    -0.21   0.07   0.00    -0.01   0.02   0.00
     2   8    -0.71   0.21   0.00     0.02  -0.03   0.00    -0.02   0.08   0.00
     3   1    -0.39  -0.01   0.00    -0.23   0.13   0.00     0.84  -0.53   0.00
     4   8    -0.02   0.16   0.00     0.28   0.47   0.00    -0.04  -0.05   0.00
     5   8    -0.07  -0.07  -0.13     0.07  -0.29  -0.45     0.02  -0.02  -0.04
     6   8    -0.07  -0.07   0.13     0.07  -0.29   0.45     0.02  -0.02   0.04
                     10                     11                     12
                      A                      A                      A
 Frequencies --   1276.3806              1305.5220              3836.3290
 Red. masses --     20.5083                 9.9413                 1.0662
 Frc consts  --     19.6852                 9.9830                 9.2449
 IR Inten    --    545.8439               528.5336               134.5037
  Atom  AN      X      Y      Z        X      Y      Z        X      Y      Z
     1  16     0.00   0.00   0.53     0.11   0.36   0.00     0.00   0.00   0.00
     2   8     0.00   0.00  -0.02     0.01  -0.07   0.00    -0.04  -0.05   0.00
     3   1     0.00   0.00   0.06    -0.63   0.39   0.00     0.58   0.82   0.00
     4   8     0.00   0.00  -0.03    -0.20  -0.41   0.00     0.00   0.00   0.00
     5   8     0.06  -0.30  -0.51     0.01  -0.13  -0.17     0.00   0.00   0.00
     6   8    -0.06   0.30  -0.51     0.01  -0.13   0.17     0.00   0.00   0.00

 -------------------
 - Thermochemistry -
 -------------------
 Temperature   298.150 Kelvin.  Pressure   1.00000 Atm.
 Atom     1 has atomic number 16 and mass  31.97207
 Atom     2 has atomic number  8 and mass  15.99491
 Atom     3 has atomic number  1 and mass   1.00783
 Atom     4 has atomic number  8 and mass  15.99491
 Atom     5 has atomic number  8 and mass  15.99491
 Atom     6 has atomic number  8 and mass  15.99491
 Molecular mass:    96.95956 amu.
 Principal axes and moments of inertia in atomic units:
                           1         2         3
     Eigenvalues --   350.06673 357.77132 362.89723
           X            0.94187   0.33598   0.00001
           Y           -0.33598   0.94187   0.00001
           Z           -0.00001  -0.00001   1.00000
 This molecule is an asymmetric top.
 Rotational symmetry number  1.
 Rotational temperatures (Kelvin)      0.24742     0.24209     0.23867
 Rotational constants (GHZ):           5.15542     5.04440     4.97315
 Zero-point vibrational energy      72139.6 (Joules/Mol)
                                   17.24178 (Kcal/Mol)
 Warning -- explicit consideration of   6 degrees of freedom as
           vibrations may cause significant error
 Vibrational temperatures:    216.93   572.80   605.71   787.02   814.17
          (Kelvin)            820.68  1133.06  1550.40  1617.60  1836.42
                             1878.35  5519.61
 
 Zero-point correction=                           0.027477 (Hartree/Particle)
 Thermal correction to Energy=                    0.032255
 Thermal correction to Enthalpy=                  0.033200
 Thermal correction to Gibbs Free Energy=        -0.000741
 Sum of electronic and zero-point Energies=           -699.268281
 Sum of electronic and thermal Energies=              -699.263503
 Sum of electronic and thermal Enthalpies=            -699.262558
 Sum of electronic and thermal Free Energies=         -699.296499
 
                     E (Thermal)             CV                S
                      KCal/Mol        Cal/Mol-Kelvin    Cal/Mol-Kelvin
 Total                   20.241             15.645             71.434
 Electronic               0.000              0.000              0.000
 Translational            0.889              2.981             39.626
 Rotational               0.889              2.981             25.322
 Vibrational             18.463              9.684              6.486
 Vibration     1          0.618              1.902              2.662
 Vibration     2          0.764              1.474              0.970
 Vibration     3          0.783              1.425              0.889
 Vibration     4          0.902              1.146              0.550
 Vibration     5          0.922              1.105              0.512
 Vibration     6          0.927              1.095              0.503
                       Q            Log10(Q)             Ln(Q)
 Total Bot       0.219249D+01          0.340938          0.785038
 Total V=0       0.953313D+13         12.979236         29.885794
 Vib (Bot)       0.765561D-12        -12.116020        -27.898167
 Vib (Bot)    1  0.134453D+01          0.128570          0.296043
 Vib (Bot)    2  0.448317D+00         -0.348415         -0.802255
 Vib (Bot)    3  0.416768D+00         -0.380106         -0.875227
 Vib (Bot)    4  0.287715D+00         -0.541038         -1.245786
 Vib (Bot)    5  0.273081D+00         -0.563708         -1.297985
 Vib (Bot)    6  0.269714D+00         -0.569097         -1.310395
 Vib (V=0)       0.332873D+01          0.522278          1.202590
 Vib (V=0)    1  0.193449D+01          0.286566          0.659842
 Vib (V=0)    2  0.117156D+01          0.068763          0.158333
 Vib (V=0)    3  0.115092D+01          0.061045          0.140561
 Vib (V=0)    4  0.107687D+01          0.032164          0.074059
 Vib (V=0)    5  0.106971D+01          0.029267          0.067391
 Vib (V=0)    6  0.106811D+01          0.028615          0.065888
 Electronic      0.100000D+01          0.000000          0.000000
 Translational   0.375268D+08          7.574341         17.440565
 Rotational      0.763161D+05          4.882616         11.242640
 ***** Axes restored to original set *****
 -------------------------------------------------------------------
 Center     Atomic                   Forces (Hartrees/Bohr)
 Number     Number              X              Y              Z
 -------------------------------------------------------------------
      1       16           0.000000169   -0.000014084   -0.000000978
      2        8           0.000014787    0.000033150   -0.000000262
      3        1          -0.000008784    0.000048978   -0.000000381
      4        8           0.000038707   -0.000032863    0.000000080
      5        8          -0.000022486   -0.000017314    0.000000977
      6        8          -0.000022393   -0.000017866    0.000000564
 -------------------------------------------------------------------
 Cartesian Forces:  Max     0.000048978 RMS     0.000021342
 FormGI is forming the generalized inverse of G from B-inverse, IUseBI=4.

 GradGradGradGradGradGradGradGradGradGradGradGradGradGradGradGradGradGrad
 Berny optimization.
 Internal  Forces:  Max     0.000000839 RMS     0.000000310
 Search for a local minimum.
 Step number   1 out of a maximum of    2
 All quantities printed in internal units (Hartrees-Bohrs-Radians)
 Second derivative matrix not updated -- analytic derivatives used.
 The second derivative matrix:
                          R1        R2        R3        R4        R5
           R1           0.27055
           R2           0.02173   0.62126
           R3           0.02252   0.02031   0.60754
           R4           0.02252   0.02031   0.02239   0.60754
           R5           0.00293  -0.00485  -0.00311  -0.00311   0.52880
           A1           0.04230   0.01983  -0.02055  -0.02055   0.00591
           A2           0.03369  -0.02163   0.01861  -0.02256  -0.00930
           A3           0.03369  -0.02163  -0.02256   0.01861  -0.00930
           A4          -0.02606   0.01783   0.01615  -0.01709   0.00350
           A5          -0.02606   0.01783  -0.01709   0.01615   0.00350
           A6          -0.03146  -0.01717   0.01929   0.01929   0.00270
           A7           0.03513   0.00877  -0.00006  -0.00006   0.01448
           D1           0.00000   0.00000   0.01848  -0.01848   0.00000
           D2          -0.00227  -0.01971   0.00211   0.01793  -0.00276
           D3           0.00227   0.01971  -0.01793  -0.00211   0.00276
                          A1        A2        A3        A4        A5
           A1           0.33123
           A2           0.00591   0.30813
           A3           0.00591   0.01346   0.30814
           A4          -0.09300  -0.08172  -0.07465   0.17609
           A5          -0.09300  -0.07465  -0.08172   0.00766   0.17609
           A6          -0.07576  -0.09334  -0.09334   0.00786   0.00786
           A7           0.03348  -0.01736  -0.01736   0.00212   0.00212
           D1           0.00000   0.03243  -0.03243   0.06279  -0.06279
           D2          -0.04019   0.00035   0.04235  -0.06058  -0.00271
           D3           0.04019  -0.04235  -0.00035   0.00271   0.06058
                          A6        A7        D1        D2        D3
           A6           0.18165
           A7          -0.00317   0.14507
           D1           0.00000   0.00000   0.05551
           D2           0.05982  -0.00981  -0.02652   0.05739
           D3          -0.05982   0.00981  -0.02652  -0.03011   0.05739
 ITU=  0
     Eigenvalues ---    0.00102   0.12658   0.22706   0.23300   0.25088
     Eigenvalues ---    0.30524   0.33969   0.52751   0.54983   0.59773
     Eigenvalues ---    0.61092   0.66294
 Angle between quadratic step and forces=  84.16 degrees.
 Linear search not attempted -- first point.
 Iteration  1 RMS(Cart)=  0.00000639 RMS(Int)=  0.00000000
 Iteration  2 RMS(Cart)=  0.00000000 RMS(Int)=  0.00000000
 Variable       Old X    -DE/DX   Delta X   Delta X   Delta X     New X
                                 (Linear)    (Quad)   (Total)
    R1        3.11781   0.00000   0.00000   0.00000   0.00000   3.11781
    R2        2.76399   0.00000   0.00000   0.00000   0.00000   2.76400
    R3        2.77304   0.00000   0.00000   0.00000   0.00000   2.77304
    R4        2.77304   0.00000   0.00000   0.00000   0.00000   2.77304
    R5        1.83076   0.00000   0.00000   0.00000   0.00000   1.83076
    A1        1.77239   0.00000   0.00000   0.00000   0.00000   1.77239
    A2        1.83080   0.00000   0.00000   0.00000   0.00000   1.83080
    A3        1.83080   0.00000   0.00000   0.00000   0.00000   1.83080
    A4        2.00561   0.00000   0.00000   0.00000   0.00000   2.00561
    A5        2.00561   0.00000   0.00000   0.00000   0.00000   2.00561
    A6        1.98475   0.00000   0.00000   0.00000   0.00000   1.98475
    A7        1.87898   0.00000   0.00000   0.00000   0.00000   1.87898
    D1       -3.14158   0.00000   0.00000  -0.00002  -0.00002   3.14159
    D2        1.04806   0.00000   0.00000  -0.00002  -0.00002   1.04804
    D3       -1.04803   0.00000   0.00000  -0.00002  -0.00002  -1.04805
         Item               Value     Threshold  Converged?
 Maximum Force            0.000001     0.000015     YES
 RMS     Force            0.000000     0.000010     YES
 Maximum Displacement     0.000018     0.000060     YES
 RMS     Displacement     0.000006     0.000040     YES
 Predicted change in Energy=-2.000777D-12
 Optimization completed.
    -- Stationary point found.
                           ----------------------------
                           !   Optimized Parameters   !
                           ! (Angstroms and Degrees)  !
 --------------------------                            --------------------------
 ! Name  Definition              Value          Derivative Info.                !
 --------------------------------------------------------------------------------
 ! R1    R(1,2)                  1.6499         -DE/DX =    0.0                 !
 ! R2    R(1,4)                  1.4626         -DE/DX =    0.0                 !
 ! R3    R(1,5)                  1.4674         -DE/DX =    0.0                 !
 ! R4    R(1,6)                  1.4674         -DE/DX =    0.0                 !
 ! R5    R(2,3)                  0.9688         -DE/DX =    0.0                 !
 ! A1    A(2,1,4)              101.5504         -DE/DX =    0.0                 !
 ! A2    A(2,1,5)              104.8969         -DE/DX =    0.0                 !
 ! A3    A(2,1,6)              104.8968         -DE/DX =    0.0                 !
 ! A4    A(4,1,5)              114.9129         -DE/DX =    0.0                 !
 ! A5    A(4,1,6)              114.913          -DE/DX =    0.0                 !
 ! A6    A(5,1,6)              113.7179         -DE/DX =    0.0                 !
 ! A7    A(1,2,3)              107.6577         -DE/DX =    0.0                 !
 ! D1    D(4,1,2,3)            180.0009         -DE/DX =    0.0                 !
 ! D2    D(5,1,2,3)             60.0494         -DE/DX =    0.0                 !
 ! D3    D(6,1,2,3)            -60.0476         -DE/DX =    0.0                 !
 --------------------------------------------------------------------------------
 GradGradGradGradGradGradGradGradGradGradGradGradGradGradGradGradGradGrad

 1\1\GINC-D8S1B3\Freq\RM062X\def2SVP\H1O4S1(1-)\PMMASS\28-Sep-2022\0\\#
 N Geom=AllCheck Guess=TCheck SCRF=Check GenChk RM062X/def2SVP Freq\\HS
 O4- opt freq\\-1,1\S,0.1397124293,-0.024674048,-0.0014809485\O,-1.4400
 691134,0.4510727657,0.0042705846\H,-1.987602562,-0.3480977316,0.014036
 6396\O,0.8332912571,1.2629828268,-0.0160489736\O,0.2893538714,-0.82125
 87168,-1.2247599888\O,0.3042541176,-0.801485096,1.2325526867\\Version=
 ES64L-G09RevD.01\State=1-A\HF=-699.2957579\RMSD=1.209e-09\RMSF=2.134e-
 05\ZeroPoint=0.0274765\Thermal=0.0322553\Dipole=-1.302906,-0.3610528,0
 .0108213\DipoleDeriv=3.0986071,0.1000636,-0.0005868,-0.0078622,3.04894
 02,0.0007441,0.0002828,0.0000882,3.1352302,-1.6666482,0.1906021,0.0037
 41,0.1653995,-0.6670205,-0.0020532,0.0039442,-0.0022051,-0.7971381,0.3
 884659,0.0016411,0.0000337,0.0449104,0.2486869,0.0009167,-0.0003151,0.
 0011787,0.3962101,-1.0122686,-0.2839236,0.0029742,-0.3635029,-1.441514
 5,0.0065725,0.0036146,0.00609,-0.8987088,-0.9030197,-0.0058304,0.03457
 39,0.079702,-1.0996795,-0.3208263,0.1331212,-0.3227774,-1.4137213,-0.9
 051365,-0.0025529,-0.0407359,0.0813532,-1.0894126,0.3146462,-0.1406478
 ,0.3176256,-1.4218722\Polar=29.1126284,2.4276095,30.2355049,-0.0230224
 ,-0.0283445,28.5460138\PG=C01 [X(H1O4S1)]\NImag=0\\0.55398627,0.130598
 48,0.97670929,0.00142300,-0.00091246,0.96202176,-0.16064084,0.04373351
 ,0.00022413,0.41512998,0.01664659,-0.10066047,0.00018134,0.17258438,0.
 47382860,0.00044264,0.00001685,-0.06563875,-0.00354935,-0.00438694,0.0
 5968498,-0.03281016,-0.03159654,0.00047539,-0.17903046,-0.20116630,0.0
 0268127,0.20575465,0.00279082,0.00851021,-0.00005711,-0.24067162,-0.37
 505107,0.00444819,0.22915942,0.36634149,0.00019816,0.00015163,0.003543
 15,0.00299985,0.00420858,-0.00454186,-0.00308879,-0.00433422,0.0013007
 8,-0.18005225,-0.18364103,0.00200912,-0.03690787,-0.04234059,0.0006209
 9,-0.00572743,0.00531461,0.00000681,0.19488955,-0.18768163,-0.44960687
 ,0.00401224,-0.00866673,0.00145221,0.00011556,0.00177105,0.00448672,-0
 .00002692,0.23168250,0.49545027,0.00204163,0.00398788,-0.09247880,0.00
 034981,0.00031961,0.00925666,0.00003551,-0.00004828,0.00248538,-0.0025
 8387,-0.00477850,0.07627209,-0.08978949,0.01956423,0.03681402,-0.01900
 985,0.02733119,0.03143517,0.00588132,0.00167584,-0.00229344,0.01382333
 ,-0.01873246,-0.01385032,0.06990988,0.01791311,-0.22065745,-0.19891075
 ,0.01650971,0.00000374,-0.01643930,0.00089360,-0.00216572,-0.00116291,
 -0.00573772,-0.02630162,-0.03956372,-0.03075162,0.23158832,0.03360499,
 -0.19970987,-0.40099239,0.01224151,-0.01013388,0.00056574,-0.00198757,
 -0.00157755,-0.00134633,0.00140144,-0.01083678,0.00271861,-0.04827233,
 0.23969417,0.44619430,-0.09069352,0.02134136,-0.04094566,-0.01954095,0
 .02694473,-0.03163071,0.00593208,0.00173093,0.00217742,0.01397469,-0.0
 1837273,0.01400724,0.01918481,0.00117293,0.00301195,0.07114290,0.01973
 264,-0.21429470,0.19568674,0.01651075,0.00042700,0.01624565,0.00093878
 ,-0.00212163,0.00116384,-0.00527778,-0.02548070,0.04008300,0.00091282,
 0.01753274,-0.01743610,-0.03281721,0.22393729,-0.03771041,0.19646597,-
 0.40645496,-0.01226595,0.00981129,0.00067322,0.00188418,0.00156896,-0.
 00144112,-0.00145449,0.01151440,0.00174606,-0.00383310,0.01638251,-0.0
 4713994,0.05337976,-0.23574313,0.45261674\\-0.00000017,0.00001408,0.00
 000098,-0.00001479,-0.00003315,0.00000026,0.00000878,-0.00004898,0.000
 00038,-0.00003871,0.00003286,-0.00000008,0.00002249,0.00001731,-0.0000
 0098,0.00002239,0.00001787,-0.00000056\\\@


 ALMOST ANYTHING IS EASIER TO GET INTO THAN OUT OF.

                         -- AGNES ALLEN'S LAW FROM
                PAUL DICKSON'S "THE OFFICIAL RULES"
 Job cpu time:       0 days  0 hours  2 minutes  1.2 seconds.
 File lengths (MBytes):  RWF=     21 Int=      0 D2E=      0 Chk=      4 Scr=      1
 Normal termination of Gaussian 09 at Wed Sep 28 11:13:46 2022.
