 Entering Gaussian System, Link 0=g09
 Input=MeNO2_isatin_TS4_freq_3.com
 Output=MeNO2_isatin_TS4_freq_3.log
 Initial command:
 /apps/applications/gaussian/G09.D01/2/default/g09/l1.exe "/nobackup/chmbnn/Gau-186553.inp" -scrdir="/nobackup/chmbnn/"
 Entering Link 1 = /apps/applications/gaussian/G09.D01/2/default/g09/l1.exe PID=    186554.
  
 Copyright (c) 1988,1990,1992,1993,1995,1998,2003,2009,2013,
            Gaussian, Inc.  All Rights Reserved.
  
 This is part of the Gaussian(R) 09 program.  It is based on
 the Gaussian(R) 03 system (copyright 2003, Gaussian, Inc.),
 the Gaussian(R) 98 system (copyright 1998, Gaussian, Inc.),
 the Gaussian(R) 94 system (copyright 1995, Gaussian, Inc.),
 the Gaussian 92(TM) system (copyright 1992, Gaussian, Inc.),
 the Gaussian 90(TM) system (copyright 1990, Gaussian, Inc.),
 the Gaussian 88(TM) system (copyright 1988, Gaussian, Inc.),
 the Gaussian 86(TM) system (copyright 1986, Carnegie Mellon
 University), and the Gaussian 82(TM) system (copyright 1983,
 Carnegie Mellon University). Gaussian is a federally registered
 trademark of Gaussian, Inc.
  
 This software contains proprietary and confidential information,
 including trade secrets, belonging to Gaussian, Inc.
  
 This software is provided under written license and may be
 used, copied, transmitted, or stored only in accord with that
 written license.
  
 The following legend is applicable only to US Government
 contracts under FAR:
  
                    RESTRICTED RIGHTS LEGEND
  
 Use, reproduction and disclosure by the US Government is
 subject to restrictions as set forth in subparagraphs (a)
 and (c) of the Commercial Computer Software - Restricted
 Rights clause in FAR 52.227-19.
  
 Gaussian, Inc.
 340 Quinnipiac St., Bldg. 40, Wallingford CT 06492
  
  
 ---------------------------------------------------------------
 Warning -- This program may not be used in any manner that
 competes with the business of Gaussian, Inc. or will provide
 assistance to any competitor of Gaussian, Inc.  The licensee
 of this program is prohibited from giving any competitor of
 Gaussian, Inc. access to this program.  By using this program,
 the user acknowledges that Gaussian, Inc. is engaged in the
 business of creating and licensing software in the field of
 computational chemistry and represents and warrants to the
 licensee that it is not a competitor of Gaussian, Inc. and that
 it will not use this program in any manner prohibited above.
 ---------------------------------------------------------------
  

 Cite this work as:
 Gaussian 09, Revision D.01,
 M. J. Frisch, G. W. Trucks, H. B. Schlegel, G. E. Scuseria, 
 M. A. Robb, J. R. Cheeseman, G. Scalmani, V. Barone, B. Mennucci, 
 G. A. Petersson, H. Nakatsuji, M. Caricato, X. Li, H. P. Hratchian, 
 A. F. Izmaylov, J. Bloino, G. Zheng, J. L. Sonnenberg, M. Hada, 
 M. Ehara, K. Toyota, R. Fukuda, J. Hasegawa, M. Ishida, T. Nakajima, 
 Y. Honda, O. Kitao, H. Nakai, T. Vreven, J. A. Montgomery, Jr., 
 J. E. Peralta, F. Ogliaro, M. Bearpark, J. J. Heyd, E. Brothers, 
 K. N. Kudin, V. N. Staroverov, T. Keith, R. Kobayashi, J. Normand, 
 K. Raghavachari, A. Rendell, J. C. Burant, S. S. Iyengar, J. Tomasi, 
 M. Cossi, N. Rega, J. M. Millam, M. Klene, J. E. Knox, J. B. Cross, 
 V. Bakken, C. Adamo, J. Jaramillo, R. Gomperts, R. E. Stratmann, 
 O. Yazyev, A. J. Austin, R. Cammi, C. Pomelli, J. W. Ochterski, 
 R. L. Martin, K. Morokuma, V. G. Zakrzewski, G. A. Voth, 
 P. Salvador, J. J. Dannenberg, S. Dapprich, A. D. Daniels, 
 O. Farkas, J. B. Foresman, J. V. Ortiz, J. Cioslowski, 
 and D. J. Fox, Gaussian, Inc., Wallingford CT, 2013.
 
 ******************************************
 Gaussian 09:  ES64L-G09RevD.01 24-Apr-2013
                 4-Aug-2021 
 ******************************************
 %nprocshared=4
 Will use up to    4 processors via shared memory.
 %chk=MeNO2_isatin_TS4_freq_3.chk
 -----------------------------------------------------
 # freq scrf=(cpcm,solvent=nitromethane) def2svp m062x
 -----------------------------------------------------
 1/10=4,30=1,38=1/1,3;
 2/12=2,17=6,18=5,40=1/2;
 3/5=43,7=101,11=2,16=1,25=1,30=1,70=2101,71=2,72=15,74=-55,140=1/1,2,3;
 4//1;
 5/5=2,38=5,53=15,98=1/2;
 8/6=4,10=90,11=11/1;
 11/6=1,8=1,9=11,15=111,16=1/1,2,10;
 10/6=1/2;
 6/7=2,8=2,9=2,10=2,18=1,28=1/1;
 7/8=1,10=1,25=1/1,2,3,16;
 1/10=4,30=1/3;
 99//99;
 -----------------------
 MeNO2 + isatin TS4 freq
 -----------------------
 Symbolic Z-matrix:
 Charge = -1 Multiplicity = 1
 N                     0.47605   0.94628   1.87245 
 O                     0.97623   2.02895   1.55206 
 O                     1.29841  -0.11269   1.97023 
 C                    -0.78174   0.71254   2.13116 
 H                    -1.45264   1.56575   2.10125 
 H                    -1.06525  -0.29635   2.41164 
 H                     2.2066    0.15383   1.53062 
 C                    -4.84205  -1.24878   0.20993 
 C                    -4.36132   0.01294  -0.16306 
 C                    -3.00145   0.12564  -0.4195 
 C                    -2.14915  -0.9897   -0.30056 
 C                    -2.63634  -2.23756   0.06959 
 C                    -4.00307  -2.36233   0.32671 
 H                    -5.90758  -1.3622    0.41626 
 H                    -5.03171   0.86801  -0.24585 
 H                    -1.95823  -3.08791   0.15576 
 H                    -4.4196   -3.32558   0.62053 
 C                    -0.79917  -0.51878  -0.62284 
 C                    -0.95921   0.9926   -0.94423 
 N                    -2.2923    1.27267  -0.7993 
 O                    -0.06989   1.73065  -1.28131 
 O                     0.25929  -1.09584  -0.68554 
 C                    -2.87905   2.57924  -0.98882 
 H                    -3.65563   2.54486  -1.76559 
 H                    -3.31964   2.94678  -0.05083 
 H                    -2.07937   3.25857  -1.3048 
 H                     1.77378  -0.18485  -1.17673 
 O                     2.68396   0.08457  -1.43183 
 S                     3.72912  -0.49049  -0.3427 
 O                     3.3792   -1.89346  -0.13102 
 O                     3.4975    0.33741   0.88384 
 O                     5.02937  -0.22465  -0.94035 
 

 GradGradGradGradGradGradGradGradGradGradGradGradGradGradGradGradGradGrad
 Berny optimization.
 Initialization pass.
 Trust Radius=3.00D-01 FncErr=1.00D-07 GrdErr=1.00D-07
 Number of steps in this run=      2 maximum allowed number of steps=      2.
 GradGradGradGradGradGradGradGradGradGradGradGradGradGradGradGradGradGrad

                          Input orientation:                          
 ---------------------------------------------------------------------
 Center     Atomic      Atomic             Coordinates (Angstroms)
 Number     Number       Type             X           Y           Z
 ---------------------------------------------------------------------
      1          7           0        0.476048    0.946281    1.872451
      2          8           0        0.976228    2.028948    1.552056
      3          8           0        1.298407   -0.112689    1.970228
      4          6           0       -0.781735    0.712541    2.131164
      5          1           0       -1.452637    1.565748    2.101250
      6          1           0       -1.065250   -0.296348    2.411643
      7          1           0        2.206597    0.153827    1.530622
      8          6           0       -4.842052   -1.248777    0.209926
      9          6           0       -4.361315    0.012944   -0.163062
     10          6           0       -3.001452    0.125643   -0.419501
     11          6           0       -2.149155   -0.989698   -0.300560
     12          6           0       -2.636343   -2.237562    0.069593
     13          6           0       -4.003073   -2.362334    0.326713
     14          1           0       -5.907580   -1.362202    0.416256
     15          1           0       -5.031713    0.868006   -0.245849
     16          1           0       -1.958226   -3.087911    0.155761
     17          1           0       -4.419596   -3.325583    0.620531
     18          6           0       -0.799173   -0.518781   -0.622836
     19          6           0       -0.959207    0.992596   -0.944233
     20          7           0       -2.292299    1.272665   -0.799300
     21          8           0       -0.069892    1.730652   -1.281307
     22          8           0        0.259285   -1.095839   -0.685540
     23          6           0       -2.879053    2.579235   -0.988823
     24          1           0       -3.655633    2.544860   -1.765592
     25          1           0       -3.319641    2.946779   -0.050834
     26          1           0       -2.079367    3.258570   -1.304795
     27          1           0        1.773775   -0.184848   -1.176730
     28          8           0        2.683963    0.084565   -1.431834
     29         16           0        3.729120   -0.490492   -0.342703
     30          8           0        3.379197   -1.893463   -0.131016
     31          8           0        3.497502    0.337412    0.883838
     32          8           0        5.029367   -0.224646   -0.940347
 ---------------------------------------------------------------------
                    Distance matrix (angstroms):
                    1          2          3          4          5
     1  N    0.000000
     2  O    1.234909   0.000000
     3  O    1.344341   2.205737   0.000000
     4  C    1.305214   2.271283   2.243634   0.000000
     5  H    2.038606   2.532894   3.225300   1.085802   0.000000
     6  H    2.051939   3.211468   2.411525   1.084853   1.927126
     7  H    1.933812   2.242843   1.043596   3.098861   3.963475
     8  C    5.988694   6.811547   6.488035   4.901438   4.794454
     9  C    5.330526   5.957790   6.049724   4.308863   3.999840
    10  C    4.244938   4.830274   4.925078   3.431834   3.290428
    11  C    3.919398   4.723603   4.220344   3.268140   3.575491
    12  C    4.803554   5.783725   4.858987   4.048797   4.471460
    13  C    5.779166   6.751167   5.988968   4.804989   5.008346
    14  H    6.942644   7.757368   7.476788   5.789625   5.590940
    15  H    5.901589   6.377743   6.778140   4.872030   4.336531
    16  H    5.014720   6.061593   4.769685   4.441822   5.069230
    17  H    6.616907   7.658568   6.696262   5.641143   5.909356
    18  C    3.162128   3.791191   3.359871   3.016782   3.491836
    19  C    3.161615   3.324364   3.848709   3.093217   3.137984
    20  N    3.861156   4.096841   4.741588   3.344123   3.033829
    21  O    3.295372   3.035011   3.980280   3.631560   3.657987
    22  O    3.280329   3.909621   3.016531   3.505393   4.216743
    23  C    4.702141   4.649954   5.783910   4.197333   3.551108
    24  H    5.732504   5.720760   6.749921   5.177006   4.556788
    25  H    4.701943   4.676127   5.896728   4.024165   3.166136
    26  H    4.687400   4.360072   5.787963   4.468996   3.854812
    27  H    3.501579   3.603227   3.183477   4.275290   4.921328
    28  O    4.066416   3.949757   3.678682   5.010027   5.638089
    29  S    4.189714   4.185224   3.376500   5.283476   6.087005
    30  O    4.528388   4.898193   3.451966   5.405744   6.347895
    31  O    3.236860   3.108799   2.493763   4.473076   5.243546
    32  O    5.478651   5.264855   4.733291   6.639383   7.380596
                    6          7          8          9         10
     6  H    0.000000
     7  H    3.418163   0.000000
     8  C    4.474250   7.307187   0.000000
     9  C    4.193902   6.784238   1.400774   0.000000
    10  C    3.455768   5.561254   2.381810   1.388413   0.000000
    11  C    3.001938   4.861425   2.753073   2.432663   1.408738
    12  C    3.423718   5.595303   2.421269   2.845072   2.440749
    13  C    4.152835   6.807383   1.399119   2.451563   2.783902
    14  H    5.344696   8.329467   1.091232   2.148853   3.370126
    15  H    4.914348   7.487258   2.173585   1.089687   2.168690
    16  H    3.698545   5.453885   3.420789   3.935961   3.427269
    17  H    4.861685   7.539297   2.158747   3.429749   3.873469
    18  C    3.054233   3.758249   4.191808   3.630837   2.303619
    19  C    3.596460   4.104967   4.629506   3.625505   2.279850
    20  N    3.778572   5.188487   3.725245   2.504501   1.401001
    21  O    4.328666   3.946609   5.820162   4.755765   3.451494
    22  O    3.462098   3.203914   5.181591   4.780411   3.492163
    23  C    4.808537   6.172037   4.465875   3.076497   2.521750
    24  H    5.677309   7.137773   4.438687   3.078423   2.844736
    25  H    4.654454   6.390688   4.470841   3.115296   2.862860
    26  H    5.241926   6.004041   5.499362   4.128550   3.383669
    27  H    4.576999   2.762570   6.842801   6.221413   4.844852
    28  O    5.382751   3.001470   7.817549   7.158970   5.774985
    29  S    5.532639   2.498514   8.622377   8.108074   6.759151
    30  O    5.363674   2.885728   8.253532   7.971884   6.698708
    31  O    4.853303   1.455496   8.515769   7.934878   6.631737
    32  O    6.955957   3.770538   9.990840   9.425791   8.055311
                   11         12         13         14         15
    11  C    0.000000
    12  C    1.389795   0.000000
    13  C    2.390526   1.396291   0.000000
    14  H    3.844261   3.404030   2.153005   0.000000
    15  H    3.429752   3.934699   3.438172   2.485831   0.000000
    16  H    2.155732   1.091037   2.176485   4.317792   5.025624
    17  H    3.385213   2.160397   1.089802   2.471981   4.325678
    18  C    1.465632   2.609379   3.816452   5.280804   4.469865
    19  C    2.399954   3.778167   4.704889   5.646450   4.133832
    20  N    2.321103   3.632497   4.172274   4.635769   2.823906
    21  O    3.561671   4.915112   5.899845   6.821002   5.141595
    22  O    2.441323   3.202877   4.560303   6.270178   5.660802
    23  C    3.707255   4.937680   5.235758   5.165380   2.848554
    24  H    4.112043   5.222874   5.345934   5.009677   2.648595
    25  H    4.114396   5.230563   5.366219   5.048061   2.700096
    26  H    4.365906   5.692682   6.160927   6.242497   3.943667
    27  H    4.099370   5.021563   6.354035   7.932653   6.949080
    28  O    5.078666   5.996016   7.334593   8.906356   7.845508
    29  S    5.899585   6.613725   7.983653   9.705766   8.866064
    30  O    5.604303   6.028712   7.411293   9.318045   8.853378
    31  O    5.920199   6.702055   7.991098   9.568850   8.620048
    32  O    7.247469   7.989676   9.368037  11.079315  10.144040
                   16         17         18         19         20
    16  H    0.000000
    17  H    2.516116   0.000000
    18  C    2.924046   4.746742   0.000000
    19  C    4.342645   5.750604   1.553437   0.000000
    20  N    4.476424   5.261672   2.338770   1.369883   0.000000
    21  O    5.371175   6.935591   2.454666   1.203838   2.319736
    22  O    3.097336   5.345045   1.207171   2.431708   3.483293
    23  C    5.854446   6.311115   3.749340   2.491028   1.444758
    24  H    6.188772   6.382736   4.341791   3.217898   2.100209
    25  H    6.189799   6.403371   4.323199   3.191965   2.101973
    26  H    6.513503   7.248077   4.046275   2.553312   2.060263
    27  H    4.912346   7.173019   2.652993   2.984899   4.335868
    28  O    5.842515   8.142596   3.626395   3.786154   5.155081
    29  S    6.272237   8.681425   4.537038   4.953968   6.290842
    30  O    5.476955   7.964732   4.426106   5.273747   6.529689
    31  O    6.482893   8.727388   4.632985   4.861416   6.101594
    32  O    7.630609  10.066531   5.844588   6.111032   7.474532
                   21         22         23         24         25
    21  O    0.000000
    22  O    2.907292   0.000000
    23  C    2.949072   4.842243   0.000000
    24  H    3.708774   5.454153   1.098921   0.000000
    25  H    3.681562   5.436389   1.099559   1.792993   0.000000
    26  H    2.524495   4.981330   1.095825   1.790623   1.791064
    27  H    2.660674   1.834353   5.415189   6.105451   6.084210
    28  O    3.211850   2.798101   6.112838   6.808445   6.792841
    29  S    4.499661   3.538889   7.314960   8.110028   7.847614
    30  O    5.133575   3.267652   7.739932   8.476991   8.264914
    31  O    4.399463   3.873397   7.013778   7.941010   7.359066
    32  O    5.471918   4.855676   8.390900   9.153164   8.975250
                   26         27         28         29         30
    26  H    0.000000
    27  H    5.169162   0.000000
    28  O    5.725361   0.982906   0.000000
    29  S    6.979943   2.147648   1.615317   0.000000
    30  O    7.597179   2.567151   2.467402   1.461364   0.000000
    31  O    6.665189   2.736774   2.467410   1.497823   2.453717
    32  O    7.924627   3.264405   2.416214   1.455505   2.482545
                   31         32
    31  O    0.000000
    32  O    2.447482   0.000000
 Stoichiometry    C10H11N2O8S(1-)
 Framework group  C1[X(C10H11N2O8S)]
 Deg. of freedom    90
 Full point group                 C1      NOp   1
 Largest Abelian subgroup         C1      NOp   1
 Largest concise Abelian subgroup C1      NOp   1
                         Standard orientation:                         
 ---------------------------------------------------------------------
 Center     Atomic      Atomic             Coordinates (Angstroms)
 Number     Number       Type             X           Y           Z
 ---------------------------------------------------------------------
      1          7           0        0.476048    0.946281    1.872451
      2          8           0        0.976228    2.028948    1.552056
      3          8           0        1.298407   -0.112689    1.970228
      4          6           0       -0.781735    0.712541    2.131164
      5          1           0       -1.452637    1.565748    2.101250
      6          1           0       -1.065250   -0.296348    2.411643
      7          1           0        2.206597    0.153827    1.530622
      8          6           0       -4.842052   -1.248777    0.209926
      9          6           0       -4.361315    0.012944   -0.163062
     10          6           0       -3.001452    0.125643   -0.419501
     11          6           0       -2.149155   -0.989698   -0.300560
     12          6           0       -2.636343   -2.237562    0.069593
     13          6           0       -4.003073   -2.362334    0.326713
     14          1           0       -5.907580   -1.362202    0.416256
     15          1           0       -5.031713    0.868006   -0.245849
     16          1           0       -1.958226   -3.087911    0.155761
     17          1           0       -4.419596   -3.325583    0.620531
     18          6           0       -0.799173   -0.518781   -0.622836
     19          6           0       -0.959207    0.992596   -0.944233
     20          7           0       -2.292299    1.272665   -0.799300
     21          8           0       -0.069892    1.730652   -1.281307
     22          8           0        0.259285   -1.095839   -0.685540
     23          6           0       -2.879053    2.579235   -0.988823
     24          1           0       -3.655633    2.544860   -1.765592
     25          1           0       -3.319641    2.946779   -0.050834
     26          1           0       -2.079367    3.258570   -1.304795
     27          1           0        1.773775   -0.184848   -1.176730
     28          8           0        2.683963    0.084565   -1.431834
     29         16           0        3.729120   -0.490492   -0.342703
     30          8           0        3.379197   -1.893463   -0.131016
     31          8           0        3.497502    0.337412    0.883838
     32          8           0        5.029367   -0.224646   -0.940347
 ---------------------------------------------------------------------
 Rotational constants (GHZ):      0.5558416      0.1672447      0.1575836
 Standard basis: def2SVP (5D, 7F)
 There are   374 symmetry adapted cartesian basis functions of A   symmetry.
 There are   353 symmetry adapted basis functions of A   symmetry.
   353 basis functions,   614 primitive gaussians,   374 cartesian basis functions
    83 alpha electrons       83 beta electrons
       nuclear repulsion energy      1976.9011984568 Hartrees.
 NAtoms=   32 NActive=   32 NUniq=   32 SFac= 1.00D+00 NAtFMM=   60 NAOKFM=F Big=F
 Integral buffers will be    131072 words long.
 Raffenetti 2 integral format.
 Two-electron integral symmetry is turned on.
 Force inversion solution in PCM.
 ------------------------------------------------------------------------------
 Polarizable Continuum Model (PCM)
 =================================
 Model                : C-PCM.
 Atomic radii         : UFF (Universal Force Field).
 Polarization charges : Total charges.
 Charge compensation  : None.
 Solution method      : Matrix inversion.
 Cavity type          : Scaled VdW (van der Waals Surface) (Alpha=1.100).
 Cavity algorithm     : GePol (No added spheres)
                        Default sphere list used, NSphG=   32.
                        Lebedev-Laikov grids with approx.  5.0 points / Ang**2.
                        Smoothing algorithm: Karplus/York (Gamma=1.0000).
                        Polarization charges: spherical gaussians, with
                                              point-specific exponents (IZeta= 3).
                        Self-potential: point-specific (ISelfS= 7).
                        Self-field    : sphere-specific E.n sum rule (ISelfD= 2).
 1st derivatives      : Analytical E(r).r(x)/FMM algorithm (CHGder, D1EAlg=3).
                        Cavity 1st derivative terms included.
 2nd derivatives      : Analytical E(r).r(xy)/FMM algorithm (CHGder, D2EAlg=3).
                        Cavity 2nd derivative terms included.
 Solvent              : NitroMethane, Eps=  36.562000 Eps(inf)=   1.909095
 ------------------------------------------------------------------------------
 One-electron integrals computed using PRISM.
   1 Symmetry operations used in ECPInt.
 ECPInt:  NShTT=   13041 NPrTT=   49457 LenC2=   11691 LenP2D=   30195.
 LDataN:  DoStor=T MaxTD1= 4 Len=   56
 NBasis=   353 RedAO= T EigKep=  2.50D-04  NBF=   353
 NBsUse=   353 1.00D-06 EigRej= -1.00D+00 NBFU=   353
 ExpMin= 1.22D-01 ExpMax= 9.18D+03 ExpMxC= 1.38D+03 IAcc=1 IRadAn=         1 AccDes= 0.00D+00
 Harris functional with IExCor= 1009 and IRadAn=       1 diagonalized for initial guess.
 HarFok:  IExCor= 1009 AccDes= 0.00D+00 IRadAn=         1 IDoV= 1 UseB2=F ITyADJ=14
 ICtDFT=  3500011 ScaDFX=  1.000000  1.000000  1.000000  1.000000
 FoFCou: FMM=F IPFlag=           0 FMFlag=      100000 FMFlg1=           0
         NFxFlg=           0 DoJE=T BraDBF=F KetDBF=T FulRan=T
         wScrn=  0.000000 ICntrl=     500 IOpCl=  0 I1Cent=   200000004 NGrid=           0
         NMat0=    1 NMatS0=      1 NMatT0=    0 NMatD0=    1 NMtDS0=    0 NMtDT0=    0
 Petite list used in FoFCou.
 Requested convergence on RMS density matrix=1.00D-08 within 128 cycles.
 Requested convergence on MAX density matrix=1.00D-06.
 Requested convergence on             energy=1.00D-06.
 No special actions if energy rises.
 Inv3:  Mode=1 IEnd=    22113675.
 Iteration    1 A*A^-1 deviation from unit magnitude is 5.00D-15 for   2679.
 Iteration    1 A*A^-1 deviation from orthogonality  is 4.33D-15 for   2715   1555.
 Iteration    1 A^-1*A deviation from unit magnitude is 5.00D-15 for   2679.
 Iteration    1 A^-1*A deviation from orthogonality  is 1.71D-15 for   2663   1024.
 Error on total polarization charges =  0.00798
 SCF Done:  E(RM062X) =  -1495.79428581     A.U. after   15 cycles
            NFock= 15  Conv=0.53D-08     -V/T= 2.0066
 DoSCS=F DFT=T ScalE2(SS,OS)=  1.000000  1.000000
 Range of M.O.s used for correlation:     1   353
 NBasis=   353 NAE=    83 NBE=    83 NFC=     0 NFV=     0
 NROrb=    353 NOA=    83 NOB=    83 NVA=   270 NVB=   270

 **** Warning!!: The largest alpha MO coefficient is  0.11587807D+02

 PrsmSu:  requested number of processors reduced to:   3 ShMem   1 Linda.
   1 Symmetry operations used in ECPInt.
 ECPInt:  NShTT=   13041 NPrTT=   49457 LenC2=   11691 LenP2D=   30195.
 LDataN:  DoStor=T MaxTD1= 5 Len=  102
 Number of processors reduced to   2 by ecpmxn.
 Symmetrizing basis deriv contribution to polar:
 IMax=3 JMax=2 DiffMx= 0.00D+00
 G2DrvN: will do    17 centers at a time, making    2 passes.
 Calling FoFCou, ICntrl=  3107 FMM=F I1Cent=   0 AccDes= 0.00D+00.
 Calling FoFCou, ICntrl=  3107 FMM=F I1Cent=   0 AccDes= 0.00D+00.
 NEqPCM:  Using equilibrium solvation (IEInf=0, Eps=  36.5620, EpsInf=   1.9091)
 G2PCM: DoFxE=T DoFxN=T DoGrad=T DoDP/DQ/DG/TGxP=FFFF NFrqRd=   0 IEInf=0 SqF1=F DoCFld=F IF1Alg=4.
 End of G2Drv F.D. properties file   721 does not exist.
 End of G2Drv F.D. properties file   722 does not exist.
 End of G2Drv F.D. properties file   788 does not exist.
          IDoAtm=11111111111111111111111111111111
 NEqPCM:  Using equilibrium solvation (IEInf=0, Eps=  36.5620, EpsInf=   1.9091)
          Differentiating once with respect to electric field.
                with respect to dipole field.
          Differentiating once with respect to nuclear coordinates.
          There are    99 degrees of freedom in the 1st order CPHF.  IDoFFX=6 NUNeed=     3.
     99 vectors produced by pass  0 Test12= 2.26D-14 1.01D-09 XBig12= 1.54D+02 4.93D+00.
 AX will form    52 AO Fock derivatives at one time.
     99 vectors produced by pass  1 Test12= 2.26D-14 1.01D-09 XBig12= 1.87D+01 7.45D-01.
     97 vectors produced by pass  2 Test12= 2.26D-14 1.01D-09 XBig12= 3.77D-01 7.14D-02.
     96 vectors produced by pass  3 Test12= 2.26D-14 1.01D-09 XBig12= 4.66D-03 7.45D-03.
     96 vectors produced by pass  4 Test12= 2.26D-14 1.01D-09 XBig12= 3.99D-05 5.94D-04.
     96 vectors produced by pass  5 Test12= 2.26D-14 1.01D-09 XBig12= 1.91D-07 4.00D-05.
     78 vectors produced by pass  6 Test12= 2.26D-14 1.01D-09 XBig12= 6.65D-10 1.73D-06.
     15 vectors produced by pass  7 Test12= 2.26D-14 1.01D-09 XBig12= 1.93D-12 8.93D-08.
      3 vectors produced by pass  8 Test12= 2.26D-14 1.01D-09 XBig12= 5.57D-15 5.09D-09.
      1 vectors produced by pass  9 Test12= 2.26D-14 1.01D-09 XBig12= 1.93D-16 1.05D-09.
 InvSVY:  IOpt=1 It=  1 EMax= 1.07D-14
 Solved reduced A of dimension   680 with    99 vectors.
 Isotropic polarizability for W=    0.000000      212.22 Bohr**3.
 End of Minotr F.D. properties file   721 does not exist.
 End of Minotr F.D. properties file   722 does not exist.
 End of Minotr F.D. properties file   788 does not exist.

 **********************************************************************

            Population analysis using the SCF density.

 **********************************************************************

 Orbital symmetries:
       Occupied  (A) (A) (A) (A) (A) (A) (A) (A) (A) (A) (A) (A)
                 (A) (A) (A) (A) (A) (A) (A) (A) (A) (A) (A) (A)
                 (A) (A) (A) (A) (A) (A) (A) (A) (A) (A) (A) (A)
                 (A) (A) (A) (A) (A) (A) (A) (A) (A) (A) (A) (A)
                 (A) (A) (A) (A) (A) (A) (A) (A) (A) (A) (A) (A)
                 (A) (A) (A) (A) (A) (A) (A) (A) (A) (A) (A) (A)
                 (A) (A) (A) (A) (A) (A) (A) (A) (A) (A) (A)
       Virtual   (A) (A) (A) (A) (A) (A) (A) (A) (A) (A) (A) (A)
                 (A) (A) (A) (A) (A) (A) (A) (A) (A) (A) (A) (A)
                 (A) (A) (A) (A) (A) (A) (A) (A) (A) (A) (A) (A)
                 (A) (A) (A) (A) (A) (A) (A) (A) (A) (A) (A) (A)
                 (A) (A) (A) (A) (A) (A) (A) (A) (A) (A) (A) (A)
                 (A) (A) (A) (A) (A) (A) (A) (A) (A) (A) (A) (A)
                 (A) (A) (A) (A) (A) (A) (A) (A) (A) (A) (A) (A)
                 (A) (A) (A) (A) (A) (A) (A) (A) (A) (A) (A) (A)
                 (A) (A) (A) (A) (A) (A) (A) (A) (A) (A) (A) (A)
                 (A) (A) (A) (A) (A) (A) (A) (A) (A) (A) (A) (A)
                 (A) (A) (A) (A) (A) (A) (A) (A) (A) (A) (A) (A)
                 (A) (A) (A) (A) (A) (A) (A) (A) (A) (A) (A) (A)
                 (A) (A) (A) (A) (A) (A) (A) (A) (A) (A) (A) (A)
                 (A) (A) (A) (A) (A) (A) (A) (A) (A) (A) (A) (A)
                 (A) (A) (A) (A) (A) (A) (A) (A) (A) (A) (A) (A)
                 (A) (A) (A) (A) (A) (A) (A) (A) (A) (A) (A) (A)
                 (A) (A) (A) (A) (A) (A) (A) (A) (A) (A) (A) (A)
                 (A) (A) (A) (A) (A) (A) (A) (A) (A) (A) (A) (A)
                 (A) (A) (A) (A) (A) (A) (A) (A) (A) (A) (A) (A)
                 (A) (A) (A) (A) (A) (A) (A) (A) (A) (A) (A) (A)
                 (A) (A) (A) (A) (A) (A) (A) (A) (A) (A) (A) (A)
                 (A) (A) (A) (A) (A) (A) (A) (A) (A) (A) (A) (A)
                 (A) (A) (A) (A) (A) (A)
 The electronic state is 1-A.
 Alpha  occ. eigenvalues --  -90.13476 -19.66886 -19.65750 -19.64074 -19.63735
 Alpha  occ. eigenvalues --  -19.61700 -19.59817 -19.58767 -19.58712 -14.96089
 Alpha  occ. eigenvalues --  -14.81849 -10.67913 -10.67235 -10.62449 -10.59737
 Alpha  occ. eigenvalues --  -10.58553 -10.58274 -10.58218 -10.57616 -10.57592
 Alpha  occ. eigenvalues --  -10.56894  -8.46084  -6.38639  -6.38511  -6.38488
 Alpha  occ. eigenvalues --   -1.30053  -1.25039  -1.20115  -1.17319  -1.12341
 Alpha  occ. eigenvalues --   -1.10556  -1.09163  -1.07735  -1.07405  -0.96695
 Alpha  occ. eigenvalues --   -0.93683  -0.89527  -0.85642  -0.81684  -0.76297
 Alpha  occ. eigenvalues --   -0.71212  -0.70806  -0.68960  -0.68070  -0.65735
 Alpha  occ. eigenvalues --   -0.62332  -0.60791  -0.59996  -0.59684  -0.59190
 Alpha  occ. eigenvalues --   -0.58397  -0.56713  -0.55941  -0.54959  -0.54598
 Alpha  occ. eigenvalues --   -0.53810  -0.52531  -0.52224  -0.52067  -0.50999
 Alpha  occ. eigenvalues --   -0.49269  -0.48379  -0.48232  -0.46930  -0.46883
 Alpha  occ. eigenvalues --   -0.45835  -0.44718  -0.43336  -0.43006  -0.40914
 Alpha  occ. eigenvalues --   -0.40445  -0.39794  -0.39562  -0.38738  -0.38181
 Alpha  occ. eigenvalues --   -0.35513  -0.34998  -0.34217  -0.33328  -0.33280
 Alpha  occ. eigenvalues --   -0.32455  -0.28646  -0.28241
 Alpha virt. eigenvalues --   -0.06958   0.01038   0.03128   0.04324   0.09669
 Alpha virt. eigenvalues --    0.11265   0.13057   0.13326   0.14874   0.15419
 Alpha virt. eigenvalues --    0.15782   0.17115   0.17812   0.19104   0.19450
 Alpha virt. eigenvalues --    0.19581   0.20569   0.20971   0.21704   0.23257
 Alpha virt. eigenvalues --    0.24487   0.25172   0.25861   0.26492   0.26870
 Alpha virt. eigenvalues --    0.28646   0.29546   0.30474   0.31230   0.33357
 Alpha virt. eigenvalues --    0.34110   0.35285   0.36364   0.37767   0.39498
 Alpha virt. eigenvalues --    0.40852   0.42908   0.44502   0.44851   0.46003
 Alpha virt. eigenvalues --    0.46720   0.48273   0.50407   0.50740   0.51750
 Alpha virt. eigenvalues --    0.52024   0.53690   0.54941   0.57443   0.57798
 Alpha virt. eigenvalues --    0.58033   0.58574   0.60258   0.62048   0.62792
 Alpha virt. eigenvalues --    0.63837   0.65161   0.65975   0.66854   0.67775
 Alpha virt. eigenvalues --    0.68074   0.69366   0.69763   0.70314   0.70551
 Alpha virt. eigenvalues --    0.71438   0.72282   0.72638   0.73028   0.73397
 Alpha virt. eigenvalues --    0.73857   0.74619   0.75015   0.75413   0.75719
 Alpha virt. eigenvalues --    0.76209   0.77227   0.78200   0.78958   0.79846
 Alpha virt. eigenvalues --    0.80318   0.81550   0.82119   0.85115   0.87874
 Alpha virt. eigenvalues --    0.89856   0.90738   0.91416   0.92819   0.92948
 Alpha virt. eigenvalues --    0.93904   0.94868   0.96286   0.97569   0.98581
 Alpha virt. eigenvalues --    0.99368   1.02163   1.03980   1.06108   1.06349
 Alpha virt. eigenvalues --    1.06863   1.07855   1.09560   1.10583   1.11009
 Alpha virt. eigenvalues --    1.11795   1.12577   1.14623   1.15783   1.17409
 Alpha virt. eigenvalues --    1.17707   1.18892   1.19484   1.20999   1.22372
 Alpha virt. eigenvalues --    1.22824   1.24741   1.26195   1.27009   1.27925
 Alpha virt. eigenvalues --    1.28620   1.29335   1.30404   1.30524   1.31583
 Alpha virt. eigenvalues --    1.31896   1.34336   1.34705   1.35549   1.37095
 Alpha virt. eigenvalues --    1.37213   1.38664   1.39558   1.40388   1.42335
 Alpha virt. eigenvalues --    1.43665   1.45618   1.46890   1.48322   1.49839
 Alpha virt. eigenvalues --    1.50985   1.51992   1.52945   1.56314   1.56738
 Alpha virt. eigenvalues --    1.58388   1.62674   1.62922   1.64848   1.66347
 Alpha virt. eigenvalues --    1.67629   1.71510   1.71925   1.72111   1.74119
 Alpha virt. eigenvalues --    1.75108   1.75688   1.76891   1.77611   1.78908
 Alpha virt. eigenvalues --    1.80127   1.80917   1.81698   1.83031   1.83265
 Alpha virt. eigenvalues --    1.83615   1.84383   1.85665   1.88313   1.88662
 Alpha virt. eigenvalues --    1.90120   1.92540   1.96101   1.97848   1.98110
 Alpha virt. eigenvalues --    1.98522   1.99541   2.01931   2.03033   2.04707
 Alpha virt. eigenvalues --    2.05546   2.06816   2.08670   2.10338   2.13910
 Alpha virt. eigenvalues --    2.14344   2.15932   2.17393   2.19266   2.20530
 Alpha virt. eigenvalues --    2.25528   2.27048   2.28178   2.29279   2.31601
 Alpha virt. eigenvalues --    2.32624   2.33849   2.36126   2.37296   2.38033
 Alpha virt. eigenvalues --    2.39399   2.40848   2.46264   2.47952   2.48427
 Alpha virt. eigenvalues --    2.50783   2.53581   2.58887   2.60716   2.60757
 Alpha virt. eigenvalues --    2.62126   2.66151   2.66869   2.67435   2.68971
 Alpha virt. eigenvalues --    2.70420   2.70882   2.71687   2.72591   2.72869
 Alpha virt. eigenvalues --    2.73118   2.73236   2.73806   2.74095   2.74252
 Alpha virt. eigenvalues --    2.75298   2.77006   2.79440   2.80160   2.80533
 Alpha virt. eigenvalues --    2.81466   2.84745   2.87072   2.87332   2.90820
 Alpha virt. eigenvalues --    2.93658   2.94535   2.94955   2.95641   2.97506
 Alpha virt. eigenvalues --    3.01330   3.02177   3.02917   3.03305   3.04891
 Alpha virt. eigenvalues --    3.05426   3.07652   3.08212   3.12028   3.14214
 Alpha virt. eigenvalues --    3.16706   3.17211   3.18107   3.26281   3.29094
 Alpha virt. eigenvalues --    3.30474   3.31001   3.33477   3.37605   3.43701
 Alpha virt. eigenvalues --    3.48023   3.50427   3.53391   3.67217   3.68733
 Alpha virt. eigenvalues --    3.69502   3.73204   3.76869   3.79310   3.95429
          Condensed to atoms (all electrons):
               1          2          3          4          5          6
     1  N    5.829553   0.280017   0.184851   0.540089  -0.012728  -0.011707
     2  O    0.280017   8.267630  -0.090385  -0.084804   0.002868   0.004474
     3  O    0.184851  -0.090385   8.047617  -0.087423   0.004871   0.004070
     4  C    0.540089  -0.084804  -0.087423   4.899725   0.387200   0.383413
     5  H   -0.012728   0.002868   0.004871   0.387200   0.562178  -0.029726
     6  H   -0.011707   0.004474   0.004070   0.383413  -0.029726   0.563225
     7  H   -0.019715   0.022548   0.270475   0.006039  -0.000330  -0.000635
     8  C    0.000000   0.000000   0.000000   0.000059   0.000057  -0.000086
     9  C    0.000012   0.000001   0.000001  -0.000592   0.000129   0.000091
    10  C    0.000045  -0.000056  -0.000021   0.000299   0.001475  -0.002995
    11  C    0.000031  -0.000011  -0.000324   0.002255  -0.000900   0.001174
    12  C   -0.000085   0.000002   0.000052  -0.002714   0.000034   0.000304
    13  C    0.000001   0.000000   0.000001  -0.000224  -0.000010   0.000593
    14  H    0.000000   0.000000   0.000000   0.000001   0.000000  -0.000002
    15  H    0.000000   0.000000   0.000000  -0.000001  -0.000008   0.000002
    16  H   -0.000004   0.000000  -0.000004   0.000007   0.000001  -0.000018
    17  H    0.000000   0.000000   0.000000  -0.000002   0.000000   0.000005
    18  C    0.000141  -0.002682   0.007085  -0.002815  -0.002456   0.003489
    19  C    0.000168   0.009112  -0.001678   0.003333   0.004974  -0.000827
    20  N   -0.001117   0.000072  -0.000002  -0.003822  -0.002080   0.000057
    21  O    0.001126  -0.001454   0.000018  -0.001298   0.000009  -0.000022
    22  O   -0.000129   0.000115  -0.001053  -0.003905   0.000042   0.000064
    23  C    0.000019  -0.000005   0.000000  -0.000734   0.000289   0.000025
    24  H   -0.000002   0.000001   0.000000   0.000014  -0.000001   0.000000
    25  H    0.000043  -0.000033   0.000000   0.000182   0.000634  -0.000020
    26  H   -0.000011   0.000036   0.000000  -0.000081  -0.000026   0.000004
    27  H    0.000429   0.000830   0.001551  -0.000435   0.000004  -0.000030
    28  O    0.000009  -0.000045  -0.000464   0.000015   0.000000  -0.000001
    29  S    0.000237  -0.000421   0.004897  -0.000072   0.000001   0.000006
    30  O   -0.000008   0.000000  -0.000426   0.000000   0.000000   0.000000
    31  O    0.000228  -0.000819  -0.049587  -0.000084   0.000011   0.000017
    32  O    0.000000   0.000000  -0.000009   0.000000   0.000000   0.000000
               7          8          9         10         11         12
     1  N   -0.019715   0.000000   0.000012   0.000045   0.000031  -0.000085
     2  O    0.022548   0.000000   0.000001  -0.000056  -0.000011   0.000002
     3  O    0.270475   0.000000   0.000001  -0.000021  -0.000324   0.000052
     4  C    0.006039   0.000059  -0.000592   0.000299   0.002255  -0.002714
     5  H   -0.000330   0.000057   0.000129   0.001475  -0.000900   0.000034
     6  H   -0.000635  -0.000086   0.000091  -0.002995   0.001174   0.000304
     7  H    0.376878   0.000000   0.000000   0.000004  -0.000066  -0.000002
     8  C    0.000000   5.122148   0.222620   0.158384  -0.179934   0.108347
     9  C    0.000000   0.222620   5.186692   0.274545   0.066415  -0.130643
    10  C    0.000004   0.158384   0.274545   5.177079   0.173011   0.067510
    11  C   -0.000066  -0.179934   0.066415   0.173011   5.836444   0.266096
    12  C   -0.000002   0.108347  -0.130643   0.067510   0.266096   5.109828
    13  C    0.000000   0.242236   0.094178  -0.166717   0.108893   0.237492
    14  H    0.000000   0.450885  -0.063682   0.014079  -0.001373   0.013098
    15  H    0.000000  -0.073196   0.472585  -0.078338   0.018587  -0.002491
    16  H    0.000000   0.012748  -0.001774   0.014800  -0.077239   0.467250
    17  H    0.000000  -0.068126   0.013143  -0.001517   0.014543  -0.070210
    18  C   -0.000034  -0.000237   0.017241  -0.016208   0.073863  -0.078856
    19  C    0.000199  -0.000901   0.003041  -0.075646  -0.137724   0.015734
    20  N    0.000008   0.008197  -0.083268   0.329910  -0.047673   0.005846
    21  O    0.000119   0.000001  -0.000080   0.000973   0.008127  -0.000045
    22  O    0.001177  -0.000010  -0.000036   0.002618  -0.083441   0.006113
    23  C    0.000000  -0.000254   0.002046  -0.043593   0.006107  -0.000121
    24  H    0.000000   0.000298   0.002569  -0.006743   0.000467   0.000016
    25  H    0.000000   0.000179   0.002119  -0.004464   0.000445  -0.000011
    26  H    0.000000  -0.000010   0.000405   0.005646  -0.001387   0.000017
    27  H    0.000529   0.000000   0.000004  -0.000079   0.002659  -0.000107
    28  O    0.004447   0.000000   0.000000   0.000002  -0.000068   0.000001
    29  S   -0.010786   0.000000   0.000000   0.000000   0.000003   0.000001
    30  O    0.004785   0.000000   0.000000   0.000000  -0.000005   0.000000
    31  O    0.100657   0.000000   0.000000   0.000000  -0.000001   0.000000
    32  O    0.000971   0.000000   0.000000   0.000000   0.000000   0.000000
              13         14         15         16         17         18
     1  N    0.000001   0.000000   0.000000  -0.000004   0.000000   0.000141
     2  O    0.000000   0.000000   0.000000   0.000000   0.000000  -0.002682
     3  O    0.000001   0.000000   0.000000  -0.000004   0.000000   0.007085
     4  C   -0.000224   0.000001  -0.000001   0.000007  -0.000002  -0.002815
     5  H   -0.000010   0.000000  -0.000008   0.000001   0.000000  -0.002456
     6  H    0.000593  -0.000002   0.000002  -0.000018   0.000005   0.003489
     7  H    0.000000   0.000000   0.000000   0.000000   0.000000  -0.000034
     8  C    0.242236   0.450885  -0.073196   0.012748  -0.068126  -0.000237
     9  C    0.094178  -0.063682   0.472585  -0.001774   0.013143   0.017241
    10  C   -0.166717   0.014079  -0.078338   0.014800  -0.001517  -0.016208
    11  C    0.108893  -0.001373   0.018587  -0.077239   0.014543   0.073863
    12  C    0.237492   0.013098  -0.002491   0.467250  -0.070210  -0.078856
    13  C    5.154820  -0.066611   0.013288  -0.064886   0.458800   0.018006
    14  H   -0.066611   0.618689  -0.010495  -0.000188  -0.011178   0.000005
    15  H    0.013288  -0.010495   0.631445   0.000012  -0.000140  -0.000549
    16  H   -0.064886  -0.000188   0.000012   0.625292  -0.009598  -0.014952
    17  H    0.458800  -0.011178  -0.000140  -0.009598   0.626544  -0.000324
    18  C    0.018006   0.000005  -0.000549  -0.014952  -0.000324   5.267109
    19  C   -0.000235   0.000004   0.000223   0.000743   0.000013   0.153330
    20  N   -0.000379  -0.000108  -0.012515  -0.000202   0.000009  -0.136786
    21  O    0.000000   0.000000   0.000000  -0.000001   0.000000  -0.079488
    22  O    0.000367   0.000000   0.000001   0.003272   0.000000   0.663932
    23  C    0.000077  -0.000025   0.007726   0.000010   0.000000   0.008090
    24  H   -0.000029   0.000005  -0.000165   0.000000   0.000000  -0.000584
    25  H   -0.000022   0.000005  -0.000120   0.000000   0.000000  -0.000502
    26  H    0.000002   0.000000  -0.000101   0.000000   0.000000   0.003646
    27  H    0.000000   0.000000   0.000000  -0.000044   0.000000  -0.012520
    28  O    0.000000   0.000000   0.000000   0.000001   0.000000   0.000993
    29  S    0.000000   0.000000   0.000000   0.000000   0.000000   0.001019
    30  O    0.000000   0.000000   0.000000   0.000000   0.000000   0.000053
    31  O    0.000000   0.000000   0.000000   0.000000   0.000000  -0.000079
    32  O    0.000000   0.000000   0.000000   0.000000   0.000000   0.000001
              19         20         21         22         23         24
     1  N    0.000168  -0.001117   0.001126  -0.000129   0.000019  -0.000002
     2  O    0.009112   0.000072  -0.001454   0.000115  -0.000005   0.000001
     3  O   -0.001678  -0.000002   0.000018  -0.001053   0.000000   0.000000
     4  C    0.003333  -0.003822  -0.001298  -0.003905  -0.000734   0.000014
     5  H    0.004974  -0.002080   0.000009   0.000042   0.000289  -0.000001
     6  H   -0.000827   0.000057  -0.000022   0.000064   0.000025   0.000000
     7  H    0.000199   0.000008   0.000119   0.001177   0.000000   0.000000
     8  C   -0.000901   0.008197   0.000001  -0.000010  -0.000254   0.000298
     9  C    0.003041  -0.083268  -0.000080  -0.000036   0.002046   0.002569
    10  C   -0.075646   0.329910   0.000973   0.002618  -0.043593  -0.006743
    11  C   -0.137724  -0.047673   0.008127  -0.083441   0.006107   0.000467
    12  C    0.015734   0.005846  -0.000045   0.006113  -0.000121   0.000016
    13  C   -0.000235  -0.000379   0.000000   0.000367   0.000077  -0.000029
    14  H    0.000004  -0.000108   0.000000   0.000000  -0.000025   0.000005
    15  H    0.000223  -0.012515   0.000000   0.000001   0.007726  -0.000165
    16  H    0.000743  -0.000202  -0.000001   0.003272   0.000010   0.000000
    17  H    0.000013   0.000009   0.000000   0.000000   0.000000   0.000000
    18  C    0.153330  -0.136786  -0.079488   0.663932   0.008090  -0.000584
    19  C    4.966904   0.227467   0.736349  -0.070539  -0.021969   0.001748
    20  N    0.227467   6.956610  -0.092197   0.003776   0.277659  -0.024050
    21  O    0.736349  -0.092197   7.630854   0.000221  -0.004018   0.000120
    22  O   -0.070539   0.003776   0.000221   7.662669  -0.000067   0.000002
    23  C   -0.021969   0.277659  -0.004018  -0.000067   4.497877   0.408281
    24  H    0.001748  -0.024050   0.000120   0.000002   0.408281   0.579057
    25  H    0.001821  -0.027879   0.000195   0.000001   0.408191  -0.028146
    26  H   -0.003235  -0.027535   0.014869  -0.000018   0.397089  -0.016530
    27  H   -0.003351   0.000750   0.013698   0.051181  -0.000022   0.000001
    28  O    0.000784  -0.000003  -0.001416  -0.014957   0.000000   0.000000
    29  S   -0.000101  -0.000001  -0.000158   0.000215   0.000000   0.000000
    30  O   -0.000004   0.000000   0.000000   0.000051   0.000000   0.000000
    31  O   -0.000010   0.000000   0.000000  -0.000151   0.000000   0.000000
    32  O    0.000000   0.000000   0.000000  -0.000002   0.000000   0.000000
              25         26         27         28         29         30
     1  N    0.000043  -0.000011   0.000429   0.000009   0.000237  -0.000008
     2  O   -0.000033   0.000036   0.000830  -0.000045  -0.000421   0.000000
     3  O    0.000000   0.000000   0.001551  -0.000464   0.004897  -0.000426
     4  C    0.000182  -0.000081  -0.000435   0.000015  -0.000072   0.000000
     5  H    0.000634  -0.000026   0.000004   0.000000   0.000001   0.000000
     6  H   -0.000020   0.000004  -0.000030  -0.000001   0.000006   0.000000
     7  H    0.000000   0.000000   0.000529   0.004447  -0.010786   0.004785
     8  C    0.000179  -0.000010   0.000000   0.000000   0.000000   0.000000
     9  C    0.002119   0.000405   0.000004   0.000000   0.000000   0.000000
    10  C   -0.004464   0.005646  -0.000079   0.000002   0.000000   0.000000
    11  C    0.000445  -0.001387   0.002659  -0.000068   0.000003  -0.000005
    12  C   -0.000011   0.000017  -0.000107   0.000001   0.000001   0.000000
    13  C   -0.000022   0.000002   0.000000   0.000000   0.000000   0.000000
    14  H    0.000005   0.000000   0.000000   0.000000   0.000000   0.000000
    15  H   -0.000120  -0.000101   0.000000   0.000000   0.000000   0.000000
    16  H    0.000000   0.000000  -0.000044   0.000001   0.000000   0.000000
    17  H    0.000000   0.000000   0.000000   0.000000   0.000000   0.000000
    18  C   -0.000502   0.003646  -0.012520   0.000993   0.001019   0.000053
    19  C    0.001821  -0.003235  -0.003351   0.000784  -0.000101  -0.000004
    20  N   -0.027879  -0.027535   0.000750  -0.000003  -0.000001   0.000000
    21  O    0.000195   0.014869   0.013698  -0.001416  -0.000158   0.000000
    22  O    0.000001  -0.000018   0.051181  -0.014957   0.000215   0.000051
    23  C    0.408191   0.397089  -0.000022   0.000000   0.000000   0.000000
    24  H   -0.028146  -0.016530   0.000001   0.000000   0.000000   0.000000
    25  H    0.580821  -0.016986   0.000000   0.000000   0.000000   0.000000
    26  H   -0.016986   0.561937  -0.000029   0.000001   0.000000   0.000000
    27  H    0.000000  -0.000029   0.430032   0.302089  -0.013147   0.006200
    28  O    0.000000   0.000001   0.302089   8.054579   0.267037  -0.055486
    29  S    0.000000   0.000000  -0.013147   0.267037  13.248315   0.471116
    30  O    0.000000   0.000000   0.006200  -0.055486   0.471116   8.287124
    31  O    0.000000   0.000000   0.006401  -0.056054   0.381454  -0.059914
    32  O    0.000000   0.000000   0.002090  -0.051883   0.488395  -0.052963
              31         32
     1  N    0.000228   0.000000
     2  O   -0.000819   0.000000
     3  O   -0.049587  -0.000009
     4  C   -0.000084   0.000000
     5  H    0.000011   0.000000
     6  H    0.000017   0.000000
     7  H    0.100657   0.000971
     8  C    0.000000   0.000000
     9  C    0.000000   0.000000
    10  C    0.000000   0.000000
    11  C   -0.000001   0.000000
    12  C    0.000000   0.000000
    13  C    0.000000   0.000000
    14  H    0.000000   0.000000
    15  H    0.000000   0.000000
    16  H    0.000000   0.000000
    17  H    0.000000   0.000000
    18  C   -0.000079   0.000001
    19  C   -0.000010   0.000000
    20  N    0.000000   0.000000
    21  O    0.000000   0.000000
    22  O   -0.000151  -0.000002
    23  C    0.000000   0.000000
    24  H    0.000000   0.000000
    25  H    0.000000   0.000000
    26  H    0.000000   0.000000
    27  H    0.006401   0.002090
    28  O   -0.056054  -0.051883
    29  S    0.381454   0.488395
    30  O   -0.059914  -0.052963
    31  O    8.359405  -0.053665
    32  O   -0.053665   8.264658
 Mulliken charges:
               1
     1  N    0.208506
     2  O   -0.406992
     3  O   -0.294113
     4  C   -0.033626
     5  H    0.083490
     6  H    0.085054
     7  H    0.242733
     8  C   -0.003406
     9  C   -0.077760
    10  C    0.176000
    11  C   -0.048973
    12  C   -0.012458
    13  C   -0.029639
    14  H    0.056892
    15  H    0.034251
    16  H    0.044775
    17  H    0.048040
    18  C    0.131071
    19  C    0.190273
    20  N   -0.350743
    21  O   -0.226504
    22  O   -0.221507
    23  C    0.057321
    24  H    0.083671
    25  H    0.083546
    26  H    0.082298
    27  H    0.211316
    28  O   -0.449581
    29  S    1.161990
    30  O   -0.600523
    31  O   -0.627810
    32  O   -0.597592
 Sum of Mulliken charges =  -1.00000
 Mulliken charges with hydrogens summed into heavy atoms:
               1
     1  N    0.208506
     2  O   -0.406992
     3  O   -0.051379
     4  C    0.134917
     8  C    0.053486
     9  C   -0.043509
    10  C    0.176000
    11  C   -0.048973
    12  C    0.032317
    13  C    0.018401
    18  C    0.131071
    19  C    0.190273
    20  N   -0.350743
    21  O   -0.226504
    22  O   -0.221507
    23  C    0.306836
    28  O   -0.238265
    29  S    1.161990
    30  O   -0.600523
    31  O   -0.627810
    32  O   -0.597592
 APT charges:
               1
     1  N    1.578150
     2  O   -1.041288
     3  O   -1.097590
     4  C   -0.596809
     5  H    0.128772
     6  H    0.148244
     7  H    0.936552
     8  C    0.200616
     9  C   -0.332843
    10  C    0.732696
    11  C   -0.602032
    12  C    0.196446
    13  C   -0.315638
    14  H    0.068990
    15  H    0.096237
    16  H    0.088921
    17  H    0.068214
    18  C    1.353661
    19  C    1.285328
    20  N   -1.215960
    21  O   -0.996371
    22  O   -1.077714
    23  C    0.360992
    24  H    0.002231
    25  H    0.000049
    26  H    0.066613
    27  H    0.639495
    28  O   -1.211652
    29  S    3.262885
    30  O   -1.141968
    31  O   -1.423048
    32  O   -1.162182
 Sum of APT charges =  -1.00000
 APT charges with hydrogens summed into heavy atoms:
               1
     1  N    1.578150
     2  O   -1.041288
     3  O   -0.161038
     4  C   -0.319793
     8  C    0.269606
     9  C   -0.236606
    10  C    0.732696
    11  C   -0.602032
    12  C    0.285367
    13  C   -0.247423
    18  C    1.353661
    19  C    1.285328
    20  N   -1.215960
    21  O   -0.996371
    22  O   -1.077714
    23  C    0.429884
    28  O   -0.572157
    29  S    3.262885
    30  O   -1.141968
    31  O   -1.423048
    32  O   -1.162182
 Electronic spatial extent (au):  <R**2>=           7056.2046
 Charge=             -1.0000 electrons
 Dipole moment (field-independent basis, Debye):
    X=            -27.5812    Y=              0.0439    Z=              0.7675  Tot=             27.5919
 Quadrupole moment (field-independent basis, Debye-Ang):
   XX=           -176.8241   YY=           -134.8902   ZZ=           -137.6117
   XY=              1.1439   XZ=              5.6520   YZ=             -5.1544
 Traceless Quadrupole moment (field-independent basis, Debye-Ang):
   XX=            -27.0488   YY=             14.8851   ZZ=             12.1637
   XY=              1.1439   XZ=              5.6520   YZ=             -5.1544
 Octapole moment (field-independent basis, Debye-Ang**2):
  XXX=           -416.7599  YYY=              1.8450  ZZZ=             -1.3119  XYY=            -61.3664
  XXY=             35.1036  XXZ=             45.2951  XZZ=             -5.7820  YZZ=              0.1247
  YYZ=             -3.6052  XYZ=              6.6446
 Hexadecapole moment (field-independent basis, Debye-Ang**3):
 XXXX=          -7467.2512 YYYY=          -1442.9079 ZZZZ=           -999.2931 XXXY=             88.7257
 XXXZ=            192.3469 YYYX=             13.0435 YYYZ=            -49.5446 ZZZX=              7.7745
 ZZZY=              3.1171 XXYY=          -1290.7752 XXZZ=          -1372.2817 YYZZ=           -427.0956
 XXYZ=            -80.8856 YYXZ=            -18.3076 ZZXY=            -46.5349
 N-N= 1.976901198457D+03 E-N=-7.491276948481D+03  KE= 1.486032805076D+03
  Exact polarizability: 286.463  20.574 218.435 -25.891 -20.363 131.757
 Approx polarizability: 268.147  19.087 216.841 -27.408 -20.974 133.330
   1 Symmetry operations used in ECPInt.
 ECPInt:  NShTT=   13041 NPrTT=   49457 LenC2=   11691 LenP2D=   30195.
 LDataN:  DoStor=T MaxTD1= 6 Len=  172
 D2PCM: C-PCM CHGder 2nd derivatives, FixD1E=F FixD2E=F DoIter=F DoCFld=F I1PDM=0
 Calling FoFJK, ICntrl=    100127 FMM=F ISym2X=0 I1Cent= 0 IOpClX= 0 NMat=1 NMatS=1 NMatT=0.
 Full mass-weighted force constant matrix:
 Low frequencies ---  -22.7891   -4.6151   -0.0016    0.0012    0.0017    8.4885
 Low frequencies ---   13.1864   31.7494   36.6231
 ******    1 imaginary frequencies (negative Signs) ****** 
 Diagonal vibrational polarizability:
      227.8299540      76.9323936     126.5651161
 Harmonic frequencies (cm**-1), IR intensities (KM/Mole), Raman scattering
 activities (A**4/AMU), depolarization ratios for plane and unpolarized
 incident light, reduced masses (AMU), force constants (mDyne/A),
 and normal coordinates:
                      1                      2                      3
                      A                      A                      A
 Frequencies --    -20.0336                30.7802                36.5316
 Red. masses --      9.0758                 7.8754                 7.8113
 Frc consts  --      0.0021                 0.0044                 0.0061
 IR Inten    --      0.8547                 0.5230                 0.2637
  Atom  AN      X      Y      Z        X      Y      Z        X      Y      Z
     1   7    -0.12  -0.04   0.09    -0.11  -0.11  -0.03     0.03   0.14  -0.02
     2   8    -0.24   0.03   0.16    -0.12  -0.12  -0.08     0.06   0.13   0.00
     3   8    -0.01   0.04   0.01    -0.10  -0.10   0.01    -0.01   0.11  -0.03
     4   6    -0.09  -0.19   0.09    -0.11  -0.11  -0.02     0.02   0.17  -0.02
     5   1    -0.18  -0.26   0.16    -0.11  -0.11  -0.05     0.04   0.19  -0.01
     6   1     0.02  -0.24   0.01    -0.10  -0.10   0.01    -0.01   0.18  -0.04
     7   1    -0.08   0.13  -0.08    -0.10  -0.10   0.02    -0.01   0.08  -0.04
     8   6     0.03   0.08   0.03     0.13   0.02   0.24     0.07  -0.15  -0.04
     9   6     0.07   0.07   0.04     0.07   0.02   0.17     0.00  -0.11   0.03
    10   6     0.07   0.02   0.02     0.05   0.03   0.03    -0.01  -0.03   0.02
    11   6     0.03  -0.01  -0.01     0.07   0.05  -0.03     0.05   0.00  -0.05
    12   6    -0.01   0.00  -0.03     0.13   0.05   0.04     0.11  -0.04  -0.11
    13   6    -0.01   0.04  -0.01     0.15   0.03   0.18     0.12  -0.12  -0.11
    14   1     0.03   0.11   0.04     0.15   0.01   0.35     0.07  -0.22  -0.03
    15   1     0.11   0.10   0.07     0.05   0.01   0.22    -0.04  -0.14   0.08
    16   1    -0.04  -0.03  -0.06     0.15   0.06   0.00     0.15  -0.01  -0.16
    17   1    -0.04   0.05  -0.03     0.20   0.03   0.24     0.17  -0.16  -0.15
    18   6     0.05  -0.06  -0.02     0.04   0.07  -0.13     0.02   0.08  -0.05
    19   6     0.10  -0.05   0.01    -0.01   0.06  -0.15    -0.05   0.09   0.04
    20   7     0.11   0.00   0.03     0.00   0.04  -0.04    -0.06   0.02   0.07
    21   8     0.12  -0.08   0.00    -0.05   0.07  -0.24    -0.09   0.15   0.08
    22   8     0.03  -0.08  -0.04     0.05   0.09  -0.17     0.04   0.12  -0.10
    23   6     0.16   0.03   0.07    -0.04   0.02  -0.02    -0.12   0.01   0.18
    24   1     0.15   0.07   0.08    -0.13  -0.02   0.07    -0.14   0.04   0.20
    25   1     0.18   0.02   0.08     0.06   0.06   0.01    -0.11  -0.08   0.22
    26   1     0.18   0.01   0.07    -0.09   0.02  -0.15    -0.16   0.06   0.21
    27   1     0.02  -0.07  -0.21     0.06   0.09  -0.10     0.05   0.01  -0.11
    28   8     0.04  -0.18  -0.25     0.09   0.09   0.00     0.08  -0.08  -0.09
    29  16    -0.04   0.04  -0.05    -0.01  -0.01   0.05    -0.03  -0.09   0.02
    30   8    -0.04   0.08   0.19    -0.08  -0.01  -0.06    -0.18  -0.04   0.12
    31   8    -0.15   0.27  -0.22    -0.07  -0.07   0.08    -0.01   0.04  -0.07
    32   8     0.00  -0.06   0.01     0.04  -0.03   0.16     0.03  -0.28   0.06
                      4                      5                      6
                      A                      A                      A
 Frequencies --     53.7740                55.8669                70.3847
 Red. masses --      7.5499                 6.6436                11.8912
 Frc consts  --      0.0129                 0.0122                 0.0347
 IR Inten    --      1.0149                 0.0888                 2.8482
  Atom  AN      X      Y      Z        X      Y      Z        X      Y      Z
     1   7    -0.04   0.03   0.15    -0.07   0.15  -0.02    -0.11   0.04  -0.02
     2   8     0.01   0.02   0.19     0.04   0.12   0.06    -0.07   0.02  -0.03
     3   8    -0.07   0.01   0.19    -0.18   0.06  -0.06    -0.16   0.00  -0.06
     4   6    -0.06   0.07   0.09    -0.10   0.26  -0.05    -0.12   0.10   0.02
     5   1    -0.03   0.09   0.07    -0.02   0.32  -0.03    -0.07   0.13   0.05
     6   1    -0.11   0.07   0.05    -0.20   0.27  -0.11    -0.15   0.11   0.02
     7   1    -0.12  -0.09   0.06    -0.14  -0.01  -0.02    -0.17  -0.06  -0.09
     8   6     0.06  -0.05  -0.08     0.04   0.02   0.07    -0.02  -0.01   0.01
     9   6     0.03  -0.05  -0.13     0.07   0.01   0.08    -0.05   0.01   0.03
    10   6     0.04  -0.01  -0.04     0.06  -0.04   0.01    -0.05   0.03   0.03
    11   6     0.08   0.03   0.08     0.02  -0.08  -0.05    -0.03   0.05   0.01
    12   6     0.11   0.04   0.13    -0.01  -0.07  -0.06    -0.01   0.03  -0.01
    13   6     0.10  -0.01   0.05    -0.01  -0.02   0.00    -0.01   0.00  -0.01
    14   1     0.05  -0.08  -0.15     0.04   0.06   0.13    -0.02  -0.03   0.01
    15   1    -0.01  -0.09  -0.24     0.10   0.04   0.14    -0.06   0.00   0.05
    16   1     0.14   0.07   0.22    -0.04  -0.10  -0.11     0.01   0.04  -0.02
    17   1     0.12   0.00   0.09    -0.03  -0.01   0.00     0.01  -0.01  -0.03
    18   6     0.07   0.06   0.11     0.03  -0.11  -0.07    -0.04   0.07   0.02
    19   6     0.04   0.04   0.04     0.08  -0.10   0.00    -0.06   0.07   0.02
    20   7     0.02   0.00  -0.06     0.09  -0.06   0.01    -0.07   0.05   0.04
    21   8     0.04   0.06   0.06     0.11  -0.11   0.05    -0.09   0.09   0.01
    22   8     0.09   0.09   0.15     0.01  -0.14  -0.11    -0.03   0.07   0.04
    23   6    -0.02  -0.04  -0.22     0.15  -0.01   0.16    -0.09   0.05   0.09
    24   1     0.06  -0.14  -0.30     0.08   0.10   0.23    -0.11   0.06   0.11
    25   1    -0.14   0.00  -0.29     0.25  -0.05   0.23    -0.08   0.01   0.11
    26   1    -0.02  -0.02  -0.18     0.17  -0.03   0.15    -0.11   0.07   0.10
    27   1    -0.02   0.11  -0.12    -0.03   0.01  -0.04     0.10  -0.30  -0.02
    28   8     0.00   0.02  -0.14    -0.03   0.08   0.02     0.10  -0.36  -0.11
    29  16    -0.07  -0.04  -0.10    -0.04   0.00  -0.01     0.16  -0.08  -0.02
    30   8    -0.06  -0.06  -0.22    -0.01  -0.03  -0.16     0.50  -0.16  -0.01
    31   8    -0.16  -0.13  -0.06    -0.09  -0.12   0.06    -0.13  -0.10  -0.06
    32   8    -0.03   0.00   0.00    -0.04   0.09   0.04     0.13   0.23   0.06
                      7                      8                      9
                      A                      A                      A
 Frequencies --     79.5490               108.3051               111.0491
 Red. masses --      7.8629                 6.7267                 7.4955
 Frc consts  --      0.0293                 0.0465                 0.0545
 IR Inten    --      5.6887                 9.3882                 0.4168
  Atom  AN      X      Y      Z        X      Y      Z        X      Y      Z
     1   7     0.05   0.00   0.05     0.08   0.03   0.14    -0.06  -0.03  -0.11
     2   8     0.14   0.08   0.46     0.09   0.03   0.13    -0.10   0.00  -0.07
     3   8    -0.01  -0.07  -0.18     0.09   0.05   0.26    -0.03   0.00  -0.13
     4   6     0.01  -0.02  -0.16     0.06   0.03   0.05    -0.06  -0.09  -0.16
     5   1     0.05   0.02   0.02     0.05   0.02  -0.04    -0.09  -0.11  -0.15
     6   1    -0.07  -0.10  -0.50     0.05   0.03   0.04    -0.03  -0.10  -0.18
     7   1     0.03   0.00  -0.05     0.06   0.00   0.16     0.01   0.04  -0.05
     8   6     0.00   0.02   0.13     0.04  -0.01   0.04     0.12  -0.04  -0.02
     9   6    -0.03  -0.01  -0.01     0.04   0.02   0.12     0.06  -0.03  -0.07
    10   6    -0.05  -0.02  -0.09     0.02   0.02   0.02     0.06   0.02  -0.05
    11   6    -0.04  -0.01  -0.08     0.01   0.00  -0.10     0.09   0.05   0.00
    12   6    -0.01   0.02   0.05     0.02  -0.03  -0.18     0.15   0.04   0.06
    13   6     0.01   0.03   0.16     0.03  -0.04  -0.13     0.16   0.00   0.06
    14   1     0.01   0.04   0.22     0.06  -0.01   0.11     0.12  -0.07  -0.02
    15   1    -0.04  -0.01  -0.02     0.04   0.04   0.25     0.02  -0.07  -0.12
    16   1     0.00   0.03   0.08     0.02  -0.04  -0.30     0.20   0.08   0.11
    17   1     0.04   0.06   0.28     0.03  -0.06  -0.21     0.19   0.00   0.11
    18   6    -0.05  -0.01  -0.11     0.00   0.01  -0.09     0.07   0.06   0.03
    19   6    -0.04   0.01  -0.05    -0.01   0.00  -0.13     0.07   0.07   0.04
    20   7    -0.06  -0.03  -0.15     0.00   0.02   0.00     0.05   0.03  -0.03
    21   8    -0.02   0.05   0.10    -0.05  -0.01  -0.26     0.07   0.10   0.11
    22   8    -0.05  -0.02  -0.15     0.00   0.00   0.00     0.06   0.03   0.05
    23   6    -0.08  -0.03  -0.14    -0.01   0.01  -0.02     0.06   0.05   0.07
    24   1    -0.10  -0.05  -0.12    -0.20  -0.08   0.17     0.13   0.14  -0.01
    25   1    -0.05  -0.02  -0.13     0.23   0.15   0.03    -0.03  -0.07   0.08
    26   1    -0.09  -0.03  -0.17    -0.07  -0.05  -0.31     0.08   0.09   0.23
    27   1     0.01  -0.08   0.02    -0.14  -0.23   0.09    -0.22  -0.28   0.21
    28   8     0.00  -0.04   0.03    -0.17  -0.12   0.07    -0.27  -0.13   0.16
    29  16     0.04   0.00   0.02    -0.06  -0.01   0.01    -0.10  -0.03   0.01
    30   8     0.04   0.01   0.07     0.08  -0.04   0.07     0.04  -0.05   0.11
    31   8     0.06   0.04   0.00    -0.02  -0.01   0.01     0.02  -0.02   0.04
    32   8     0.02  -0.01  -0.02    -0.12   0.09  -0.09    -0.20   0.05  -0.17
                     10                     11                     12
                      A                      A                      A
 Frequencies --    115.7865               123.5353               132.2845
 Red. masses --      8.0203                 4.9297                 2.2971
 Frc consts  --      0.0634                 0.0443                 0.0237
 IR Inten    --      2.6309                 0.1671                 3.2190
  Atom  AN      X      Y      Z        X      Y      Z        X      Y      Z
     1   7     0.12  -0.10  -0.07     0.02  -0.02   0.02    -0.01   0.00  -0.05
     2   8     0.31  -0.20  -0.11     0.10  -0.07  -0.02    -0.02   0.00  -0.04
     3   8    -0.03  -0.19   0.15    -0.10  -0.14  -0.24     0.00   0.01   0.01
     4   6     0.04   0.11  -0.24     0.04   0.14   0.30    -0.02  -0.02  -0.11
     5   1     0.18   0.21  -0.39     0.16   0.24   0.45    -0.04  -0.04  -0.15
     6   1    -0.15   0.18  -0.17    -0.04   0.17   0.32    -0.02  -0.02  -0.11
     7   1    -0.01  -0.26   0.11    -0.05  -0.08  -0.11     0.00   0.00   0.00
     8   6     0.00   0.01   0.01     0.02  -0.02  -0.04     0.01   0.01   0.06
     9   6    -0.01  -0.01  -0.04     0.02   0.00   0.03     0.02   0.02   0.12
    10   6    -0.01  -0.01  -0.04     0.03   0.02   0.07     0.01   0.01   0.05
    11   6     0.00   0.00  -0.01     0.03   0.02   0.06     0.00   0.00  -0.01
    12   6     0.00   0.01   0.04     0.03   0.00  -0.01    -0.01  -0.02  -0.08
    13   6     0.00   0.01   0.06     0.03  -0.02  -0.06    -0.01  -0.02  -0.06
    14   1     0.00   0.01   0.01     0.02  -0.04  -0.09     0.02   0.02   0.10
    15   1    -0.01  -0.01  -0.07     0.02  -0.01   0.03     0.04   0.04   0.21
    16   1     0.01   0.02   0.08     0.04   0.00  -0.03    -0.02  -0.04  -0.15
    17   1     0.01   0.03   0.10     0.02  -0.04  -0.13    -0.02  -0.03  -0.12
    18   6     0.00  -0.01   0.00     0.02   0.01   0.02     0.01   0.01   0.03
    19   6     0.00   0.00   0.01     0.02   0.02   0.03     0.02   0.01   0.08
    20   7    -0.01  -0.01  -0.04     0.03   0.02   0.08     0.01   0.01   0.04
    21   8     0.02   0.01   0.08     0.01   0.00  -0.04     0.03   0.03   0.14
    22   8     0.00   0.00   0.01     0.00  -0.02  -0.07     0.01   0.01   0.03
    23   6     0.02   0.02   0.09    -0.01  -0.03  -0.15    -0.01  -0.03  -0.15
    24   1     0.02   0.12   0.09     0.00  -0.20  -0.15    -0.26  -0.26   0.11
    25   1     0.02  -0.08   0.14    -0.01   0.14  -0.22     0.30   0.29  -0.13
    26   1     0.03   0.04   0.17    -0.03  -0.06  -0.28    -0.10  -0.15  -0.62
    27   1    -0.02   0.00  -0.12    -0.05  -0.07   0.01     0.00   0.03   0.00
    28   8     0.00  -0.08  -0.13    -0.06  -0.04   0.01     0.01   0.00  -0.01
    29  16    -0.08   0.07   0.02    -0.04   0.02   0.02     0.00   0.00   0.00
    30   8    -0.02   0.07   0.10    -0.01   0.03   0.08     0.00   0.00  -0.01
    31   8    -0.23   0.13  -0.06    -0.04   0.05   0.00    -0.01   0.00   0.00
    32   8    -0.04   0.11   0.12    -0.05   0.03  -0.01     0.00   0.00   0.01
                     13                     14                     15
                      A                      A                      A
 Frequencies --    141.3109               147.7385               173.8323
 Red. masses --      2.0907                 2.4788                 6.3948
 Frc consts  --      0.0246                 0.0319                 0.1139
 IR Inten    --      0.8732                 1.1365                 1.3623
  Atom  AN      X      Y      Z        X      Y      Z        X      Y      Z
     1   7     0.01   0.01   0.02     0.01   0.00   0.04     0.02   0.02   0.00
     2   8    -0.02  -0.01  -0.07    -0.03  -0.02  -0.07    -0.02   0.04   0.01
     3   8     0.03   0.03   0.08     0.02   0.02   0.06     0.06   0.06   0.11
     4   6     0.02   0.01   0.06     0.03   0.01   0.16     0.01  -0.05  -0.12
     5   1     0.00  -0.01   0.01     0.02   0.01   0.16    -0.05  -0.10  -0.21
     6   1     0.04   0.02   0.13     0.06   0.03   0.25     0.05  -0.06  -0.11
     7   1     0.01   0.01   0.04     0.00   0.01   0.02     0.06   0.03   0.05
     8   6     0.01   0.02   0.08     0.00   0.00   0.01    -0.03  -0.04  -0.18
     9   6     0.01   0.01   0.04    -0.02  -0.02  -0.09    -0.02  -0.02  -0.08
    10   6     0.00   0.00  -0.02    -0.02  -0.02  -0.10     0.02   0.03   0.14
    11   6    -0.01  -0.02  -0.07    -0.01  -0.01  -0.07     0.03   0.05   0.21
    12   6    -0.01  -0.01  -0.06     0.01   0.01   0.03     0.03   0.04   0.19
    13   6     0.00   0.01   0.02     0.02   0.02   0.08     0.00   0.00   0.00
    14   1     0.03   0.04   0.15     0.01   0.01   0.04    -0.07  -0.09  -0.39
    15   1     0.02   0.02   0.07    -0.03  -0.03  -0.11    -0.04  -0.05  -0.20
    16   1    -0.02  -0.03  -0.11     0.02   0.03   0.08     0.04   0.06   0.26
    17   1     0.01   0.01   0.04     0.03   0.04   0.18    -0.01  -0.01  -0.05
    18   6    -0.01  -0.01  -0.06    -0.02  -0.01  -0.07     0.00   0.00  -0.01
    19   6     0.01   0.01   0.03    -0.01   0.00  -0.01     0.01   0.02   0.07
    20   7     0.00   0.00   0.00    -0.02  -0.02  -0.12     0.03   0.04   0.18
    21   8     0.02   0.03   0.12     0.02   0.03   0.12    -0.01   0.00  -0.03
    22   8    -0.02  -0.02  -0.11    -0.02  -0.01  -0.08    -0.07  -0.10  -0.40
    23   6    -0.03  -0.03  -0.10     0.01   0.02   0.04     0.00   0.00  -0.04
    24   1     0.34   0.02  -0.47    -0.34   0.01   0.40    -0.07  -0.19   0.03
    25   1    -0.50  -0.21  -0.25     0.47   0.16   0.21     0.08   0.21  -0.09
    26   1     0.07   0.09   0.38    -0.07  -0.08  -0.39    -0.03  -0.07  -0.27
    27   1    -0.01  -0.04   0.00    -0.01  -0.02   0.01    -0.01  -0.19  -0.12
    28   8    -0.01  -0.02   0.01    -0.01  -0.01   0.01    -0.02  -0.03   0.01
    29  16     0.00   0.00   0.00     0.00   0.00   0.00    -0.01  -0.01   0.01
    30   8     0.02  -0.01   0.00     0.01   0.00   0.00     0.02  -0.02  -0.01
    31   8    -0.01  -0.01   0.00     0.01   0.00   0.00    -0.01  -0.03   0.02
    32   8    -0.01   0.02   0.00     0.00   0.00  -0.02    -0.01   0.05   0.03
                     16                     17                     18
                      A                      A                      A
 Frequencies --    240.6766               245.3673               299.9566
 Red. masses --      3.2735                 7.4253                 5.4098
 Frc consts  --      0.1117                 0.2634                 0.2868
 IR Inten    --      1.6504               109.5799                 0.5920
  Atom  AN      X      Y      Z        X      Y      Z        X      Y      Z
     1   7     0.02   0.00  -0.01     0.16   0.02  -0.05     0.00   0.01  -0.01
     2   8     0.00   0.01   0.00    -0.01   0.12  -0.01     0.01   0.01   0.00
     3   8     0.02   0.01  -0.03     0.22   0.11  -0.20     0.00   0.00  -0.01
     4   6     0.02  -0.02   0.01     0.21  -0.16   0.05     0.00   0.01  -0.01
     5   1     0.01  -0.02   0.02     0.08  -0.25   0.20     0.00   0.01  -0.02
     6   1     0.04  -0.02   0.00     0.39  -0.22  -0.01    -0.01   0.00  -0.04
     7   1     0.03   0.01  -0.03     0.29   0.14  -0.26     0.00   0.00  -0.01
     8   6    -0.02   0.14  -0.03     0.01  -0.03   0.03     0.00   0.01   0.02
     9   6     0.08   0.08  -0.03    -0.02  -0.02   0.01    -0.03  -0.05  -0.22
    10   6     0.09  -0.05   0.00    -0.03   0.01  -0.03    -0.01  -0.02  -0.08
    11   6     0.07  -0.06   0.01    -0.02   0.01  -0.02    -0.04  -0.07  -0.25
    12   6    -0.06  -0.01   0.02     0.01   0.00  -0.03    -0.03  -0.03  -0.10
    13   6    -0.08   0.10  -0.02     0.02  -0.02   0.01     0.03   0.05   0.21
    14   1    -0.03   0.21  -0.05     0.01  -0.03   0.07     0.01   0.04   0.12
    15   1     0.17   0.15  -0.05    -0.04  -0.03   0.02    -0.03  -0.06  -0.27
    16   1    -0.15  -0.09   0.05     0.03   0.02  -0.04    -0.04  -0.04  -0.11
    17   1    -0.14   0.12  -0.02     0.03  -0.03   0.02     0.07   0.12   0.52
    18   6     0.08  -0.02   0.00    -0.02   0.01   0.01     0.00  -0.02  -0.05
    19   6     0.04   0.01  -0.01    -0.01   0.00   0.00     0.02   0.02   0.12
    20   7     0.04  -0.05  -0.01    -0.02   0.00  -0.03     0.06   0.08   0.38
    21   8     0.02   0.03  -0.01    -0.01   0.00   0.00    -0.02  -0.03  -0.08
    22   8     0.10   0.03  -0.02    -0.02   0.00   0.05     0.03   0.03   0.05
    23   6    -0.24  -0.17   0.08     0.05   0.04  -0.02    -0.01   0.00   0.00
    24   1    -0.32  -0.34   0.16     0.07   0.11  -0.03     0.01  -0.30  -0.01
    25   1    -0.24  -0.31   0.14     0.06   0.05  -0.02    -0.04   0.27  -0.13
    26   1    -0.45   0.03   0.01     0.10   0.00   0.01    -0.04  -0.06  -0.21
    27   1    -0.02  -0.04  -0.01    -0.04  -0.15  -0.11    -0.01   0.05   0.04
    28   8    -0.02  -0.01   0.01    -0.03  -0.07  -0.04     0.00   0.00   0.00
    29  16    -0.02  -0.01   0.00    -0.10  -0.04   0.02     0.00   0.00   0.00
    30   8     0.00  -0.01   0.00    -0.05  -0.06  -0.12     0.00   0.00   0.00
    31   8    -0.02  -0.01   0.01    -0.20  -0.07   0.04    -0.01   0.00   0.00
    32   8    -0.02   0.02   0.02    -0.02   0.16   0.32     0.00   0.00   0.00
                     19                     20                     21
                      A                      A                      A
 Frequencies --    313.5094               332.3379               400.5756
 Red. masses --      5.4403                 7.9844                 7.2513
 Frc consts  --      0.3150                 0.5196                 0.6855
 IR Inten    --      8.0734                30.6488                 4.1540
  Atom  AN      X      Y      Z        X      Y      Z        X      Y      Z
     1   7     0.00   0.00   0.00    -0.01   0.00   0.00     0.03   0.00  -0.01
     2   8     0.00   0.00   0.00     0.00  -0.01   0.00     0.01   0.01  -0.01
     3   8     0.00   0.00  -0.01    -0.01  -0.01   0.01     0.02   0.01  -0.01
     4   6     0.00   0.00   0.00    -0.02   0.01   0.00     0.03  -0.02   0.00
     5   1     0.00  -0.01   0.01    -0.01   0.02  -0.01     0.01  -0.04   0.02
     6   1     0.01   0.00   0.01    -0.03   0.02   0.01     0.07  -0.04  -0.02
     7   1     0.01   0.00  -0.01    -0.03   0.00   0.02     0.00   0.01  -0.11
     8   6    -0.11   0.03   0.01     0.00   0.06  -0.01     0.01   0.00  -0.05
     9   6     0.01  -0.03   0.01     0.04   0.02  -0.02     0.02   0.02   0.04
    10   6     0.02  -0.12   0.02     0.04  -0.05   0.00     0.01   0.00   0.01
    11   6     0.05  -0.12   0.03     0.04  -0.03  -0.01     0.00   0.00  -0.03
    12   6    -0.12  -0.08   0.04    -0.01  -0.01   0.00     0.02   0.01   0.04
    13   6    -0.15   0.00   0.02    -0.02   0.04   0.00     0.01   0.01  -0.01
    14   1    -0.12   0.10   0.00    -0.01   0.08   0.00     0.00  -0.01  -0.10
    15   1     0.11   0.04  -0.02     0.09   0.07  -0.04     0.03   0.03   0.08
    16   1    -0.23  -0.17   0.08    -0.05  -0.05   0.01     0.04   0.03   0.10
    17   1    -0.19   0.02   0.01    -0.04   0.06   0.01     0.01   0.01  -0.01
    18   6     0.07   0.01  -0.01     0.09  -0.08   0.00     0.00  -0.03  -0.04
    19   6    -0.06  -0.03   0.01     0.04   0.05  -0.02     0.00   0.00  -0.02
    20   7    -0.03  -0.10   0.01     0.03  -0.08   0.03     0.01  -0.01   0.01
    21   8    -0.14   0.08   0.01    -0.28   0.43  -0.04    -0.04   0.07   0.00
    22   8     0.21   0.28  -0.11    -0.04  -0.34   0.11    -0.03  -0.09   0.01
    23   6     0.24   0.01  -0.04     0.13  -0.06  -0.01     0.01  -0.01   0.00
    24   1     0.29   0.19  -0.10     0.15  -0.01  -0.03     0.01  -0.03  -0.01
    25   1     0.28   0.14  -0.08     0.14   0.01  -0.03     0.00  -0.01  -0.01
    26   1     0.44  -0.21   0.00     0.21  -0.15   0.00     0.01  -0.01   0.00
    27   1    -0.04   0.15   0.05     0.09  -0.58  -0.17    -0.10   0.63   0.36
    28   8     0.00   0.00   0.01    -0.03  -0.04   0.00    -0.06   0.28   0.18
    29  16    -0.02  -0.01   0.00     0.03   0.02   0.00    -0.02  -0.04  -0.01
    30   8     0.03  -0.02   0.04    -0.08   0.04  -0.07     0.29  -0.11   0.02
    31   8    -0.02  -0.02   0.01     0.05   0.03  -0.01    -0.28   0.12  -0.17
    32   8    -0.04   0.01  -0.03     0.05   0.00   0.04     0.02  -0.22   0.02
                     22                     23                     24
                      A                      A                      A
 Frequencies --    414.8526               415.6724               491.6177
 Red. masses --      4.8920                 4.7849                 6.3103
 Frc consts  --      0.4960                 0.4871                 0.8986
 IR Inten    --     10.9505                22.9774                34.1628
  Atom  AN      X      Y      Z        X      Y      Z        X      Y      Z
     1   7    -0.01  -0.01   0.01     0.02   0.01  -0.01     0.00  -0.01   0.01
     2   8     0.00  -0.03   0.01     0.00   0.02   0.00    -0.01  -0.01   0.01
     3   8     0.00  -0.01   0.02     0.00   0.01  -0.01     0.01   0.00   0.00
     4   6    -0.03   0.03  -0.01     0.03  -0.03  -0.01    -0.01   0.01  -0.01
     5   1     0.01   0.06  -0.03    -0.01  -0.05   0.03     0.03   0.04   0.02
     6   1    -0.08   0.05   0.04     0.07  -0.04   0.01    -0.03   0.03   0.04
     7   1    -0.03   0.03   0.00     0.03  -0.03  -0.02     0.02   0.00  -0.01
     8   6     0.02   0.03   0.15     0.03   0.04   0.15     0.14   0.14  -0.03
     9   6    -0.03  -0.04  -0.16    -0.03  -0.03  -0.17     0.01   0.17   0.02
    10   6     0.00   0.00   0.00     0.00   0.01   0.00    -0.06  -0.06  -0.20
    11   6     0.03   0.03   0.16     0.02   0.05   0.17     0.01  -0.02  -0.12
    12   6    -0.03  -0.04  -0.16    -0.02  -0.03  -0.17     0.17   0.02   0.06
    13   6    -0.01   0.00   0.00     0.01   0.01   0.00     0.15   0.12  -0.15
    14   1     0.05   0.08   0.34     0.07   0.07   0.34     0.18   0.07   0.16
    15   1    -0.06  -0.09  -0.37    -0.07  -0.09  -0.38     0.11   0.27   0.29
    16   1    -0.09  -0.11  -0.40    -0.05  -0.08  -0.42     0.24   0.10   0.38
    17   1    -0.01  -0.01  -0.01     0.01   0.00  -0.01     0.07   0.17  -0.13
    18   6     0.02   0.05   0.16     0.03   0.02   0.16    -0.01   0.00   0.21
    19   6     0.01   0.01   0.08     0.02   0.02   0.07    -0.11  -0.09   0.27
    20   7    -0.02  -0.01  -0.06     0.00  -0.02  -0.06    -0.10  -0.07   0.00
    21   8     0.02  -0.06  -0.04    -0.03   0.04  -0.05    -0.20  -0.16  -0.03
    22   8     0.01   0.05  -0.08    -0.04  -0.09  -0.04    -0.02   0.00  -0.08
    23   6     0.00   0.01   0.01     0.00  -0.01   0.01     0.03  -0.04   0.02
    24   1    -0.02   0.07   0.03    -0.02   0.04   0.04     0.04   0.06   0.00
    25   1     0.04  -0.03   0.04     0.04  -0.06   0.05     0.05   0.01   0.01
    26   1     0.00   0.01   0.01     0.00   0.00   0.01     0.12  -0.14   0.03
    27   1    -0.05  -0.46   0.11     0.04   0.44  -0.13     0.00   0.00  -0.01
    28   8    -0.15  -0.05   0.14     0.14   0.11  -0.10     0.00   0.00   0.00
    29  16     0.02   0.02  -0.01    -0.02  -0.03   0.01     0.00   0.00  -0.01
    30   8     0.01   0.00  -0.16     0.05  -0.02   0.16     0.00   0.00   0.01
    31   8     0.02   0.14  -0.09    -0.07  -0.12   0.06     0.00  -0.01   0.00
    32   8     0.11  -0.09   0.11    -0.10   0.05  -0.12     0.01   0.00   0.00
                     25                     26                     27
                      A                      A                      A
 Frequencies --    496.0191               542.6626               543.5326
 Red. masses --      5.7429                 3.6469                 3.8819
 Frc consts  --      0.8325                 0.6327                 0.6757
 IR Inten    --     39.1808                57.3779                11.5055
  Atom  AN      X      Y      Z        X      Y      Z        X      Y      Z
     1   7    -0.01   0.00  -0.01     0.01  -0.11   0.03     0.01  -0.10   0.02
     2   8     0.01   0.00   0.00    -0.11  -0.06   0.03    -0.10  -0.05   0.03
     3   8     0.00   0.00   0.00     0.14   0.01  -0.02     0.13   0.01  -0.02
     4   6     0.01  -0.01   0.01    -0.06   0.13  -0.03    -0.05   0.12  -0.02
     5   1    -0.02  -0.03  -0.01     0.27   0.39  -0.15     0.25   0.36  -0.15
     6   1     0.02  -0.03  -0.05    -0.45   0.28   0.09    -0.42   0.25   0.06
     7   1    -0.01   0.00   0.02     0.14   0.12  -0.09     0.13   0.11  -0.08
     8   6     0.11   0.11  -0.08    -0.08  -0.03   0.00     0.10   0.03  -0.02
     9   6     0.00   0.12  -0.09    -0.13   0.01   0.03     0.15  -0.01  -0.03
    10   6     0.02   0.04   0.23    -0.09   0.01   0.04     0.11   0.00  -0.02
    11   6     0.05   0.02   0.13    -0.02   0.08  -0.02     0.02  -0.10   0.03
    12   6     0.12  -0.03  -0.12     0.03   0.11  -0.04    -0.04  -0.13   0.04
    13   6     0.15   0.14   0.06     0.04   0.06   0.00    -0.04  -0.07   0.02
    14   1     0.09  -0.02  -0.25    -0.08  -0.14  -0.02     0.08   0.16  -0.04
    15   1    -0.02   0.07  -0.43    -0.16  -0.01   0.01     0.18   0.00  -0.04
    16   1     0.05  -0.12  -0.47     0.05   0.12  -0.08    -0.06  -0.15   0.04
    17   1     0.07   0.17   0.03     0.13   0.03   0.01    -0.16  -0.03   0.02
    18   6    -0.07  -0.08  -0.19     0.02   0.05  -0.02    -0.03  -0.06   0.01
    19   6    -0.17  -0.16  -0.19     0.06  -0.02   0.00    -0.06   0.03   0.00
    20   7    -0.08  -0.05   0.05     0.05  -0.10   0.01    -0.05   0.11  -0.02
    21   8    -0.13  -0.09   0.15     0.03   0.02  -0.01    -0.03  -0.01   0.01
[...]
 0.00006366,0.00000170,0.00026329,0.00449137,0.00050439,-0.00252710,0.0
 0020935,0.00034256,-0.00009575,0.00049051,0.00026131,-0.00015029,-0.00
 016919,0.00089219,-0.00028347,0.00522387,0.00068780,-0.00091020,-0.000
 74952,-0.00176839,0.00050662,0.00105655,-0.00030258,-0.00012999,0.0000
 5410,0.00003094,-0.00001304,0.00012391,-0.00004257,-0.00001662,-0.0001
 7819,-0.00000167,0.00004138,0.00014312,0.00007509,-0.00004220,-0.01856
 332,0.00555053,0.00271973,-0.00444728,0.00255142,0.00002907,0.00195107
 ,-0.00154894,0.00011506,0.00205377,-0.00332573,0.00043366,0.01423029,0
 .00035076,-0.00418894,-0.00006421,0.00091268,-0.00016792,0.00020302,-0
 .00019618,0.00002798,0.00018082,-0.00019602,-0.00002251,-0.00012622,0.
 00004975,0.00000829,0.40252692,0.00125446,0.00046223,-0.00075257,-0.00
 054045,-0.00033797,0.00057670,-0.00063835,-0.00016271,0.00028959,-0.00
 047189,-0.00015578,-0.00023960,-0.00000475,-0.00000362,0.00001347,0.00
 001812,0.00001934,0.00008186,0.00089943,0.00049216,-0.00109551,0.00007
 810,0.00045161,-0.00010716,-0.00019116,-0.00024286,0.00006460,0.000691
 41,0.00195247,-0.00060772,0.00300147,-0.00041274,-0.00020011,-0.000629
 18,-0.00086608,0.00029161,0.00063063,-0.00038043,-0.00003847,0.0000044
 8,-0.00000034,0.00000267,0.00007091,-0.00001136,-0.00001253,-0.0000490
 7,0.00000750,0.00001845,0.00004607,0.00002434,-0.00001391,-0.00552997,
 0.00634372,0.00013197,0.00603048,0.00262268,-0.00190668,-0.00253859,-0
 .00115234,0.00078162,-0.00509491,-0.00084792,0.00088420,0.00703514,-0.
 00830277,-0.00075414,0.00003055,-0.00007174,0.00004522,0.00000410,0.00
 001209,-0.00001311,0.00000482,0.00002800,-0.00000176,0.00004658,-0.000
 06223,0.00000445,0.09908593,0.04812559,0.00173263,-0.00147678,-0.00108
 221,-0.00040062,0.00034187,0.00050868,-0.00029115,0.00137911,0.0021757
 6,-0.00027747,0.00017971,0.00015943,-0.00001235,-0.00005596,0.00000384
 ,-0.00001167,0.00005453,-0.00011227,-0.00157731,-0.00058513,-0.0020544
 0,-0.00007217,-0.00018727,0.00007267,-0.00009329,-0.00005601,-0.000100
 25,-0.00005531,-0.00050988,0.00019627,-0.00159071,0.00019993,0.0017034
 2,0.00031770,0.00064621,-0.00020858,-0.00043379,0.00012502,-0.00006452
 ,-0.00001379,-0.00000594,0.00001736,-0.00004682,0.00001285,-0.00000162
 ,0.00006117,0.00000747,0.00004008,-0.00004774,-0.00002534,0.00001359,0
 .00540925,-0.00221041,-0.00011360,0.00011130,-0.00133882,-0.00045120,-
 0.00000358,0.00062315,0.00010507,0.00034695,0.00044628,-0.00118424,-0.
 00593577,0.00048414,-0.00494242,0.00004319,-0.00024700,0.00011973,-0.0
 0006068,0.00003620,-0.00000469,-0.00005154,0.00006571,0.00000180,0.000
 02732,-0.00000230,-0.00000630,-0.08812124,-0.04265299,0.06733562,-0.00
 164860,0.00051769,-0.00059781,0.00069117,0.00002890,0.00019495,0.00440
 881,0.00016327,-0.00086880,0.00104289,0.00006361,0.00058721,0.00005280
 ,-0.00005187,-0.00009223,-0.00005568,-0.00001475,-0.00019185,-0.007653
 09,-0.00061584,0.00202682,-0.00014671,-0.00016789,0.00005162,-0.000464
 55,-0.00022887,0.00012645,0.00012766,-0.00038008,0.00014515,-0.0036388
 7,-0.00024829,0.00066273,0.00050666,0.00126677,-0.00035569,-0.00070685
 ,0.00015309,0.00009132,-0.00004316,-0.00002563,0.00001204,-0.00009302,
 0.00002957,0.00001138,0.00012657,-0.00000684,-0.00002440,-0.00010487,-
 0.00005514,0.00003024,0.01021115,-0.00530224,-0.00106827,0.00416885,-0
 .00101920,-0.00044053,-0.00229587,0.00084965,0.00015999,-0.00407483,0.
 00267127,-0.00009725,-0.02390161,-0.00529632,0.00604672,0.00009409,-0.
 00075771,0.00014492,-0.00015552,0.00015321,-0.00002702,-0.00013989,0.0
 0016110,0.00001802,0.00011115,-0.00004434,-0.00000904,-0.37569284,-0.1
 1867731,0.11883756,0.56787474,-0.00064348,-0.00001007,0.00040646,0.000
 23375,0.00010381,-0.00036657,0.00055564,-0.00001687,-0.00031430,0.0002
 0061,0.00000510,0.00001362,0.00000714,0.00001445,0.00000463,-0.0000015
 4,-0.00001654,-0.00000501,-0.00067963,-0.00071741,0.00101802,-0.000010
 51,-0.00017854,0.00004088,0.00016745,0.00017348,-0.00006118,-0.0003748
 4,-0.00085666,0.00026800,-0.00068377,0.00031045,0.00000799,0.00018378,
 0.00016390,-0.00006662,-0.00016438,0.00013711,-0.00000055,0.00000475,0
 .00000443,-0.00000254,-0.00002076,-0.00000043,0.00000385,0.00000691,0.
 00000070,-0.00000352,-0.00000559,-0.00000192,0.00000153,0.00059302,-0.
 00229293,0.00019717,-0.00310275,-0.00131034,0.00090739,0.00157224,0.00
 047974,-0.00039032,0.00342375,-0.00000143,-0.00082304,-0.00544453,0.00
 232279,0.00094536,-0.00003551,0.00015511,-0.00004329,0.00002164,-0.000
 02841,0.00001100,0.00001753,-0.00003616,-0.00000350,-0.00003660,0.0000
 3169,-0.00000100,-0.10356124,-0.05396953,0.04970475,0.07600406,0.14646
 546,-0.00260354,0.00199071,0.00024081,0.00093312,-0.00046831,-0.000248
 91,0.00577572,-0.00061143,-0.00252964,0.00095048,-0.00031092,0.0001284
 7,0.00008637,0.00002389,-0.00002329,-0.00002279,-0.00006525,-0.0000092
 6,-0.01005915,-0.00114803,0.00618171,0.00000112,0.00004599,-0.00001912
 ,-0.00007368,-0.00004485,0.00007006,0.00007673,0.00016046,-0.00004649,
 -0.00019015,-0.00017873,-0.00041368,-0.00002171,0.00000734,0.00001934,
 0.00002552,-0.00002196,0.00003802,-0.00000326,-0.00000279,-0.00000402,
 0.00000167,0.00000104,0.00000012,0.00000338,-0.00000499,-0.00001925,-0
 .00000205,-0.00000139,-0.00000060,0.00081994,0.00014673,-0.00044521,0.
 00139263,0.00053712,-0.00012190,-0.00055419,-0.00009627,0.00001584,-0.
 00146500,0.00008036,0.00080064,0.00027259,-0.00064638,0.00342600,-0.00
 000616,-0.00005622,-0.00001765,-0.00000715,0.00001760,-0.00000408,-0.0
 0001295,0.00000894,0.00000117,0.00001399,-0.00001270,-0.00000049,0.097
 51714,0.04901211,-0.06674786,-0.01981878,-0.11346968,0.23437507,-0.003
 60292,0.00322233,0.00092303,0.00075037,-0.00079017,-0.00083113,-0.0008
 8740,-0.00487700,-0.00193700,0.00064474,-0.00056152,-0.00039847,0.0000
 6093,0.00012943,0.00004162,0.00002559,-0.00009104,0.00019347,-0.000736
 21,0.00831080,0.01301697,0.00013881,0.00018403,-0.00006168,0.00037158,
 0.00025415,-0.00009536,-0.00026155,0.00023286,-0.00005163,0.00302278,0
 .00046178,-0.00095392,-0.00049204,-0.00114900,0.00036704,0.00068227,-0
 .00018525,-0.00006191,0.00003847,0.00002238,-0.00001164,0.00007143,-0.
 00002825,-0.00000830,-0.00009833,0.00000268,0.00000665,0.00008716,0.00
 004775,-0.00002686,-0.00898060,0.00295781,0.00098203,-0.00391458,0.000
 95297,0.00033029,0.00186407,-0.00058638,-0.00010069,0.00318585,-0.0016
 3104,0.00024651,0.01422787,0.00028251,-0.00032050,-0.00011967,0.000676
 21,-0.00015247,0.00013825,-0.00012842,0.00002383,0.00011625,-0.0001381
 8,-0.00002292,-0.00009040,0.00003428,0.00000649,-0.04482391,0.01054118
 ,-0.02731576,-0.13600608,0.01953318,-0.04223048,0.87189994,0.00628576,
 -0.00664690,-0.00015095,-0.00273511,0.00149710,0.00115202,-0.02440702,
 -0.00028509,0.00999446,-0.00269503,0.00125042,-0.00017886,-0.00033342,
 -0.00009036,-0.00003865,0.00005963,0.00022972,-0.00000046,0.03745518,0
 .00651096,-0.02090016,-0.00005411,0.00002224,0.00000753,-0.00016131,-0
 .00013147,0.00006063,0.00027581,0.00034495,-0.00017330,-0.00068055,-0.
 00020343,0.00005398,0.00008255,0.00030442,-0.00011738,-0.00012452,-0.0
 0001390,0.00003379,-0.00001623,-0.00001128,0.00000256,-0.00001539,0.00
 000972,0.00000601,0.00002279,-0.00000917,-0.00000540,-0.00002971,-0.00
 001551,0.00001013,0.00207604,-0.00014423,0.00027191,0.00194796,-0.0001
 5083,0.00006771,-0.00115913,-0.00006464,0.00002732,-0.00159696,0.00050
 178,-0.00017608,-0.00380863,-0.00330579,0.00238378,0.00007111,-0.00027
 999,0.00008617,-0.00005332,0.00005223,-0.00001412,-0.00003151,0.000056
 75,0.00001592,0.00003368,-0.00001284,0.00000219,0.00553352,0.01017635,
 -0.00814084,0.02870642,-0.09424449,0.04803960,0.13227958,0.90742604,0.
 01210202,-0.01053018,0.00110354,-0.00467583,0.00258037,0.00086867,-0.0
 3336192,0.00266081,0.01426524,-0.00487377,0.00180450,-0.00072350,-0.00
 050548,-0.00012941,0.00000358,0.00014357,0.00033680,0.00013972,0.05401
 703,0.00100929,-0.03660223,0.00002386,0.00001068,0.00001029,0.00024697
 ,0.00007983,-0.00007064,0.00006602,0.00022477,-0.00018365,0.00160877,-
 0.00001646,-0.00016782,-0.00011750,-0.00040544,0.00003641,0.00020077,-
 0.00001152,-0.00004326,0.00001243,0.00000662,-0.00000412,0.00003591,-0
 .00000704,0.00000193,-0.00005945,0.00000434,0.00002552,0.00003705,0.00
 001783,-0.00000622,-0.00505909,0.00309964,0.00144903,-0.00293357,-0.00
 039938,0.00110711,0.00105689,-0.00042310,-0.00033319,0.00316263,-0.001
 39668,-0.00055686,0.01169021,0.00311101,-0.00439697,0.00003355,0.00021
 628,0.00000538,0.00004722,-0.00005366,0.00000921,0.00006636,-0.0000580
 2,0.00000990,-0.00005383,0.00003689,0.00000962,-0.01873269,-0.00943191
 ,0.01025771,-0.05373584,0.04518704,-0.14362458,-0.19727852,0.01590203,
 0.72812328,0.00067082,-0.00104468,0.00011746,0.00010727,0.00041014,-0.
 00008797,0.00006182,0.00134427,0.00052429,-0.00004307,0.00018048,0.000
 12213,-0.00001194,-0.00002891,-0.00000976,-0.00000477,0.00001903,-0.00
 006857,-0.00130287,-0.00215641,-0.00092208,-0.00004201,-0.00009720,0.0
 0002869,-0.00007242,-0.00005155,0.00001226,0.00001045,-0.00023842,0.00
 007769,-0.00095313,-0.00014148,0.00033026,0.00019109,0.00037545,-0.000
 12111,-0.00024483,0.00009353,0.00001251,-0.00000970,-0.00000500,0.0000
 0356,-0.00002308,0.00000879,0.00000196,0.00002721,0.00000241,0.0000014
 3,-0.00002528,-0.00001446,0.00000779,0.00265846,-0.00078187,-0.0003589
 1,0.00040888,-0.00049792,0.00010968,-0.00022929,0.00025012,-0.00004376
 ,-0.00031630,0.00046335,-0.00013869,-0.00440824,0.00137374,-0.00147236
 ,0.00002957,-0.00016430,0.00003302,-0.00003550,0.00003116,-0.00000442,
 -0.00003033,0.00003157,0.00000638,0.00001869,-0.00000343,-0.00000197,0
 .00526332,-0.00331567,0.00223964,0.00868071,0.02482455,-0.01354674,-0.
 12095074,-0.10995330,0.01970919,0.10071090,-0.00250081,0.00195915,0.00
 019191,0.00128362,-0.00049804,-0.00044313,0.00695532,0.00009575,-0.002
 59425,0.00089771,-0.00037122,0.00001461,0.00009938,0.00003980,0.000011
 24,-0.00001128,-0.00007755,0.00001690,-0.01234876,-0.00224723,0.007246
 27,0.00002860,-0.00000309,-0.00000548,0.00008981,0.00007197,-0.0000273
 6,-0.00012264,-0.00013236,0.00006375,0.00042401,0.00010222,-0.00010378
 ,-0.00005529,-0.00018473,0.00006226,0.00008395,0.00000003,-0.00001403,
 0.00000831,0.00000570,-0.00000225,0.00000934,-0.00000504,-0.00000232,-
 0.00001265,0.00000403,0.00000109,0.00001677,0.00000853,-0.00000517,-0.
 00130704,0.00024725,-0.00002082,-0.00103326,0.00004042,0.00004608,0.00
 058525,0.00000842,-0.00003694,0.00100418,-0.00030804,0.00001283,0.0016
 5149,0.00111272,-0.00069434,-0.00003291,0.00014589,-0.00004139,0.00002
 828,-0.00002731,0.00000722,0.00001925,-0.00003031,-0.00000653,-0.00001
 809,0.00000749,-0.00000033,-0.00759354,-0.00320723,0.00055577,0.008305
 60,-0.02202309,0.01680795,-0.11079210,-0.52004767,0.06570763,0.1270888
 9,0.59121731,-0.00191077,0.00134388,-0.00026656,0.00074280,-0.00042138
 ,-0.00006256,0.00347174,-0.00068102,-0.00140729,0.00067862,-0.00021393
 ,0.00011072,0.00005919,0.00002080,-0.00001312,-0.00001951,-0.00004258,
 -0.00001518,-0.00590996,0.00069827,0.00361610,-0.00000569,0.00000028,-
 0.00000179,-0.00004805,-0.00001998,0.00001508,0.00000189,-0.00001511,0
 .00002040,-0.00027853,-0.00000979,0.00002596,0.00002092,0.00007719,-0.
 00001063,-0.00003667,0.00000036,0.00000963,-0.00000280,-0.00000165,0.0
 0000050,-0.00000623,0.00000133,-0.00000036,0.00000908,-0.00000154,-0.0
 0000606,-0.00000732,-0.00000348,0.00000097,0.00081768,-0.00046956,-0.0
 0026359,0.00054298,0.00008724,-0.00020764,-0.00023404,0.00006399,0.000
 06304,-0.00064444,0.00022303,0.00011052,-0.00219029,-0.00003481,0.0002
 6982,-0.00000256,-0.00004742,0.00000232,-0.00000988,0.00001088,-0.0000
 0236,-0.00001249,0.00001213,-0.00000114,0.00001009,-0.00000694,-0.0000
 0188,0.00524345,0.00019985,-0.00136936,-0.00868890,0.03334944,-0.00258
 558,0.01907178,0.06459719,-0.09696315,-0.02117525,-0.07881600,0.084430
 31,0.01067377,-0.01739869,0.00297989,-0.00319171,0.00438587,0.00050864
 ,-0.05999681,0.00090450,0.02981490,-0.00547483,0.00312914,-0.00068711,
 -0.00072081,-0.00018787,-0.00022726,0.00025147,0.00047653,0.00008784,0
 .01531968,-0.00188936,-0.02237443,-0.00007483,-0.00006632,0.00004030,-
 0.00007633,-0.00011814,0.00003476,0.00028160,0.00023898,-0.00019846,-0
 .00061108,-0.00029710,0.00022011,0.00018752,0.00039136,-0.00019425,-0.
 00022861,0.00006880,0.00002353,-0.00001719,-0.00001191,0.00000192,-0.0
 0001840,0.00001441,0.00000692,0.00001841,-0.00000446,0.00000524,-0.000
 02958,-0.00001934,0.00001203,0.00145517,0.00075298,0.00075351,0.000840
 33,-0.00070267,0.00068202,-0.00076978,-0.00007223,-0.00019990,-0.00032
 018,0.00025540,-0.00046957,-0.00091641,-0.00019678,-0.00082729,0.00012
 003,-0.00032241,0.00011558,-0.00005770,0.00005311,-0.00001098,-0.00002
 803,0.00005313,0.00003056,0.00002220,0.00000200,0.00000178,0.00242974,
 0.00090741,0.00377139,0.00970014,-0.00613518,-0.02510764,-0.10141353,0
 .01724190,0.03616712,0.01919295,-0.00366216,-0.00199838,0.12729515,-0.
 00659763,-0.00187090,0.00276558,0.00485953,0.00002061,-0.00136421,0.00
 584837,0.00967677,-0.00276866,0.00139168,0.00059078,-0.00010236,-0.000
 05461,-0.00002031,-0.00008827,0.00002286,-0.00005442,0.00003851,-0.017
 34883,-0.01902195,0.00581369,0.00000813,-0.00001662,-0.00000050,0.0000
 0806,0.00002386,-0.00000877,-0.00008926,-0.00014839,0.00008013,-0.0001
 1291,0.00005705,0.00005037,0.00000886,0.00000224,0.00001935,-0.0000127
 5,0.00001180,-0.00000373,0.00000191,0.00000170,0.00000038,-0.00000270,
 -0.00000108,-0.00000151,0.00000471,0.00000236,-0.00000123,0.00000102,0
 .00000073,-0.00000137,0.00046183,-0.00049149,-0.00024925,-0.00014076,0
 .00001867,-0.00016355,0.00017159,0.00009852,0.00002371,-0.00001288,0.0
 0014555,0.00010836,-0.00104513,0.00029503,-0.00004487,-0.00002072,0.00
 003256,-0.00001894,0.00000543,-0.00000441,0.00000236,-0.00000272,-0.00
 000550,-0.00000418,-0.00000119,-0.00000130,-0.00000254,0.00184328,-0.0
 0079882,-0.00014197,0.00012538,0.01345376,0.00292278,0.02687398,-0.195
 53196,-0.15952530,0.00280086,-0.03610412,-0.03953189,-0.01854661,0.217
 13355,-0.00710597,0.01410649,-0.00275130,0.00228931,-0.00299771,0.0004
 9524,0.05160097,0.00008006,-0.01437327,0.00426964,-0.00276378,0.000553
 17,0.00064635,0.00007443,-0.00003461,-0.00019149,-0.00035277,-0.000042
 78,-0.04264401,-0.00536876,0.00909785,0.00002112,0.00000985,-0.0000174
 6,-0.00006177,0.00001791,0.00000933,-0.00014918,-0.00023495,0.00017320
 ,-0.00041407,0.00011357,0.00005742,-0.00001537,0.00002013,0.00005926,-
 0.00000685,-0.00001127,0.00000467,0.00000202,0.00000257,0.00000120,-0.
 00000716,-0.00000300,-0.00000406,0.00001588,0.00000099,-0.00001026,-0.
 00000288,0.00000053,-0.00000259,0.00165313,-0.00156647,-0.00098442,0.0
 0067513,0.00034758,-0.00070066,-0.00002294,0.00023367,0.00020528,-0.00
 093317,0.00034881,0.00036086,-0.00394605,-0.00033921,0.00124432,-0.000
 06418,0.00005078,-0.00005049,0.00000537,-0.00000134,0.00000156,-0.0000
 1530,0.00000052,-0.00001653,0.00001045,-0.00001371,-0.00000485,0.00921
 729,0.00218463,-0.00314889,-0.01846640,-0.01454081,-0.04009051,0.05080
 818,-0.15346289,-0.30337263,0.00146935,-0.01272708,0.00334709,-0.06927
 883,0.19659872,0.37379557,0.00215677,-0.00258263,0.00000843,-0.0007703
 7,0.00071109,0.00024758,-0.00643386,0.00076560,0.00263247,-0.00074379,
 0.00049040,0.00006222,-0.00009899,-0.00004787,-0.00001723,0.00001542,0
 .00007442,-0.00005595,0.01046563,0.00102871,-0.00535610,-0.00004951,-0
 .00005529,0.00002033,-0.00012427,-0.00008774,0.00003619,0.00010362,-0.
 00002522,-0.00000883,-0.00096968,-0.00016383,0.00023150,0.00016227,0.0
 0037513,-0.00012350,-0.00021810,0.00005727,0.00002319,-0.00001358,-0.0
 0000819,0.00000369,-0.00002312,0.00000975,0.00000377,0.00003309,-0.000
 00035,-0.00000342,-0.00002888,-0.00001584,0.00000931,0.00285264,-0.000
 78813,-0.00020009,0.00132039,-0.00033965,-0.00000535,-0.00069981,0.000
 16412,0.00000776,-0.00114368,0.00067205,-0.00008665,-0.00476797,-0.000
 79475,0.00067988,0.00004738,-0.00024230,0.00005679,-0.00004800,0.00004
 548,-0.00000876,-0.00003799,0.00004780,0.00000968,0.00003063,-0.000010
 49,-0.00000142,0.00673791,0.00730002,-0.00648535,-0.05097538,-0.006449
 69,0.00785502,-0.47494837,-0.08421671,0.18095993,-0.00932863,-0.009089
 21,0.01251153,-0.01384235,-0.00044877,0.02064144,0.54134054,-0.0006190
 2,0.00099196,-0.00013209,0.00024266,-0.00020727,-0.00005304,0.00377995
 ,0.00008746,-0.00125973,0.00034656,-0.00019724,0.00004340,0.00005147,0
 .00000737,0.00000524,-0.00001176,-0.00003140,-0.00000549,-0.00567344,-
 0.00085125,0.00181082,0.00000382,-0.00000781,0.00000048,0.00001372,0.0
 0001085,-0.00000713,-0.00003005,-0.00004936,0.00002498,0.00003071,0.00
 001233,0.00002087,0.00000064,-0.00001704,0.00000798,0.00000056,0.00000
 723,-0.00000392,0.00000118,0.00000096,0.00000013,0.00000073,-0.0000008
 2,-0.00000064,-0.00000066,0.00000190,0.00000071,0.00000236,0.00000121,
 -0.00000087,-0.00004482,-0.00002171,-0.00007495,-0.00014301,0.00000047
 ,-0.00002182,0.00011003,0.00002228,0.00000154,0.00010458,-0.00002964,0
 .00001179,0.00032391,0.00049022,-0.00040005,-0.00000645,0.00001966,-0.
 00000750,0.00000357,-0.00000385,0.00000127,0.00000122,-0.00000415,-0.0
 0000186,-0.00000265,0.00000085,-0.00000056,0.00028612,0.00026838,0.002
 77391,0.01369274,0.01188281,-0.00266270,-0.08604152,-0.10719314,0.0403
 9173,-0.04080369,-0.00979962,0.01963120,0.02075572,0.01250575,-0.01980
 746,0.09362481,0.09210261,-0.00296596,0.00316590,-0.00027730,0.0011372
 0,-0.00084553,-0.00018970,0.00977513,-0.00021993,-0.00394325,0.0011999
 1,-0.00055309,0.00013020,0.00013719,0.00003409,0.00000766,-0.00004027,
 -0.00009388,-0.00000947,-0.01462012,-0.00289762,0.00756012,0.00001084,
 0.00001471,-0.00000822,-0.00000901,0.00001278,0.00000112,-0.00004709,-
 0.00003802,0.00004011,-0.00001407,0.00005487,-0.00003319,-0.00002721,-
 0.00003952,0.00003132,0.00002905,-0.00001537,0.00000079,0.00000198,0.0
 0000133,-0.00000034,0.00000018,-0.00000159,-0.00000165,0.00000162,-0.0
 0000032,-0.00000400,0.00000182,0.00000147,-0.00000176,0.00009384,-0.00
 036480,-0.00022374,0.00013199,0.00016018,-0.00020619,0.00001336,0.0000
 3633,0.00006250,-0.00024166,0.00009769,0.00012737,-0.00087806,-0.00055
 511,0.00066777,-0.00002127,0.00003470,-0.00001929,0.00000603,-0.000004
 07,0.00000076,-0.00000087,-0.00000381,-0.00000510,0.00000086,-0.000004
 04,-0.00000160,-0.00066475,0.00324515,-0.00111861,-0.02466430,-0.00197
 521,0.01165489,0.18584134,0.04064413,-0.17037732,0.01314433,0.00479570
 ,0.01115580,0.04631604,-0.00440085,-0.02380074,-0.21364806,-0.04028623
 ,0.16878109\\0.00000474,0.00000448,-0.00000531,0.00000650,0.00000009,-
 0.00001074,0.00000084,0.00000115,-0.00000190,0.00000340,0.00000759,-0.
 00000258,0.00000593,0.00000938,-0.00000547,0.00000123,0.00000959,0.000
 00178,0.00000161,-0.00000264,-0.00000317,-0.00000389,0.00001115,0.0000
 0941,-0.00000052,0.00000767,0.00000359,-0.00000081,0.00000269,0.000001
 99,-0.00000314,0.00000193,0.00000526,-0.00000628,0.00000361,0.00001146
 ,-0.00000590,0.00000963,0.00001256,-0.00000340,0.00001444,0.00001083,0
 .00000188,0.00000936,0.00000061,-0.00000856,0.00000297,0.00001401,-0.0
 0000869,0.00001100,0.00001760,-0.00000279,-0.00000356,0.00000263,0.000
 00206,-0.00000473,-0.00000370,0.00000237,0.00000046,-0.00000396,0.0000
 0276,-0.00000804,-0.00000723,-0.00000348,-0.00000602,0.00000350,0.0000
 0570,0.00000084,-0.00000803,0.00000464,-0.00000055,-0.00000727,0.00000
 781,0.00000548,-0.00000977,0.00000698,-0.00000298,-0.00001212,-0.00000
 226,-0.00001279,-0.00000166,-0.00000119,-0.00001561,-0.00000338,-0.000
 00139,-0.00001488,-0.00000294,-0.00000556,-0.00001264,0.00000371,0.000
 00148,-0.00000888,-0.00000499,-0.00000208,-0.00002018,-0.00000470\\\@


 THE DIFFICULTY IN SCIENCE IS OFTEN NOT SO MUCH HOW
 TO MAKE A DISCOVERY BUT RATHER TO KNOW ONE HAS MADE IT.

                                                   -- J. D. BERNAL
 Job cpu time:       0 days  2 hours 12 minutes 18.0 seconds.
 File lengths (MBytes):  RWF=    545 Int=      0 D2E=      0 Chk=     17 Scr=      1
 Normal termination of Gaussian 09 at Wed Aug  4 15:29:11 2021.
