 Entering Gaussian System, Link 0=g09
 Input=MeNO2_isatin_TS4_freq_10_twist.com
 Output=MeNO2_isatin_TS4_freq_10_twist.log
 Initial command:
 /apps/applications/gaussian/G09.D01/2/default/g09/l1.exe "/nobackup/chmbnn/Gau-171703.inp" -scrdir="/nobackup/chmbnn/"
 Entering Link 1 = /apps/applications/gaussian/G09.D01/2/default/g09/l1.exe PID=    171704.
  
 Copyright (c) 1988,1990,1992,1993,1995,1998,2003,2009,2013,
            Gaussian, Inc.  All Rights Reserved.
  
 This is part of the Gaussian(R) 09 program.  It is based on
 the Gaussian(R) 03 system (copyright 2003, Gaussian, Inc.),
 the Gaussian(R) 98 system (copyright 1998, Gaussian, Inc.),
 the Gaussian(R) 94 system (copyright 1995, Gaussian, Inc.),
 the Gaussian 92(TM) system (copyright 1992, Gaussian, Inc.),
 the Gaussian 90(TM) system (copyright 1990, Gaussian, Inc.),
 the Gaussian 88(TM) system (copyright 1988, Gaussian, Inc.),
 the Gaussian 86(TM) system (copyright 1986, Carnegie Mellon
 University), and the Gaussian 82(TM) system (copyright 1983,
 Carnegie Mellon University). Gaussian is a federally registered
 trademark of Gaussian, Inc.
  
 This software contains proprietary and confidential information,
 including trade secrets, belonging to Gaussian, Inc.
  
 This software is provided under written license and may be
 used, copied, transmitted, or stored only in accord with that
 written license.
  
 The following legend is applicable only to US Government
 contracts under FAR:
  
                    RESTRICTED RIGHTS LEGEND
  
 Use, reproduction and disclosure by the US Government is
 subject to restrictions as set forth in subparagraphs (a)
 and (c) of the Commercial Computer Software - Restricted
 Rights clause in FAR 52.227-19.
  
 Gaussian, Inc.
 340 Quinnipiac St., Bldg. 40, Wallingford CT 06492
  
  
 ---------------------------------------------------------------
 Warning -- This program may not be used in any manner that
 competes with the business of Gaussian, Inc. or will provide
 assistance to any competitor of Gaussian, Inc.  The licensee
 of this program is prohibited from giving any competitor of
 Gaussian, Inc. access to this program.  By using this program,
 the user acknowledges that Gaussian, Inc. is engaged in the
 business of creating and licensing software in the field of
 computational chemistry and represents and warrants to the
 licensee that it is not a competitor of Gaussian, Inc. and that
 it will not use this program in any manner prohibited above.
 ---------------------------------------------------------------
  

 Cite this work as:
 Gaussian 09, Revision D.01,
 M. J. Frisch, G. W. Trucks, H. B. Schlegel, G. E. Scuseria, 
 M. A. Robb, J. R. Cheeseman, G. Scalmani, V. Barone, B. Mennucci, 
 G. A. Petersson, H. Nakatsuji, M. Caricato, X. Li, H. P. Hratchian, 
 A. F. Izmaylov, J. Bloino, G. Zheng, J. L. Sonnenberg, M. Hada, 
 M. Ehara, K. Toyota, R. Fukuda, J. Hasegawa, M. Ishida, T. Nakajima, 
 Y. Honda, O. Kitao, H. Nakai, T. Vreven, J. A. Montgomery, Jr., 
 J. E. Peralta, F. Ogliaro, M. Bearpark, J. J. Heyd, E. Brothers, 
 K. N. Kudin, V. N. Staroverov, T. Keith, R. Kobayashi, J. Normand, 
 K. Raghavachari, A. Rendell, J. C. Burant, S. S. Iyengar, J. Tomasi, 
 M. Cossi, N. Rega, J. M. Millam, M. Klene, J. E. Knox, J. B. Cross, 
 V. Bakken, C. Adamo, J. Jaramillo, R. Gomperts, R. E. Stratmann, 
 O. Yazyev, A. J. Austin, R. Cammi, C. Pomelli, J. W. Ochterski, 
 R. L. Martin, K. Morokuma, V. G. Zakrzewski, G. A. Voth, 
 P. Salvador, J. J. Dannenberg, S. Dapprich, A. D. Daniels, 
 O. Farkas, J. B. Foresman, J. V. Ortiz, J. Cioslowski, 
 and D. J. Fox, Gaussian, Inc., Wallingford CT, 2013.
 
 ******************************************
 Gaussian 09:  ES64L-G09RevD.01 24-Apr-2013
                12-Oct-2022 
 ******************************************
 %nprocshared=4
 Will use up to    4 processors via shared memory.
 %chk=MeNO2_isatin_TS4_freq_twist.chk
 -----------------------------------------------------
 # freq scrf=(cpcm,solvent=nitromethane) def2svp m062x
 -----------------------------------------------------
 1/10=4,30=1,38=1/1,3;
 2/12=2,17=6,18=5,40=1/2;
 3/5=43,7=101,11=2,16=1,25=1,30=1,70=2101,71=2,72=15,74=-55,140=1/1,2,3;
 4//1;
 5/5=2,38=5,53=15,98=1/2;
 8/6=4,10=90,11=11/1;
 11/6=1,8=1,9=11,15=111,16=1/1,2,10;
 10/6=1/2;
 6/7=2,8=2,9=2,10=2,18=1,28=1/1;
 7/8=1,10=1,25=1/1,2,3,16;
 1/10=4,30=1/3;
 99//99;
 ------------------------
 henry sulfate ts4 - freq
 ------------------------
 Symbolic Z-matrix:
 Charge = -1 Multiplicity = 1
 N                     0.51258   0.69257   1.90088 
 O                     0.68512   1.90581   1.81769 
 O                     1.51126  -0.09989   1.86595 
 C                    -0.71847   0.13377   1.92595 
 H                    -1.53683   0.82608   2.10883 
 H                    -0.74717  -0.90464   2.23917 
 H                     2.55993   0.46983   1.13017 
 C                    -4.94632  -1.00008  -0.12647 
 C                    -4.32658   0.22664  -0.39793 
 C                    -2.93708   0.25196  -0.41721 
 C                    -2.18708  -0.91076  -0.15825 
 C                    -2.80926  -2.12301   0.09964 
 C                    -4.20765  -2.16209   0.11492 
 H                    -6.03633  -1.04632  -0.10883 
 H                    -4.91535   1.123    -0.59303 
 H                    -2.21315  -3.01748   0.28867 
 H                    -4.72502  -3.10051   0.31515 
 C                    -0.76067  -0.53071  -0.2595 
 C                    -0.77533   0.95301  -0.66232 
 N                    -2.0974    1.33771  -0.68033 
 O                     0.19105   1.62582  -0.92735 
 O                     0.21983  -1.26376  -0.41413 
 C                    -2.54822   2.67552  -0.98127 
 H                    -3.16269   2.68642  -1.89308 
 H                    -3.13559   3.08443  -0.14687 
 H                    -1.65909   3.2968   -1.1374 
 H                     1.52709  -0.75883  -0.96231 
 O                     2.39632  -0.48831  -1.44334 
 S                     3.63276  -0.44892  -0.4771 
 O                     3.34215   0.75718   0.46841 
 O                     4.77869  -0.10822  -1.28954 
 O                     3.66479  -1.67531   0.30029 
 

 GradGradGradGradGradGradGradGradGradGradGradGradGradGradGradGradGradGrad
 Berny optimization.
 Initialization pass.
 Trust Radius=3.00D-01 FncErr=1.00D-07 GrdErr=1.00D-07
 Number of steps in this run=      2 maximum allowed number of steps=      2.
 GradGradGradGradGradGradGradGradGradGradGradGradGradGradGradGradGradGrad

                          Input orientation:                          
 ---------------------------------------------------------------------
 Center     Atomic      Atomic             Coordinates (Angstroms)
 Number     Number       Type             X           Y           Z
 ---------------------------------------------------------------------
      1          7           0        0.512578    0.692574    1.900884
      2          8           0        0.685117    1.905811    1.817685
      3          8           0        1.511258   -0.099889    1.865953
      4          6           0       -0.718465    0.133771    1.925954
      5          1           0       -1.536825    0.826075    2.108826
      6          1           0       -0.747172   -0.904639    2.239172
      7          1           0        2.559925    0.469831    1.130171
      8          6           0       -4.946324   -1.000081   -0.126470
      9          6           0       -4.326575    0.226643   -0.397928
     10          6           0       -2.937079    0.251962   -0.417213
     11          6           0       -2.187075   -0.910755   -0.158246
     12          6           0       -2.809264   -2.123014    0.099643
     13          6           0       -4.207650   -2.162092    0.114921
     14          1           0       -6.036330   -1.046325   -0.108831
     15          1           0       -4.915351    1.123001   -0.593027
     16          1           0       -2.213147   -3.017479    0.288667
     17          1           0       -4.725023   -3.100510    0.315153
     18          6           0       -0.760674   -0.530712   -0.259500
     19          6           0       -0.775328    0.953010   -0.662323
     20          7           0       -2.097396    1.337705   -0.680328
     21          8           0        0.191054    1.625823   -0.927350
     22          8           0        0.219833   -1.263758   -0.414125
     23          6           0       -2.548219    2.675517   -0.981274
     24          1           0       -3.162689    2.686415   -1.893081
     25          1           0       -3.135592    3.084434   -0.146874
     26          1           0       -1.659089    3.296800   -1.137398
     27          1           0        1.527091   -0.758830   -0.962314
     28          8           0        2.396315   -0.488312   -1.443341
     29         16           0        3.632760   -0.448924   -0.477102
     30          8           0        3.342147    0.757178    0.468413
     31          8           0        4.778693   -0.108220   -1.289535
     32          8           0        3.664793   -1.675313    0.300286
 ---------------------------------------------------------------------
                    Distance matrix (angstroms):
                    1          2          3          4          5
     1  N    0.000000
     2  O    1.228265   0.000000
     3  O    1.275374   2.169717   0.000000
     4  C    1.352167   2.263159   2.242735   0.000000
     5  H    2.064247   2.487493   3.194872   1.087401   0.000000
     6  H    2.062159   3.182410   2.426401   1.085000   1.906807
     7  H    2.198919   2.459597   1.402019   3.390287   4.227060
     8  C    6.064228   6.628505   6.817658   4.834548   4.467223
     9  C    5.377642   5.731108   6.269934   4.292728   3.798136
    10  C    4.179455   4.566212   5.012419   3.229032   2.944688
    11  C    3.754838   4.481834   4.293315   2.755311   2.928996
    12  C    4.712392   5.603017   5.087219   3.577699   3.788541
    13  C    5.798218   6.586836   6.326508   4.552498   4.476394
    14  H    7.067596   7.589758   7.858855   5.814866   5.354384
    15  H    5.988929   6.147322   6.988801   4.993765   4.336198
    16  H    4.877839   5.914103   4.987119   3.852942   4.306193
    17  H    6.658415   7.522664   7.092243   5.395161   5.366557
    18  C    2.790136   3.513069   3.140833   2.284629   2.837649
    19  C    2.880375   3.031694   3.567808   2.715431   2.876675
    20  N    3.727038   3.782221   4.644632   3.184904   2.890568
    21  O    2.995537   2.803160   3.538865   3.345861   3.583787
    22  O    3.045029   3.904310   2.867250   2.882613   3.717328
    23  C    4.648373   4.345237   5.682335   4.273224   3.740598
    24  H    5.645986   5.402290   6.613593   5.203388   4.703143
    25  H    4.819072   4.454937   5.982023   4.341144   3.569933
    26  H    4.552943   4.020282   5.532514   4.502627   4.081348
    27  H    3.366558   3.941780   2.904057   3.765813   4.618594
    28  O    4.015818   4.392529   3.447553   4.630442   5.460320
    29  S    4.085752   4.415815   3.180016   5.004735   5.919228
    30  O    3.172161   3.193697   2.457608   4.359086   5.147822
    31  O    5.387001   5.519828   4.542390   6.373121   7.232395
    32  O    4.255028   4.899532   3.093701   5.012837   6.048520
                    6          7          8          9         10
     6  H    0.000000
     7  H    3.749125   0.000000
     8  C    4.820607   7.751359   0.000000
     9  C    4.587616   7.058194   1.400939   0.000000
    10  C    3.631776   5.714798   2.385206   1.389860   0.000000
    11  C    2.796600   5.108820   2.760877   2.434868   1.407651
    12  C    3.211580   6.050870   2.424692   2.840897   2.433924
    13  C    4.250710   7.331973   1.397919   2.446061   2.779420
    14  H    5.788643   8.816431   1.091129   2.151113   3.374316
    15  H    5.431979   7.699077   2.173962   1.090036   2.168682
    16  H    3.227638   5.970902   3.422352   3.932215   3.422220
    17  H    4.934268   8.153653   2.157732   3.425959   3.869389
    18  C    2.526532   3.736128   4.213985   3.648068   2.318230
    19  C    3.445334   3.817121   4.636692   3.634401   2.285763
    20  N    3.921057   5.071662   3.726713   2.506681   1.397546
    21  O    4.160573   3.343839   5.824898   4.758883   3.454410
    22  O    2.846761   3.296394   5.180873   4.784494   3.501929
    23  C    5.141261   5.951167   4.471199   3.082179   2.518530
    24  H    5.983804   6.841170   4.460103   3.104930   2.855809
    25  H    5.225942   6.395773   4.467933   3.106193   2.852260
    26  H    5.466709   5.561807   5.503733   4.133783   3.379787
    27  H    3.929764   2.637204   6.531611   5.962809   4.609517
    28  O    4.859603   2.750958   7.477326   6.841147   5.481426
    29  S    5.173937   2.139722   8.603918   7.988346   6.607391
    30  O    4.756023   1.064126   8.493562   7.735717   6.361466
    31  O    6.604638   3.333474   9.834841   9.154944   7.773276
    32  O    4.880436   2.551683   8.648086   8.244204   6.914760
                   11         12         13         14         15
    11  C    0.000000
    12  C    1.386794   0.000000
    13  C    2.392319   1.399015   0.000000
    14  H    3.851959   3.408324   2.153850   0.000000
    15  H    3.430552   3.930904   3.434220   2.489380   0.000000
    16  H    2.153763   1.091400   2.177135   4.319743   5.022237
    17  H    3.385308   2.161498   1.090136   2.473654   4.324241
    18  C    1.479630   2.619376   3.831871   5.302934   4.484122
    19  C    2.391808   3.765556   4.699873   5.655249   4.144091
    20  N    2.310018   3.618244   4.163433   4.639548   2.827471
    21  O    3.561074   4.910234   5.897731   6.825735   5.141982
    22  O    2.446077   3.190252   4.548571   6.267380   5.665575
    23  C    3.697181   4.925690   5.230470   5.174957   2.857334
    24  H    4.111096   5.217899   5.350891   5.037331   2.684442
    25  H    4.106257   5.223483   5.361332   5.047663   2.685854
    26  H    4.352129   5.676932   6.153289   6.251474   3.952845
    27  H    3.803240   4.668268   6.001403   7.616851   6.721809
    28  O    4.778848   5.670194   6.988710   8.555805   7.535239
    29  S    5.846831   6.680934   8.047202   9.694525   8.692214
    30  O    5.809217   6.802305   8.102255   9.567741   8.333472
    31  O    7.102521   7.972848   9.324444  10.919653   9.796710
    32  O    5.919388   6.492619   7.889656   9.730097   9.069037
                   16         17         18         19         20
    16  H    0.000000
    17  H    2.513387   0.000000
    18  C    2.931582   4.759217   0.000000
    19  C    4.328567   5.743394   1.537502   0.000000
    20  N    4.463180   5.252919   2.335574   1.377018   0.000000
    21  O    5.368345   6.931800   2.449990   1.206984   2.319706
    22  O    3.080397   5.325139   1.233961   2.442541   3.493998
    23  C    5.842536   6.307273   3.741147   2.492369   1.443451
    24  H    6.180296   6.387933   4.334532   3.196709   2.103482
    25  H    6.186594   6.402600   4.326916   3.221723   2.100830
    26  H    6.496981   7.241231   4.028362   2.549526   2.058902
    27  H    4.544868   6.797376   2.404133   2.884705   4.196651
    28  O    5.535673   7.786484   3.371922   3.570255   4.910190
    29  S    6.431058   8.804040   4.399580   4.629359   6.005667
    30  O    6.718753   8.943404   4.361383   4.274402   5.589745
    31  O    7.735654  10.092048   5.650138   5.689179   7.052832
    32  O    6.029239   8.510019   4.605239   5.248750   6.575918
                   21         22         23         24         25
    21  O    0.000000
    22  O    2.934946   0.000000
    23  C    2.934004   4.847851   0.000000
    24  H    3.647613   5.406721   1.099584   0.000000
    25  H    3.715274   5.498825   1.099292   1.791199   0.000000
    26  H    2.501862   4.985194   1.095865   1.790095   1.790614
    27  H    2.733640   1.504788   5.329470   5.893223   6.097232
    28  O    3.098224   2.529363   5.888271   6.417451   6.711731
    29  S    4.043840   3.509415   6.944121   7.616658   7.642268
    30  O    3.554165   3.822552   6.362235   7.184114   6.910557
    31  O    4.917775   4.783808   7.843969   8.440367   8.610146
    32  O    4.946863   3.542246   7.692440   8.393452   8.312664
                   26         27         28         29         30
    26  H    0.000000
    27  H    5.160478   0.000000
    28  O    5.555806   1.029620   0.000000
    29  S    6.516909   2.182960   1.569702   0.000000
    30  O    5.834438   2.763999   2.469949   1.559851   0.000000
    31  O    7.284390   3.332159   2.417406   1.445437   2.429601
    32  O    7.425130   2.646483   2.461350   1.452373   2.459549
                   31         32
    31  O    0.000000
    32  O    2.494812   0.000000
 Stoichiometry    C10H11N2O8S(1-)
 Framework group  C1[X(C10H11N2O8S)]
 Deg. of freedom    90
 Full point group                 C1      NOp   1
 Largest Abelian subgroup         C1      NOp   1
 Largest concise Abelian subgroup C1      NOp   1
                         Standard orientation:                         
 ---------------------------------------------------------------------
 Center     Atomic      Atomic             Coordinates (Angstroms)
 Number     Number       Type             X           Y           Z
 ---------------------------------------------------------------------
      1          7           0        0.512578    0.692574    1.900884
      2          8           0        0.685117    1.905811    1.817685
      3          8           0        1.511258   -0.099889    1.865953
      4          6           0       -0.718465    0.133771    1.925954
      5          1           0       -1.536825    0.826075    2.108826
      6          1           0       -0.747172   -0.904639    2.239172
      7          1           0        2.559925    0.469831    1.130171
      8          6           0       -4.946324   -1.000081   -0.126470
      9          6           0       -4.326575    0.226643   -0.397928
     10          6           0       -2.937079    0.251962   -0.417213
     11          6           0       -2.187075   -0.910755   -0.158246
     12          6           0       -2.809264   -2.123014    0.099643
     13          6           0       -4.207650   -2.162092    0.114921
     14          1           0       -6.036330   -1.046325   -0.108831
     15          1           0       -4.915351    1.123001   -0.593027
     16          1           0       -2.213147   -3.017479    0.288667
     17          1           0       -4.725023   -3.100510    0.315153
     18          6           0       -0.760674   -0.530712   -0.259500
     19          6           0       -0.775328    0.953010   -0.662323
     20          7           0       -2.097396    1.337705   -0.680328
     21          8           0        0.191054    1.625823   -0.927350
     22          8           0        0.219833   -1.263758   -0.414125
     23          6           0       -2.548219    2.675517   -0.981274
     24          1           0       -3.162689    2.686415   -1.893081
     25          1           0       -3.135592    3.084434   -0.146874
     26          1           0       -1.659089    3.296800   -1.137398
     27          1           0        1.527091   -0.758830   -0.962314
     28          8           0        2.396315   -0.488312   -1.443341
     29         16           0        3.632760   -0.448924   -0.477102
     30          8           0        3.342147    0.757178    0.468413
     31          8           0        4.778693   -0.108220   -1.289535
     32          8           0        3.664793   -1.675313    0.300286
 ---------------------------------------------------------------------
 Rotational constants (GHZ):      0.5973739      0.1726655      0.1631580
 Standard basis: def2SVP (5D, 7F)
 There are   374 symmetry adapted cartesian basis functions of A   symmetry.
 There are   353 symmetry adapted basis functions of A   symmetry.
   353 basis functions,   614 primitive gaussians,   374 cartesian basis functions
    83 alpha electrons       83 beta electrons
       nuclear repulsion energy      2015.5382008933 Hartrees.
 NAtoms=   32 NActive=   32 NUniq=   32 SFac= 1.00D+00 NAtFMM=   60 NAOKFM=F Big=F
 Integral buffers will be    131072 words long.
 Raffenetti 2 integral format.
 Two-electron integral symmetry is turned on.
 Force inversion solution in PCM.
 ------------------------------------------------------------------------------
 Polarizable Continuum Model (PCM)
 =================================
 Model                : C-PCM.
 Atomic radii         : UFF (Universal Force Field).
 Polarization charges : Total charges.
 Charge compensation  : None.
 Solution method      : Matrix inversion.
 Cavity type          : Scaled VdW (van der Waals Surface) (Alpha=1.100).
 Cavity algorithm     : GePol (No added spheres)
                        Default sphere list used, NSphG=   32.
                        Lebedev-Laikov grids with approx.  5.0 points / Ang**2.
                        Smoothing algorithm: Karplus/York (Gamma=1.0000).
                        Polarization charges: spherical gaussians, with
                                              point-specific exponents (IZeta= 3).
                        Self-potential: point-specific (ISelfS= 7).
                        Self-field    : sphere-specific E.n sum rule (ISelfD= 2).
 1st derivatives      : Analytical E(r).r(x)/FMM algorithm (CHGder, D1EAlg=3).
                        Cavity 1st derivative terms included.
 2nd derivatives      : Analytical E(r).r(xy)/FMM algorithm (CHGder, D2EAlg=3).
                        Cavity 2nd derivative terms included.
 Solvent              : NitroMethane, Eps=  36.562000 Eps(inf)=   1.909095
 ------------------------------------------------------------------------------
 One-electron integrals computed using PRISM.
   1 Symmetry operations used in ECPInt.
 ECPInt:  NShTT=   13041 NPrTT=   49457 LenC2=   11748 LenP2D=   30529.
 LDataN:  DoStor=T MaxTD1= 4 Len=   56
 NBasis=   353 RedAO= T EigKep=  2.44D-04  NBF=   353
 NBsUse=   353 1.00D-06 EigRej= -1.00D+00 NBFU=   353
 ExpMin= 1.22D-01 ExpMax= 9.18D+03 ExpMxC= 1.38D+03 IAcc=1 IRadAn=         1 AccDes= 0.00D+00
 Harris functional with IExCor= 1009 and IRadAn=       1 diagonalized for initial guess.
 HarFok:  IExCor= 1009 AccDes= 0.00D+00 IRadAn=         1 IDoV= 1 UseB2=F ITyADJ=14
 ICtDFT=  3500011 ScaDFX=  1.000000  1.000000  1.000000  1.000000
 FoFCou: FMM=F IPFlag=           0 FMFlag=      100000 FMFlg1=           0
         NFxFlg=           0 DoJE=T BraDBF=F KetDBF=T FulRan=T
         wScrn=  0.000000 ICntrl=     500 IOpCl=  0 I1Cent=   200000004 NGrid=           0
         NMat0=    1 NMatS0=      1 NMatT0=    0 NMatD0=    1 NMtDS0=    0 NMtDT0=    0
 Petite list used in FoFCou.
 Requested convergence on RMS density matrix=1.00D-08 within 128 cycles.
 Requested convergence on MAX density matrix=1.00D-06.
 Requested convergence on             energy=1.00D-06.
 No special actions if energy rises.
 Inv3:  Mode=1 IEnd=    20093232.
 Iteration    1 A*A^-1 deviation from unit magnitude is 5.88D-15 for   2577.
 Iteration    1 A*A^-1 deviation from orthogonality  is 1.57D-15 for   1771    876.
 Iteration    1 A^-1*A deviation from unit magnitude is 5.88D-15 for   2577.
 Iteration    1 A^-1*A deviation from orthogonality  is 1.68D-15 for   2581   1258.
 Error on total polarization charges =  0.00829
 SCF Done:  E(RM062X) =  -1495.78442869     A.U. after   15 cycles
            NFock= 15  Conv=0.54D-08     -V/T= 2.0066
 DoSCS=F DFT=T ScalE2(SS,OS)=  1.000000  1.000000
 Range of M.O.s used for correlation:     1   353
 NBasis=   353 NAE=    83 NBE=    83 NFC=     0 NFV=     0
 NROrb=    353 NOA=    83 NOB=    83 NVA=   270 NVB=   270

 **** Warning!!: The largest alpha MO coefficient is  0.12546541D+02

 PrsmSu:  requested number of processors reduced to:   3 ShMem   1 Linda.
   1 Symmetry operations used in ECPInt.
 ECPInt:  NShTT=   13041 NPrTT=   49457 LenC2=   11748 LenP2D=   30529.
 LDataN:  DoStor=T MaxTD1= 5 Len=  102
 Number of processors reduced to   2 by ecpmxn.
 Symmetrizing basis deriv contribution to polar:
 IMax=3 JMax=2 DiffMx= 0.00D+00
 G2DrvN: will do    17 centers at a time, making    2 passes.
 Calling FoFCou, ICntrl=  3107 FMM=F I1Cent=   0 AccDes= 0.00D+00.
 Calling FoFCou, ICntrl=  3107 FMM=F I1Cent=   0 AccDes= 0.00D+00.
 NEqPCM:  Using equilibrium solvation (IEInf=0, Eps=  36.5620, EpsInf=   1.9091)
 G2PCM: DoFxE=T DoFxN=T DoGrad=T DoDP/DQ/DG/TGxP=FFFF NFrqRd=   0 IEInf=0 SqF1=F DoCFld=F IF1Alg=4.
 End of G2Drv F.D. properties file   721 does not exist.
 End of G2Drv F.D. properties file   722 does not exist.
 End of G2Drv F.D. properties file   788 does not exist.
          IDoAtm=11111111111111111111111111111111
 NEqPCM:  Using equilibrium solvation (IEInf=0, Eps=  36.5620, EpsInf=   1.9091)
          Differentiating once with respect to electric field.
                with respect to dipole field.
          Differentiating once with respect to nuclear coordinates.
          There are    99 degrees of freedom in the 1st order CPHF.  IDoFFX=6 NUNeed=     3.
     99 vectors produced by pass  0 Test12= 2.26D-14 1.01D-09 XBig12= 1.57D+02 5.50D+00.
 AX will form    52 AO Fock derivatives at one time.
     99 vectors produced by pass  1 Test12= 2.26D-14 1.01D-09 XBig12= 2.15D+01 5.40D-01.
     96 vectors produced by pass  2 Test12= 2.26D-14 1.01D-09 XBig12= 3.77D-01 6.52D-02.
     96 vectors produced by pass  3 Test12= 2.26D-14 1.01D-09 XBig12= 4.53D-03 6.43D-03.
     96 vectors produced by pass  4 Test12= 2.26D-14 1.01D-09 XBig12= 4.79D-05 5.81D-04.
     96 vectors produced by pass  5 Test12= 2.26D-14 1.01D-09 XBig12= 2.29D-07 4.29D-05.
     78 vectors produced by pass  6 Test12= 2.26D-14 1.01D-09 XBig12= 7.53D-10 2.29D-06.
     14 vectors produced by pass  7 Test12= 2.26D-14 1.01D-09 XBig12= 2.13D-12 1.15D-07.
      3 vectors produced by pass  8 Test12= 2.26D-14 1.01D-09 XBig12= 6.13D-15 5.88D-09.
      2 vectors produced by pass  9 Test12= 2.26D-14 1.01D-09 XBig12= 2.51D-16 1.46D-09.
 InvSVY:  IOpt=1 It=  1 EMax= 1.60D-14
 Solved reduced A of dimension   679 with    99 vectors.
 Isotropic polarizability for W=    0.000000      229.78 Bohr**3.
 End of Minotr F.D. properties file   721 does not exist.
 End of Minotr F.D. properties file   722 does not exist.
 End of Minotr F.D. properties file   788 does not exist.

 **********************************************************************

            Population analysis using the SCF density.

 **********************************************************************

 Orbital symmetries:
       Occupied  (A) (A) (A) (A) (A) (A) (A) (A) (A) (A) (A) (A)
                 (A) (A) (A) (A) (A) (A) (A) (A) (A) (A) (A) (A)
                 (A) (A) (A) (A) (A) (A) (A) (A) (A) (A) (A) (A)
                 (A) (A) (A) (A) (A) (A) (A) (A) (A) (A) (A) (A)
                 (A) (A) (A) (A) (A) (A) (A) (A) (A) (A) (A) (A)
                 (A) (A) (A) (A) (A) (A) (A) (A) (A) (A) (A) (A)
                 (A) (A) (A) (A) (A) (A) (A) (A) (A) (A) (A)
       Virtual   (A) (A) (A) (A) (A) (A) (A) (A) (A) (A) (A) (A)
                 (A) (A) (A) (A) (A) (A) (A) (A) (A) (A) (A) (A)
                 (A) (A) (A) (A) (A) (A) (A) (A) (A) (A) (A) (A)
                 (A) (A) (A) (A) (A) (A) (A) (A) (A) (A) (A) (A)
                 (A) (A) (A) (A) (A) (A) (A) (A) (A) (A) (A) (A)
                 (A) (A) (A) (A) (A) (A) (A) (A) (A) (A) (A) (A)
                 (A) (A) (A) (A) (A) (A) (A) (A) (A) (A) (A) (A)
                 (A) (A) (A) (A) (A) (A) (A) (A) (A) (A) (A) (A)
                 (A) (A) (A) (A) (A) (A) (A) (A) (A) (A) (A) (A)
                 (A) (A) (A) (A) (A) (A) (A) (A) (A) (A) (A) (A)
                 (A) (A) (A) (A) (A) (A) (A) (A) (A) (A) (A) (A)
                 (A) (A) (A) (A) (A) (A) (A) (A) (A) (A) (A) (A)
                 (A) (A) (A) (A) (A) (A) (A) (A) (A) (A) (A) (A)
                 (A) (A) (A) (A) (A) (A) (A) (A) (A) (A) (A) (A)
                 (A) (A) (A) (A) (A) (A) (A) (A) (A) (A) (A) (A)
                 (A) (A) (A) (A) (A) (A) (A) (A) (A) (A) (A) (A)
                 (A) (A) (A) (A) (A) (A) (A) (A) (A) (A) (A) (A)
                 (A) (A) (A) (A) (A) (A) (A) (A) (A) (A) (A) (A)
                 (A) (A) (A) (A) (A) (A) (A) (A) (A) (A) (A) (A)
                 (A) (A) (A) (A) (A) (A) (A) (A) (A) (A) (A) (A)
                 (A) (A) (A) (A) (A) (A) (A) (A) (A) (A) (A) (A)
                 (A) (A) (A) (A) (A) (A) (A) (A) (A) (A) (A) (A)
                 (A) (A) (A) (A) (A) (A)
 The electronic state is 1-A.
 Alpha  occ. eigenvalues --  -90.15890 -19.64513 -19.64063 -19.63750 -19.63529
 Alpha  occ. eigenvalues --  -19.63061 -19.62662 -19.60945 -19.60896 -14.96850
 Alpha  occ. eigenvalues --  -14.80909 -10.66745 -10.66293 -10.61171 -10.59252
 Alpha  occ. eigenvalues --  -10.58017 -10.57379 -10.57107 -10.56865 -10.56815
 Alpha  occ. eigenvalues --  -10.56173  -8.48530  -6.41052  -6.40990  -6.40928
 Alpha  occ. eigenvalues --   -1.31339  -1.27665  -1.18085  -1.15195  -1.13044
 Alpha  occ. eigenvalues --   -1.11808  -1.10965  -1.10266  -1.08055  -0.95714
 Alpha  occ. eigenvalues --   -0.91153  -0.88420  -0.84704  -0.80788  -0.75736
 Alpha  occ. eigenvalues --   -0.73053  -0.69862  -0.68357  -0.67267  -0.65282
 Alpha  occ. eigenvalues --   -0.64546  -0.61495  -0.60288  -0.59084  -0.58678
 Alpha  occ. eigenvalues --   -0.58540  -0.57514  -0.56244  -0.55316  -0.54698
 Alpha  occ. eigenvalues --   -0.53417  -0.51625  -0.51313  -0.51083  -0.50121
 Alpha  occ. eigenvalues --   -0.49844  -0.48550  -0.48157  -0.46311  -0.45779
 Alpha  occ. eigenvalues --   -0.44730  -0.44472  -0.43908  -0.42294  -0.42085
 Alpha  occ. eigenvalues --   -0.41881  -0.40069  -0.39219  -0.37696  -0.37409
 Alpha  occ. eigenvalues --   -0.36514  -0.36061  -0.35837  -0.34769  -0.32680
 Alpha  occ. eigenvalues --   -0.32283  -0.27890  -0.26876
 Alpha virt. eigenvalues --   -0.05306   0.01699   0.03692   0.05361   0.10228
 Alpha virt. eigenvalues --    0.11641   0.13081   0.13629   0.15617   0.16072
 Alpha virt. eigenvalues --    0.16745   0.17774   0.18395   0.18754   0.19656
 Alpha virt. eigenvalues --    0.19931   0.20416   0.20693   0.21406   0.22883
 Alpha virt. eigenvalues --    0.23525   0.24022   0.26487   0.26762   0.28781
 Alpha virt. eigenvalues --    0.29703   0.30464   0.32944   0.33241   0.35349
 Alpha virt. eigenvalues --    0.35577   0.36503   0.38018   0.39032   0.40385
 Alpha virt. eigenvalues --    0.42297   0.43785   0.44871   0.46090   0.46936
 Alpha virt. eigenvalues --    0.47868   0.48728   0.51245   0.51896   0.52204
 Alpha virt. eigenvalues --    0.52975   0.54665   0.55646   0.57125   0.58367
 Alpha virt. eigenvalues --    0.58645   0.59495   0.60688   0.62024   0.64518
 Alpha virt. eigenvalues --    0.64767   0.65681   0.66438   0.67006   0.68277
 Alpha virt. eigenvalues --    0.68927   0.69496   0.70047   0.70670   0.70872
 Alpha virt. eigenvalues --    0.71539   0.71689   0.71782   0.72840   0.72990
 Alpha virt. eigenvalues --    0.73316   0.74403   0.74700   0.74877   0.74996
 Alpha virt. eigenvalues --    0.77189   0.77691   0.78043   0.80036   0.80216
 Alpha virt. eigenvalues --    0.80603   0.81222   0.84195   0.87021   0.88474
 Alpha virt. eigenvalues --    0.90705   0.90966   0.91636   0.92154   0.93470
 Alpha virt. eigenvalues --    0.94747   0.94992   0.97392   0.97995   0.99564
 Alpha virt. eigenvalues --    1.02003   1.03739   1.04756   1.05587   1.06238
 Alpha virt. eigenvalues --    1.08042   1.09205   1.09851   1.10654   1.11770
 Alpha virt. eigenvalues --    1.12217   1.13177   1.14042   1.14818   1.15875
 Alpha virt. eigenvalues --    1.18142   1.19691   1.20452   1.23194   1.23508
 Alpha virt. eigenvalues --    1.24690   1.26685   1.27033   1.27985   1.28587
 Alpha virt. eigenvalues --    1.29034   1.29193   1.30657   1.31730   1.32694
 Alpha virt. eigenvalues --    1.33829   1.33938   1.35509   1.36666   1.37093
 Alpha virt. eigenvalues --    1.37562   1.39313   1.41781   1.42438   1.43396
 Alpha virt. eigenvalues --    1.47085   1.48639   1.49648   1.52242   1.53864
 Alpha virt. eigenvalues --    1.55747   1.56201   1.56961   1.57318   1.60817
 Alpha virt. eigenvalues --    1.64041   1.64599   1.64663   1.66799   1.69057
 Alpha virt. eigenvalues --    1.72096   1.72520   1.73254   1.74957   1.75564
 Alpha virt. eigenvalues --    1.76552   1.77565   1.77964   1.79909   1.80136
 Alpha virt. eigenvalues --    1.81306   1.82799   1.83015   1.83830   1.83960
 Alpha virt. eigenvalues --    1.85522   1.87196   1.87997   1.90582   1.90813
 Alpha virt. eigenvalues --    1.91398   1.92548   1.96661   1.98165   1.98564
 Alpha virt. eigenvalues --    1.99264   2.00555   2.02259   2.04150   2.05944
 Alpha virt. eigenvalues --    2.07220   2.08529   2.11127   2.12924   2.14190
 Alpha virt. eigenvalues --    2.15744   2.17360   2.18811   2.20547   2.21126
 Alpha virt. eigenvalues --    2.23647   2.26121   2.28429   2.29140   2.31945
 Alpha virt. eigenvalues --    2.32656   2.33756   2.34769   2.37659   2.40153
 Alpha virt. eigenvalues --    2.40995   2.44298   2.47369   2.49335   2.50682
 Alpha virt. eigenvalues --    2.54160   2.56713   2.60458   2.61494   2.61858
 Alpha virt. eigenvalues --    2.63247   2.63798   2.66292   2.68631   2.69038
 Alpha virt. eigenvalues --    2.70205   2.70786   2.70927   2.71211   2.71459
 Alpha virt. eigenvalues --    2.72099   2.73300   2.74475   2.74888   2.76159
 Alpha virt. eigenvalues --    2.77380   2.78393   2.79190   2.81723   2.83143
 Alpha virt. eigenvalues --    2.83554   2.84622   2.87722   2.89221   2.91153
 Alpha virt. eigenvalues --    2.93390   2.95162   2.96715   2.97485   2.98165
 Alpha virt. eigenvalues --    2.98526   2.99668   3.01388   3.03592   3.04181
 Alpha virt. eigenvalues --    3.06427   3.09208   3.11287   3.13342   3.14384
 Alpha virt. eigenvalues --    3.14862   3.16824   3.21811   3.25917   3.27367
 Alpha virt. eigenvalues --    3.30231   3.31681   3.35007   3.37898   3.42245
 Alpha virt. eigenvalues --    3.49169   3.50417   3.52743   3.66861   3.69499
 Alpha virt. eigenvalues --    3.74063   3.75929   3.80089   3.86340   3.92036
          Condensed to atoms (all electrons):
               1          2          3          4          5          6
     1  N    5.880040   0.285348   0.209862   0.432332  -0.014240  -0.008756
     2  O    0.285348   8.229427  -0.104821  -0.081545   0.004580   0.004995
     3  O    0.209862  -0.104821   8.325842  -0.085397   0.005373   0.003983
     4  C    0.432332  -0.081545  -0.085397   5.028150   0.373007   0.364701
     5  H   -0.014240   0.004580   0.005373   0.373007   0.579255  -0.025521
     6  H   -0.008756   0.004995   0.003983   0.364701  -0.025521   0.588037
     7  H   -0.013407   0.017126   0.115577   0.003445  -0.000221  -0.000448
     8  C    0.000000   0.000000   0.000000   0.000216   0.000043  -0.000087
     9  C    0.000005   0.000001   0.000000  -0.001450   0.000366   0.000046
    10  C    0.000449  -0.000408  -0.000076   0.011373   0.000583  -0.003734
    11  C   -0.000165   0.000612   0.001219  -0.083015   0.005369  -0.006706
    12  C    0.000028   0.000008   0.000039  -0.016501   0.000082   0.003722
    13  C    0.000000   0.000000   0.000000  -0.000151   0.000134   0.000294
    14  H    0.000000   0.000000   0.000000   0.000001  -0.000002  -0.000001
    15  H    0.000000   0.000000   0.000000  -0.000006   0.000001   0.000004
    16  H   -0.000005   0.000000  -0.000005   0.000007  -0.000020   0.000234
    17  H    0.000000   0.000000   0.000000  -0.000004   0.000001   0.000004
    18  C   -0.001557  -0.010166   0.003192   0.154018  -0.017247   0.006785
    19  C   -0.005945   0.017506  -0.002125  -0.057201   0.010238   0.002548
    20  N   -0.001550  -0.000278  -0.000015   0.000263  -0.002573   0.000501
    21  O    0.003602  -0.002358   0.000137  -0.007174   0.000147  -0.000110
    22  O   -0.003769   0.000254   0.002133  -0.033799   0.000835   0.000606
    23  C    0.000015   0.000140   0.000001  -0.001464   0.000064   0.000031
    24  H   -0.000004   0.000003   0.000000   0.000003   0.000014   0.000002
    25  H    0.000044  -0.000014   0.000000   0.000176   0.000106  -0.000018
    26  H   -0.000015   0.000160   0.000002  -0.000281   0.000024   0.000005
    27  H    0.000465  -0.000131   0.003466   0.000285   0.000035  -0.000133
    28  O   -0.000149   0.000003  -0.000818   0.000023  -0.000001   0.000004
    29  S    0.000278  -0.000217   0.006082  -0.000321   0.000004   0.000037
    30  O    0.002702  -0.000718  -0.060629  -0.000009   0.000007   0.000020
    31  O    0.000000   0.000000  -0.000014   0.000000   0.000000   0.000000
    32  O    0.000115  -0.000001  -0.000664   0.000006   0.000000   0.000004
               7          8          9         10         11         12
     1  N   -0.013407   0.000000   0.000005   0.000449  -0.000165   0.000028
     2  O    0.017126   0.000000   0.000001  -0.000408   0.000612   0.000008
     3  O    0.115577   0.000000   0.000000  -0.000076   0.001219   0.000039
     4  C    0.003445   0.000216  -0.001450   0.011373  -0.083015  -0.016501
     5  H   -0.000221   0.000043   0.000366   0.000583   0.005369   0.000082
     6  H   -0.000448  -0.000087   0.000046  -0.003734  -0.006706   0.003722
     7  H    0.371634   0.000000   0.000000   0.000004   0.000096   0.000000
     8  C    0.000000   5.146837   0.219814   0.157585  -0.185171   0.110567
     9  C    0.000000   0.219814   5.199110   0.273688   0.071092  -0.133605
    10  C    0.000004   0.157585   0.273688   5.215042   0.147252   0.066820
    11  C    0.000096  -0.185171   0.071092   0.147252   5.924436   0.278571
    12  C    0.000000   0.110567  -0.133605   0.066820   0.278571   5.166909
    13  C    0.000000   0.242176   0.095530  -0.169004   0.114627   0.225969
    14  H    0.000000   0.451815  -0.065650   0.014371  -0.001420   0.013329
    15  H    0.000000  -0.076128   0.472636  -0.079644   0.019382  -0.002704
    16  H   -0.000001   0.013048  -0.001791   0.015392  -0.079134   0.465892
    17  H    0.000000  -0.070001   0.013548  -0.001587   0.015043  -0.071431
    18  C   -0.000912  -0.001001   0.017959  -0.002911  -0.045653  -0.096595
    19  C    0.000520  -0.000785   0.003011  -0.083655  -0.091620   0.017444
    20  N    0.000047   0.008277  -0.084036   0.320093  -0.033245   0.007636
    21  O    0.002167   0.000001  -0.000074   0.001620   0.007864  -0.000040
    22  O    0.001675  -0.000015  -0.000025   0.003201  -0.084185   0.005302
    23  C   -0.000001  -0.000273   0.001811  -0.045716   0.007013  -0.000130
    24  H    0.000000   0.000246   0.002807  -0.006124   0.000359   0.000016
    25  H    0.000000   0.000228   0.002049  -0.005365   0.000479  -0.000011
    26  H   -0.000003  -0.000011   0.000435   0.005784  -0.001371   0.000017
    27  H   -0.000575   0.000000   0.000008  -0.000123   0.002891  -0.000160
    28  O    0.006999   0.000000   0.000000   0.000007  -0.000232   0.000001
    29  S   -0.021243   0.000000   0.000000  -0.000001   0.000036   0.000001
    30  O    0.257811   0.000000   0.000000   0.000000  -0.000004   0.000000
    31  O    0.000871   0.000000   0.000000   0.000000   0.000000   0.000000
    32  O    0.006993   0.000000   0.000000   0.000000  -0.000004   0.000000
              13         14         15         16         17         18
     1  N    0.000000   0.000000   0.000000  -0.000005   0.000000  -0.001557
     2  O    0.000000   0.000000   0.000000   0.000000   0.000000  -0.010166
     3  O    0.000000   0.000000   0.000000  -0.000005   0.000000   0.003192
     4  C   -0.000151   0.000001  -0.000006   0.000007  -0.000004   0.154018
     5  H    0.000134  -0.000002   0.000001  -0.000020   0.000001  -0.017247
     6  H    0.000294  -0.000001   0.000004   0.000234   0.000004   0.006785
     7  H    0.000000   0.000000   0.000000  -0.000001   0.000000  -0.000912
     8  C    0.242176   0.451815  -0.076128   0.013048  -0.070001  -0.001001
     9  C    0.095530  -0.065650   0.472636  -0.001791   0.013548   0.017959
    10  C   -0.169004   0.014371  -0.079644   0.015392  -0.001587  -0.002911
    11  C    0.114627  -0.001420   0.019382  -0.079134   0.015043  -0.045653
    12  C    0.225969   0.013329  -0.002704   0.465892  -0.071431  -0.096595
    13  C    5.167893  -0.068234   0.013831  -0.066252   0.458267   0.018833
    14  H   -0.068234   0.631012  -0.010725  -0.000200  -0.011462   0.000007
    15  H    0.013831  -0.010725   0.643424   0.000014  -0.000154  -0.000507
    16  H   -0.066252  -0.000200   0.000014   0.639036  -0.009978  -0.014964
    17  H    0.458267  -0.011462  -0.000154  -0.009978   0.637930  -0.000343
    18  C    0.018833   0.000007  -0.000507  -0.014964  -0.000343   5.558799
    19  C   -0.000177   0.000003   0.000195   0.000770   0.000014   0.070282
    20  N   -0.000541  -0.000107  -0.012740  -0.000224   0.000009  -0.170200
    21  O    0.000000   0.000000   0.000000   0.000000   0.000000  -0.085743
    22  O    0.000426   0.000000   0.000001   0.003657   0.000000   0.593982
    23  C    0.000079  -0.000025   0.007543   0.000011   0.000000   0.008517
    24  H   -0.000029   0.000005  -0.000223  -0.000001   0.000000  -0.000545
    25  H   -0.000022   0.000005   0.000011   0.000000   0.000000  -0.000587
    26  H    0.000002   0.000000  -0.000111   0.000000   0.000000   0.004083
    27  H    0.000002   0.000000   0.000000  -0.000072   0.000000  -0.020655
    28  O    0.000000   0.000000   0.000000   0.000002   0.000000   0.002107
    29  S    0.000000   0.000000   0.000000   0.000000   0.000000   0.001559
    30  O    0.000000   0.000000   0.000000   0.000000   0.000000  -0.000173
    31  O    0.000000   0.000000   0.000000   0.000000   0.000000   0.000000
    32  O    0.000000   0.000000   0.000000   0.000000   0.000000  -0.000177
              19         20         21         22         23         24
     1  N   -0.005945  -0.001550   0.003602  -0.003769   0.000015  -0.000004
     2  O    0.017506  -0.000278  -0.002358   0.000254   0.000140   0.000003
     3  O   -0.002125  -0.000015   0.000137   0.002133   0.000001   0.000000
     4  C   -0.057201   0.000263  -0.007174  -0.033799  -0.001464   0.000003
     5  H    0.010238  -0.002573   0.000147   0.000835   0.000064   0.000014
     6  H    0.002548   0.000501  -0.000110   0.000606   0.000031   0.000002
     7  H    0.000520   0.000047   0.002167   0.001675  -0.000001   0.000000
     8  C   -0.000785   0.008277   0.000001  -0.000015  -0.000273   0.000246
     9  C    0.003011  -0.084036  -0.000074  -0.000025   0.001811   0.002807
    10  C   -0.083655   0.320093   0.001620   0.003201  -0.045716  -0.006124
    11  C   -0.091620  -0.033245   0.007864  -0.084185   0.007013   0.000359
    12  C    0.017444   0.007636  -0.000040   0.005302  -0.000130   0.000016
    13  C   -0.000177  -0.000541   0.000000   0.000426   0.000079  -0.000029
    14  H    0.000003  -0.000107   0.000000   0.000000  -0.000025   0.000005
    15  H    0.000195  -0.012740   0.000000   0.000001   0.007543  -0.000223
    16  H    0.000770  -0.000224   0.000000   0.003657   0.000011  -0.000001
    17  H    0.000014   0.000009   0.000000   0.000000   0.000000   0.000000
    18  C    0.070282  -0.170200  -0.085743   0.593982   0.008517  -0.000545
    19  C    4.999422   0.240894   0.740518  -0.059376  -0.023596   0.000236
    20  N    0.240894   6.959819  -0.094902   0.003441   0.284536  -0.025514
    21  O    0.740518  -0.094902   7.662862  -0.000015  -0.005125   0.000072
    22  O   -0.059376   0.003441  -0.000015   7.842044  -0.000066   0.000003
    23  C   -0.023596   0.284536  -0.005125  -0.000066   4.495233   0.409529
    24  H    0.000236  -0.025514   0.000072   0.000003   0.409529   0.589069
    25  H    0.003588  -0.027709   0.000216   0.000000   0.406216  -0.029675
    26  H   -0.002475  -0.029583   0.016681  -0.000019   0.395503  -0.017880
    27  H   -0.002935   0.000600   0.009143   0.097481  -0.000016   0.000002
    28  O    0.003009   0.000004  -0.001563  -0.042286   0.000000   0.000000
    29  S   -0.000276  -0.000001  -0.000461   0.000687   0.000000   0.000000
    30  O    0.000150   0.000000  -0.000006  -0.000198   0.000000   0.000000
    31  O    0.000000   0.000000  -0.000001  -0.000007   0.000000   0.000000
    32  O    0.000002   0.000000   0.000000  -0.000189   0.000000   0.000000
              25         26         27         28         29         30
     1  N    0.000044  -0.000015   0.000465  -0.000149   0.000278   0.002702
     2  O   -0.000014   0.000160  -0.000131   0.000003  -0.000217  -0.000718
     3  O    0.000000   0.000002   0.003466  -0.000818   0.006082  -0.060629
     4  C    0.000176  -0.000281   0.000285   0.000023  -0.000321  -0.000009
     5  H    0.000106   0.000024   0.000035  -0.000001   0.000004   0.000007
     6  H   -0.000018   0.000005  -0.000133   0.000004   0.000037   0.000020
     7  H    0.000000  -0.000003  -0.000575   0.006999  -0.021243   0.257811
     8  C    0.000228  -0.000011   0.000000   0.000000   0.000000   0.000000
     9  C    0.002049   0.000435   0.000008   0.000000   0.000000   0.000000
    10  C   -0.005365   0.005784  -0.000123   0.000007  -0.000001   0.000000
    11  C    0.000479  -0.001371   0.002891  -0.000232   0.000036  -0.000004
    12  C   -0.000011   0.000017  -0.000160   0.000001   0.000001   0.000000
    13  C   -0.000022   0.000002   0.000002   0.000000   0.000000   0.000000
    14  H    0.000005   0.000000   0.000000   0.000000   0.000000   0.000000
    15  H    0.000011  -0.000111   0.000000   0.000000   0.000000   0.000000
    16  H    0.000000   0.000000  -0.000072   0.000002   0.000000   0.000000
    17  H    0.000000   0.000000   0.000000   0.000000   0.000000   0.000000
    18  C   -0.000587   0.004083  -0.020655   0.002107   0.001559  -0.000173
    19  C    0.003588  -0.002475  -0.002935   0.003009  -0.000276   0.000150
    20  N   -0.027709  -0.029583   0.000600   0.000004  -0.000001   0.000000
    21  O    0.000216   0.016681   0.009143  -0.001563  -0.000461  -0.000006
    22  O    0.000000  -0.000019   0.097481  -0.042286   0.000687  -0.000198
    23  C    0.406216   0.395503  -0.000016   0.000000   0.000000   0.000000
    24  H   -0.029675  -0.017880   0.000002   0.000000   0.000000   0.000000
    25  H    0.589881  -0.016684   0.000000   0.000000   0.000000   0.000000
    26  H   -0.016684   0.568305  -0.000025   0.000001   0.000000   0.000000
    27  H    0.000000  -0.000025   0.367757   0.282150  -0.013386   0.006488
    28  O    0.000000   0.000001   0.282150   8.067481   0.302936  -0.053879
    29  S    0.000000   0.000000  -0.013386   0.302936  13.262824   0.311892
    30  O    0.000000   0.000000   0.006488  -0.053879   0.311892   8.121937
    31  O    0.000000   0.000000   0.001398  -0.052213   0.504161  -0.051132
    32  O    0.000000   0.000000   0.007941  -0.056333   0.475248  -0.055291
              31         32
     1  N    0.000000   0.000115
     2  O    0.000000  -0.000001
     3  O   -0.000014  -0.000664
     4  C    0.000000   0.000006
     5  H    0.000000   0.000000
     6  H    0.000000   0.000004
     7  H    0.000871   0.006993
     8  C    0.000000   0.000000
     9  C    0.000000   0.000000
    10  C    0.000000   0.000000
    11  C    0.000000  -0.000004
    12  C    0.000000   0.000000
    13  C    0.000000   0.000000
    14  H    0.000000   0.000000
    15  H    0.000000   0.000000
    16  H    0.000000   0.000000
    17  H    0.000000   0.000000
    18  C    0.000000  -0.000177
    19  C    0.000000   0.000002
    20  N    0.000000   0.000000
    21  O   -0.000001   0.000000
    22  O   -0.000007  -0.000189
    23  C    0.000000   0.000000
    24  H    0.000000   0.000000
    25  H    0.000000   0.000000
    26  H    0.000000   0.000000
    27  H    0.001398   0.007941
    28  O   -0.052213  -0.056333
    29  S    0.504161   0.475248
    30  O   -0.051132  -0.055291
    31  O    8.200777  -0.049000
    32  O   -0.049000   8.230539
 Mulliken charges:
               1
     1  N    0.234275
     2  O   -0.359505
     3  O   -0.422343
     4  C    0.000312
     5  H    0.079558
     6  H    0.068953
     7  H    0.251846
     8  C   -0.017383
     9  C   -0.087285
    10  C    0.165083
    11  C    0.015582
    12  C   -0.041175
    13  C   -0.033654
    14  H    0.047279
    15  H    0.025898
    16  H    0.034584
    17  H    0.040144
    18  C    0.029810
    19  C    0.219819
    20  N   -0.342902
    21  O   -0.247457
    22  O   -0.331779
    23  C    0.060169
    24  H    0.077627
    25  H    0.077084
    26  H    0.077454
    27  H    0.258098
    28  O   -0.457253
    29  S    1.170160
    30  O   -0.478970
    31  O   -0.554840
    32  O   -0.559190
 Sum of Mulliken charges =  -1.00000
 Mulliken charges with hydrogens summed into heavy atoms:
               1
     1  N    0.234275
     2  O   -0.359505
     3  O   -0.422343
     4  C    0.148823
     8  C    0.029896
     9  C   -0.061387
    10  C    0.165083
    11  C    0.015582
    12  C   -0.006591
    13  C    0.006490
    18  C    0.029810
    19  C    0.219819
    20  N   -0.342902
    21  O   -0.247457
    22  O   -0.331779
    23  C    0.292335
    28  O   -0.199155
    29  S    1.170160
    30  O   -0.227123
    31  O   -0.554840
    32  O   -0.559190
 APT charges:
               1
     1  N    1.950215
     2  O   -1.060838
     3  O   -1.278627
     4  C   -1.026388
     5  H    0.115633
     6  H    0.137637
     7  H    0.965318
     8  C    0.084777
     9  C   -0.235273
    10  C    0.623301
    11  C   -0.428740
    12  C    0.143572
    13  C   -0.259725
    14  H    0.057151
    15  H    0.085046
    16  H    0.076600
    17  H    0.055750
    18  C    1.567619
    19  C    1.191697
    20  N   -1.202736
    21  O   -0.937832
    22  O   -1.249722
    23  C    0.372483
    24  H   -0.011168
    25  H   -0.007141
    26  H    0.067144
    27  H    0.898419
    28  O   -1.335490
    29  S    3.210708
    30  O   -1.367404
    31  O   -1.105718
    32  O   -1.096273
 Sum of APT charges =  -1.00000
 APT charges with hydrogens summed into heavy atoms:
               1
     1  N    1.950215
     2  O   -1.060838
     3  O   -1.278627
     4  C   -0.773118
     8  C    0.141928
     9  C   -0.150227
    10  C    0.623301
    11  C   -0.428740
    12  C    0.220172
    13  C   -0.203974
    18  C    1.567619
    19  C    1.191697
    20  N   -1.202736
    21  O   -0.937832
    22  O   -1.249722
    23  C    0.421317
    28  O   -0.437071
    29  S    3.210708
    30  O   -0.402086
    31  O   -1.105718
    32  O   -1.096273
 Electronic spatial extent (au):  <R**2>=           6804.8137
 Charge=             -1.0000 electrons
 Dipole moment (field-independent basis, Debye):
    X=            -21.2616    Y=              0.3736    Z=              0.4416  Tot=             21.2694
 Quadrupole moment (field-independent basis, Debye-Ang):
   XX=           -169.0394   YY=           -134.7393   ZZ=           -139.4157
   XY=             -0.3545   XZ=              7.0483   YZ=             -5.1622
 Traceless Quadrupole moment (field-independent basis, Debye-Ang):
   XX=            -21.3079   YY=             12.9922   ZZ=              8.3158
   XY=             -0.3545   XZ=              7.0483   YZ=             -5.1622
 Octapole moment (field-independent basis, Debye-Ang**2):
  XXX=           -289.4991  YYY=              4.2694  ZZZ=              3.9857  XYY=            -44.4165
  XXY=             33.9183  XXZ=             35.3981  XZZ=             -3.0244  YZZ=              2.0458
  YYZ=            -11.7963  XYZ=             14.1808
 Hexadecapole moment (field-independent basis, Debye-Ang**3):
 XXXX=          -7036.8167 YYYY=          -1345.9113 ZZZZ=           -934.6195 XXXY=             63.9725
 XXXZ=            244.2286 YYYX=            -10.3333 YYYZ=            -40.6253 ZZZX=              7.8682
 ZZZY=             -6.5535 XXYY=          -1269.5221 XXZZ=          -1363.9766 YYZZ=           -403.4547
 XXYZ=            -24.6947 YYXZ=            -22.5595 ZZXY=            -36.6142
 N-N= 2.015538200893D+03 E-N=-7.568522987255D+03  KE= 1.486022244988D+03
  Exact polarizability: 300.834  30.541 226.957  14.507  -1.856 161.554
 Approx polarizability: 267.492  23.115 233.240   4.618  -2.691 161.663
   1 Symmetry operations used in ECPInt.
 ECPInt:  NShTT=   13041 NPrTT=   49457 LenC2=   11748 LenP2D=   30529.
 LDataN:  DoStor=T MaxTD1= 6 Len=  172
 D2PCM: C-PCM CHGder 2nd derivatives, FixD1E=F FixD2E=F DoIter=F DoCFld=F I1PDM=0
 Calling FoFJK, ICntrl=    100127 FMM=F ISym2X=0 I1Cent= 0 IOpClX= 0 NMat=1 NMatS=1 NMatT=0.
 Full mass-weighted force constant matrix:
 Low frequencies --- -210.6990  -27.4640  -14.0155   -7.5482   -0.0017   -0.0017
 Low frequencies ---    0.0007    5.0677   49.1941
 ******    2 imaginary frequencies (negative Signs) ****** 
 Diagonal vibrational polarizability:
      430.9182475     106.4433983     259.7951187
 Harmonic frequencies (cm**-1), IR intensities (KM/Mole), Raman scattering
 activities (A**4/AMU), depolarization ratios for plane and unpolarized
 incident light, reduced masses (AMU), force constants (mDyne/A),
 and normal coordinates:
                      1                      2                      3
                      A                      A                      A
 Frequencies --   -210.6845               -25.5648                49.1818
 Red. masses --      7.9454                 8.4854                 6.5928
 Frc consts  --      0.2078                 0.0033                 0.0094
 IR Inten    --    429.6397                 0.5347                 1.2954
  Atom  AN      X      Y      Z        X      Y      Z        X      Y      Z
     1   7    -0.05   0.07   0.07    -0.06  -0.02   0.04     0.03  -0.09   0.06
     2   8     0.06   0.09  -0.02    -0.17   0.00   0.09     0.13  -0.10   0.04
     3   8     0.02   0.01  -0.10     0.01   0.08  -0.02    -0.03  -0.17   0.07
     4   6     0.05   0.18   0.52    -0.01  -0.13   0.05    -0.02   0.02   0.06
     5   1     0.02   0.16   0.39    -0.07  -0.21   0.09     0.04   0.09   0.04
     6   1     0.00   0.04   0.02     0.09  -0.14   0.00    -0.11   0.02   0.07
     7   1    -0.33  -0.14   0.05    -0.09   0.15  -0.14    -0.03  -0.16   0.12
     8   6    -0.01   0.02   0.03    -0.02   0.12  -0.06    -0.03   0.06  -0.02
     9   6     0.00   0.01   0.03     0.05   0.09  -0.03     0.00   0.03  -0.10
    10   6     0.00  -0.01  -0.01     0.06   0.01   0.00     0.00   0.00  -0.05
    11   6    -0.03  -0.04  -0.08    -0.01  -0.03   0.00    -0.02   0.01   0.05
    12   6    -0.04  -0.04  -0.05    -0.08   0.00  -0.03    -0.05   0.04   0.13
    13   6    -0.03  -0.01   0.02    -0.08   0.07  -0.06    -0.05   0.07   0.09
    14   1    -0.01   0.03   0.06    -0.02   0.17  -0.08    -0.03   0.08  -0.05
    15   1     0.00   0.02   0.06     0.11   0.12  -0.04     0.02   0.03  -0.18
    16   1    -0.04  -0.05  -0.10    -0.13  -0.03  -0.02    -0.08   0.05   0.22
    17   1    -0.05   0.01   0.04    -0.14   0.10  -0.08    -0.08   0.09   0.15
    18   6    -0.08  -0.15  -0.37     0.01  -0.10   0.04    -0.01  -0.02   0.06
    19   6     0.00  -0.03  -0.06     0.10  -0.10   0.06     0.02  -0.03  -0.01
    20   7     0.01  -0.01   0.00     0.12  -0.03   0.03     0.03  -0.02  -0.09
    21   8     0.01  -0.05   0.00     0.15  -0.15   0.10     0.04  -0.06   0.00
    22   8    -0.09  -0.08  -0.06    -0.02  -0.15   0.06    -0.02  -0.03   0.10
    23   6     0.01   0.00   0.04     0.20   0.01   0.06     0.05  -0.06  -0.28
    24   1     0.01   0.02   0.04     0.23   0.07   0.04     0.07  -0.17  -0.29
    25   1     0.02  -0.02   0.05     0.20   0.01   0.06     0.04   0.07  -0.35
    26   1     0.01   0.00   0.04     0.24  -0.04   0.11     0.06  -0.09  -0.35
    27   1     0.22   0.04  -0.13    -0.02  -0.19   0.03    -0.03   0.02   0.07
    28   8     0.09   0.01  -0.10    -0.04  -0.22  -0.02    -0.06   0.08   0.04
    29  16     0.04   0.04   0.04    -0.03   0.06  -0.05    -0.01   0.07  -0.02
    30   8    -0.09  -0.07   0.03    -0.15   0.15  -0.20    -0.04  -0.07   0.13
    31   8     0.05   0.03   0.05    -0.09   0.09  -0.11    -0.08   0.25  -0.06
    32   8     0.00  -0.03  -0.05     0.13   0.17   0.12     0.13  -0.02  -0.17
                      4                      5                      6
                      A                      A                      A
 Frequencies --     56.3517                68.6110                86.9137
 Red. masses --      8.5621                 8.1293                 9.1660
 Frc consts  --      0.0160                 0.0225                 0.0408
 IR Inten    --      4.0811                 1.7127                 3.2626
  Atom  AN      X      Y      Z        X      Y      Z        X      Y      Z
     1   7     0.04   0.12   0.13    -0.10  -0.04   0.03    -0.03  -0.07   0.10
     2   8     0.05   0.12   0.12    -0.17  -0.03   0.02     0.04  -0.07   0.16
     3   8     0.04   0.11   0.12    -0.05   0.02   0.13    -0.06  -0.12   0.06
     4   6     0.04   0.13   0.16    -0.07  -0.12  -0.09    -0.05   0.00   0.06
     5   1     0.04   0.13   0.15    -0.12  -0.17  -0.14    -0.02   0.02   0.07
     6   1     0.03   0.13   0.16    -0.02  -0.12  -0.08    -0.11  -0.03  -0.02
     7   1    -0.02   0.00  -0.01    -0.10  -0.02   0.05    -0.19  -0.13  -0.07
     8   6     0.07  -0.10  -0.23     0.08   0.06   0.21     0.06  -0.06   0.04
     9   6     0.05  -0.08  -0.18     0.10   0.04   0.11     0.00  -0.03   0.01
    10   6     0.05  -0.03  -0.02     0.09  -0.01  -0.02     0.00   0.04  -0.01
    11   6     0.06   0.00   0.07     0.08  -0.02  -0.06     0.05   0.08  -0.01
    12   6     0.08  -0.02   0.01     0.07   0.00   0.04     0.12   0.05   0.03
    13   6     0.08  -0.08  -0.14     0.07   0.05   0.18     0.12  -0.02   0.06
    14   1     0.07  -0.15  -0.36     0.08   0.10   0.33     0.06  -0.11   0.06
    15   1     0.03  -0.11  -0.26     0.10   0.05   0.15    -0.05  -0.06   0.00
    16   1     0.09   0.00   0.07     0.06   0.00   0.03     0.17   0.09   0.03
    17   1     0.09  -0.09  -0.19     0.06   0.07   0.26     0.17  -0.04   0.08
    18   6     0.05   0.02   0.11     0.09  -0.03  -0.08     0.03   0.13  -0.01
    19   6     0.05   0.02   0.11     0.10  -0.04  -0.08    -0.03   0.14   0.00
    20   7     0.04  -0.01   0.03     0.10  -0.03  -0.07    -0.05   0.08  -0.02
    21   8     0.05   0.03   0.16     0.11  -0.05  -0.07    -0.06   0.18   0.01
    22   8     0.06   0.03   0.16     0.09  -0.02  -0.10     0.04   0.16  -0.03
    23   6     0.03  -0.03  -0.05     0.12  -0.02  -0.06    -0.13   0.02  -0.15
    24   1     0.12  -0.07  -0.11     0.06  -0.01  -0.02    -0.14  -0.11  -0.15
    25   1    -0.07  -0.03  -0.12     0.19   0.01  -0.02    -0.14   0.08  -0.19
    26   1     0.03  -0.01   0.03     0.13  -0.04  -0.13    -0.17   0.06  -0.23
    27   1    -0.08   0.05  -0.06     0.01   0.09  -0.22     0.07  -0.10  -0.16
    28   8    -0.11   0.07  -0.11     0.01   0.16  -0.16     0.13  -0.32  -0.18
    29  16    -0.12  -0.04  -0.09    -0.10   0.03  -0.01     0.01  -0.06  -0.03
    30   8    -0.04  -0.04  -0.07    -0.12   0.00   0.03    -0.29  -0.03  -0.17
    31   8    -0.08  -0.11  -0.07     0.03   0.01   0.15     0.05   0.03   0.07
    32   8    -0.23  -0.06  -0.12    -0.29  -0.02  -0.08     0.10   0.02   0.09
                      7                      8                      9
                      A                      A                      A
 Frequencies --     91.8447               116.5484               125.0003
 Red. masses --      5.4839                 3.1850                 3.2468
 Frc consts  --      0.0273                 0.0255                 0.0299
 IR Inten    --      7.9062                 1.0486                 0.6929
  Atom  AN      X      Y      Z        X      Y      Z        X      Y      Z
     1   7     0.01  -0.05   0.04     0.09  -0.03   0.01     0.10  -0.06  -0.01
     2   8    -0.12  -0.02   0.21     0.09  -0.04  -0.06     0.15  -0.07  -0.02
     3   8     0.09   0.05  -0.16     0.09  -0.03   0.07     0.08  -0.09   0.01
     4   6     0.07  -0.18   0.09     0.08  -0.02   0.03     0.08  -0.01  -0.02
     5   1     0.01  -0.29   0.25     0.09  -0.01   0.01     0.11   0.02  -0.02
     6   1     0.20  -0.23  -0.08     0.07  -0.01   0.06     0.04  -0.01  -0.01
     7   1     0.08   0.13  -0.09     0.03   0.02   0.04     0.03   0.02   0.02
     8   6    -0.04   0.02   0.01    -0.02   0.01  -0.02    -0.02   0.00  -0.05
     9   6    -0.03   0.01  -0.04    -0.01   0.03   0.11    -0.02  -0.02  -0.11
    10   6    -0.03   0.00  -0.02    -0.01   0.02   0.10    -0.01  -0.01  -0.05
    11   6    -0.03   0.01   0.01    -0.01   0.00   0.03    -0.02   0.00   0.02
    12   6    -0.04   0.02   0.06    -0.02  -0.02  -0.10    -0.03   0.02   0.09
    13   6    -0.04   0.03   0.07    -0.03  -0.02  -0.14    -0.03   0.02   0.07
    14   1    -0.04   0.03   0.01    -0.02   0.02  -0.04    -0.02   0.00  -0.08
    15   1    -0.03   0.00  -0.07     0.00   0.06   0.19    -0.01  -0.03  -0.20
    16   1    -0.05   0.02   0.09    -0.03  -0.05  -0.19    -0.04   0.03   0.17
    17   1    -0.05   0.04   0.12    -0.03  -0.04  -0.26    -0.03   0.04   0.14
    18   6    -0.03   0.00  -0.02    -0.01  -0.01   0.02    -0.01  -0.01  -0.02
    19   6    -0.03   0.02   0.05    -0.01  -0.01   0.01    -0.01  -0.01  -0.02
    20   7    -0.03   0.00  -0.03     0.00   0.02   0.10    -0.01  -0.01  -0.04
    21   8    -0.02   0.04   0.12    -0.02  -0.04  -0.09    -0.01  -0.01  -0.01
    22   8    -0.04   0.02  -0.08    -0.02  -0.01  -0.02    -0.02  -0.02  -0.06
    23   6    -0.05  -0.05  -0.24     0.00  -0.03  -0.13    -0.01   0.01   0.07
    24   1    -0.02  -0.21  -0.27    -0.28  -0.27   0.05     0.35   0.18  -0.17
    25   1    -0.08   0.07  -0.33     0.27   0.26  -0.07    -0.37  -0.24  -0.06
    26   1    -0.05  -0.06  -0.31    -0.01  -0.14  -0.59     0.00   0.13   0.57
    27   1     0.04   0.08  -0.01    -0.01   0.01  -0.03     0.00   0.02  -0.06
    28   8     0.03   0.09   0.01    -0.01   0.02  -0.02     0.01   0.02  -0.03
    29  16     0.05   0.00   0.00    -0.03   0.03   0.02    -0.04   0.04   0.02
    30   8     0.16   0.06  -0.04    -0.04   0.06  -0.03    -0.05   0.09  -0.04
    31   8     0.07  -0.13  -0.03    -0.01  -0.02   0.04     0.01  -0.03   0.06
    32   8    -0.06   0.02   0.03    -0.08   0.06   0.07    -0.11   0.08   0.09
                     10                     11                     12
                      A                      A                      A
 Frequencies --    137.9204               146.3599               154.7965
 Red. masses --      2.1848                 2.5784                10.7402
 Frc consts  --      0.0245                 0.0325                 0.1516
 IR Inten    --      0.6498                 6.5515                 1.5347
  Atom  AN      X      Y      Z        X      Y      Z        X      Y      Z
     1   7    -0.02   0.00   0.01    -0.01  -0.01   0.00     0.12   0.11   0.15
     2   8    -0.09   0.00  -0.08    -0.06  -0.01  -0.06     0.02   0.12   0.18
     3   8     0.02   0.05   0.07     0.03   0.03   0.04     0.21   0.21   0.49
     4   6     0.01  -0.07   0.05     0.02  -0.06   0.02     0.14  -0.01  -0.17
     5   1    -0.03  -0.11   0.03    -0.01  -0.09   0.03     0.07  -0.08  -0.25
     6   1     0.07  -0.06   0.07     0.06  -0.05   0.05     0.18   0.00  -0.14
     7   1    -0.02  -0.03   0.01    -0.02  -0.02  -0.01     0.15  -0.03   0.19
     8   6    -0.02   0.01  -0.03    -0.04   0.00  -0.12    -0.07   0.03   0.06
     9   6     0.00   0.02   0.03    -0.02  -0.01  -0.12    -0.05   0.00  -0.02
    10   6    -0.01   0.02   0.07    -0.02  -0.01   0.00    -0.05  -0.03  -0.10
    11   6    -0.01   0.01   0.05    -0.02   0.01   0.08    -0.05  -0.04  -0.12
    12   6    -0.02   0.01   0.00    -0.05   0.03   0.13    -0.08  -0.02  -0.07
    13   6    -0.02   0.01  -0.05    -0.05   0.03   0.04    -0.08   0.02   0.02
    14   1    -0.02   0.01  -0.07    -0.04   0.00  -0.22    -0.07   0.06   0.14
    15   1     0.01   0.03   0.02     0.00  -0.02  -0.22    -0.04   0.02   0.01
    16   1    -0.03  -0.01  -0.02    -0.07   0.04   0.23    -0.09  -0.03  -0.08
    17   1    -0.03   0.00  -0.10    -0.06   0.04   0.07    -0.09   0.03   0.08
    18   6     0.00   0.01   0.05    -0.01   0.00   0.05    -0.04  -0.05  -0.13
    19   6    -0.01   0.00   0.02    -0.02  -0.01   0.01    -0.04  -0.02  -0.06
    20   7     0.00   0.02   0.10    -0.01  -0.01   0.01    -0.05  -0.04  -0.12
    21   8    -0.02  -0.03  -0.08    -0.02  -0.03  -0.04    -0.05   0.03   0.05
    22   8     0.01   0.02   0.01     0.00   0.03   0.00    -0.07  -0.08  -0.23
    23   6    -0.01  -0.01  -0.05    -0.02   0.02   0.11    -0.08  -0.02   0.01
    24   1     0.44  -0.01  -0.36    -0.40   0.00   0.37    -0.12   0.05   0.04
    25   1    -0.47  -0.14  -0.32     0.37   0.14   0.33    -0.05  -0.10   0.07
    26   1     0.00   0.10   0.44    -0.02  -0.08  -0.32    -0.09   0.00   0.02
    27   1     0.05   0.03  -0.05     0.08   0.05  -0.10    -0.02  -0.11  -0.03
    28   8     0.05   0.00  -0.04     0.08   0.01  -0.08     0.00  -0.08   0.02
    29  16     0.03  -0.01  -0.01     0.04   0.00  -0.01     0.02  -0.04  -0.01
    30   8     0.00  -0.04   0.01    -0.02  -0.02  -0.02     0.02  -0.07   0.03
    31   8     0.05   0.03   0.02     0.08   0.02   0.05    -0.04   0.06  -0.05
    32   8     0.03  -0.03  -0.05     0.00  -0.02  -0.04     0.12  -0.06  -0.05
                     13                     14                     15
                      A                      A                      A
 Frequencies --    170.3974               180.7202               217.9121
 Red. masses --      8.7819                 8.8805                 6.0171
 Frc consts  --      0.1502                 0.1709                 0.1683
 IR Inten    --     23.1590                27.4855                 2.2628
  Atom  AN      X      Y      Z        X      Y      Z        X      Y      Z
     1   7     0.01   0.06  -0.12     0.00   0.07   0.06    -0.02   0.06  -0.04
     2   8     0.08   0.03  -0.19     0.13   0.08   0.43     0.02   0.06   0.10
     3   8    -0.06   0.00  -0.02    -0.11  -0.02  -0.10    -0.05   0.02  -0.08
     4   6    -0.05   0.13  -0.20    -0.09   0.18  -0.18    -0.02   0.07  -0.13
     5   1     0.00   0.21  -0.28    -0.01   0.26  -0.14    -0.03   0.07  -0.17
     6   1    -0.12   0.19   0.02    -0.20   0.20  -0.13    -0.04   0.08  -0.11
     7   1    -0.05  -0.04  -0.04     0.04   0.03  -0.10    -0.05  -0.02   0.02
     8   6    -0.08   0.05   0.06    -0.08   0.04   0.00     0.04  -0.13  -0.11
     9   6    -0.02   0.02   0.06    -0.02   0.03   0.08    -0.02  -0.06  -0.02
    10   6    -0.02  -0.05   0.01    -0.02  -0.04   0.06    -0.02   0.06   0.13
    11   6    -0.04  -0.07  -0.01    -0.03  -0.06   0.05    -0.02   0.06   0.13
    12   6    -0.11  -0.05  -0.04    -0.11  -0.04  -0.03     0.07   0.03   0.15
    13   6    -0.11   0.01  -0.01    -0.12   0.01  -0.09     0.08  -0.07   0.04
    14   1    -0.08   0.10   0.10    -0.08   0.09  -0.01     0.04  -0.21  -0.27
    15   1     0.02   0.06   0.11     0.03   0.07   0.12    -0.09  -0.12  -0.09
    16   1    -0.16  -0.09  -0.07    -0.17  -0.09  -0.07     0.15   0.08   0.18
    17   1    -0.14   0.03  -0.02    -0.15   0.00  -0.17     0.12  -0.10   0.01
    18   6    -0.01  -0.05   0.06     0.00  -0.04   0.09    -0.03  -0.01  -0.05
    19   6     0.00  -0.04   0.20    -0.03  -0.10  -0.07     0.00  -0.01   0.05
    20   7    -0.01  -0.06   0.05    -0.01  -0.07   0.00     0.02   0.07   0.19
    21   8     0.04   0.02   0.48    -0.02  -0.16  -0.22     0.01  -0.04  -0.02
    22   8     0.02  -0.01  -0.05     0.06   0.02   0.11    -0.14  -0.10  -0.30
    23   6     0.00  -0.09  -0.10    -0.01  -0.06   0.05     0.18   0.07  -0.05
    24   1     0.06  -0.19  -0.14     0.08   0.00  -0.01     0.25  -0.01  -0.10
    25   1    -0.05   0.00  -0.18    -0.11  -0.15   0.02     0.18   0.29  -0.16
    26   1     0.01  -0.10  -0.11    -0.01  -0.02   0.19     0.27  -0.08  -0.10
    27   1     0.11   0.04  -0.16     0.10   0.10  -0.11    -0.03  -0.09  -0.07
    28   8     0.13   0.00  -0.14     0.11   0.05  -0.11    -0.01  -0.03   0.01
    29  16     0.05   0.01  -0.02     0.06   0.01  -0.04    -0.02  -0.01   0.02
    30   8    -0.07  -0.01  -0.04     0.01   0.02  -0.05    -0.02  -0.03   0.04
    31   8     0.14   0.04   0.12     0.14   0.00   0.07    -0.03   0.05   0.03
    32   8    -0.03  -0.01  -0.05    -0.04   0.01  -0.04     0.02  -0.03  -0.01
                     16                     17                     18
                      A                      A                      A
 Frequencies --    248.7258               282.4668               311.9230
 Red. masses --      3.4841                 7.0908                 5.6775
 Frc consts  --      0.1270                 0.3333                 0.3255
 IR Inten    --     16.7038                59.8304                13.2836
  Atom  AN      X      Y      Z        X      Y      Z        X      Y      Z
     1   7    -0.01   0.02  -0.02    -0.10  -0.06   0.11     0.03   0.02  -0.03
     2   8     0.00   0.02   0.02    -0.01  -0.07  -0.05     0.02   0.03   0.03
     3   8    -0.02   0.00  -0.05    -0.16  -0.11   0.24     0.04   0.03  -0.05
     4   6     0.00   0.02  -0.02    -0.21   0.13   0.09     0.05  -0.02  -0.05
     5   1    -0.02   0.01  -0.06    -0.11   0.31  -0.13     0.02  -0.06  -0.04
     6   1     0.00   0.02  -0.03    -0.44   0.18   0.24     0.09  -0.04  -0.13
     7   1    -0.03  -0.01   0.02     0.22   0.08  -0.09    -0.03  -0.02   0.03
     8   6     0.04   0.10  -0.07    -0.01   0.01  -0.02    -0.04   0.03   0.02
     9   6     0.10   0.07  -0.03     0.02  -0.02  -0.06     0.00  -0.05  -0.19
    10   6     0.10  -0.03   0.05     0.02  -0.02   0.00     0.01  -0.06  -0.06
    11   6     0.07  -0.03   0.03     0.01  -0.04  -0.05     0.02  -0.10  -0.21
    12   6     0.00   0.01   0.05    -0.02  -0.02   0.01    -0.05  -0.06  -0.10
    13   6    -0.01   0.09   0.00    -0.02   0.02   0.07    -0.06   0.05   0.17
    14   1     0.03   0.14  -0.15    -0.01   0.02  -0.04    -0.04   0.08   0.12
    15   1     0.17   0.10  -0.07     0.03  -0.01  -0.09     0.05  -0.03  -0.24
    16   1    -0.08  -0.03   0.08    -0.04  -0.03   0.03    -0.11  -0.10  -0.11
    17   1    -0.06   0.12   0.00    -0.03   0.04   0.15    -0.08   0.11   0.43
    18   6     0.06  -0.03  -0.04     0.00  -0.01  -0.07     0.04  -0.04  -0.06
    19   6     0.07   0.02   0.01     0.00  -0.01   0.05    -0.02   0.02   0.07
    20   7     0.06  -0.01   0.10     0.01   0.02   0.14    -0.01   0.03   0.33
    21   8     0.05   0.03  -0.02     0.01  -0.06  -0.01    -0.14   0.12  -0.08
    22   8     0.03  -0.05  -0.10     0.05   0.08  -0.15     0.12   0.03   0.11
    23   6    -0.26  -0.15   0.03     0.02  -0.01   0.00     0.12  -0.01   0.00
    24   1    -0.32  -0.39   0.06     0.04  -0.11  -0.02     0.17  -0.18  -0.04
    25   1    -0.35  -0.26   0.03     0.01   0.09  -0.06     0.14   0.29  -0.14
    26   1    -0.45   0.10  -0.05     0.03  -0.04  -0.06     0.20  -0.16  -0.13
    27   1    -0.03  -0.07   0.01    -0.02   0.16   0.00    -0.01  -0.03   0.04
    28   8    -0.03  -0.02   0.03     0.03   0.12   0.02    -0.02  -0.03   0.01
    29  16    -0.03  -0.01   0.02     0.06   0.00  -0.07    -0.02  -0.01   0.01
    30   8    -0.01  -0.02   0.03     0.11   0.07  -0.05    -0.03  -0.02   0.01
    31   8    -0.05   0.02  -0.01     0.03  -0.18  -0.19    -0.03   0.03   0.02
    32   8     0.01  -0.01   0.01     0.05   0.13   0.11    -0.01  -0.02  -0.01
                     19                     20                     21
                      A                      A                      A
 Frequencies --    330.5518               344.6598               395.2759
 Red. masses --      6.3067                 9.2574                 4.6279
 Frc consts  --      0.4060                 0.6479                 0.4260
 IR Inten    --     15.1090               158.4791               131.5010
  Atom  AN      X      Y      Z        X      Y      Z        X      Y      Z
     1   7    -0.02   0.00   0.01     0.04   0.05  -0.01     0.01   0.01   0.06
     2   8    -0.01  -0.01  -0.01     0.02   0.05   0.00     0.01  -0.01  -0.02
     3   8    -0.03  -0.02   0.00     0.01   0.04  -0.10    -0.05   0.00  -0.02
     4   6    -0.02   0.01   0.04     0.07  -0.03   0.09    -0.05   0.03   0.13
     5   1    -0.02   0.03  -0.02     0.03  -0.09   0.18     0.02   0.11   0.16
     6   1    -0.04   0.02   0.07     0.19  -0.02   0.12    -0.07   0.12   0.44
     7   1     0.01  -0.01   0.00    -0.05  -0.03   0.07     0.19   0.18  -0.10
     8   6    -0.04   0.05  -0.07    -0.06   0.01   0.01     0.01   0.05   0.14
     9   6     0.06   0.03   0.13     0.02  -0.03   0.04     0.02  -0.02  -0.15
    10   6     0.05  -0.09   0.09     0.02  -0.09   0.00     0.01  -0.03  -0.03
    11   6     0.06  -0.07   0.14     0.03  -0.10   0.04     0.01   0.01   0.09
    12   6    -0.06  -0.03   0.13    -0.09  -0.07   0.03     0.01  -0.04  -0.17
    13   6    -0.08   0.02  -0.10    -0.10  -0.02  -0.03     0.01   0.02   0.01
    14   1    -0.05   0.09  -0.21    -0.07   0.07   0.00     0.01   0.09   0.32
    15   1     0.16   0.11   0.15     0.09   0.02   0.05     0.03  -0.04  -0.30
    16   1    -0.18  -0.09   0.19    -0.19  -0.13   0.07     0.00  -0.09  -0.35
    17   1    -0.12   0.01  -0.26    -0.13  -0.01  -0.07     0.00   0.03   0.04
    18   6     0.10  -0.04  -0.03     0.02   0.10   0.03     0.02   0.05   0.20
    19   6     0.00   0.01  -0.07    -0.05  -0.02   0.04     0.02   0.01   0.08
    20   7     0.00  -0.14  -0.12    -0.02  -0.05  -0.08     0.01  -0.04  -0.04
    21   8    -0.22   0.36  -0.02     0.07  -0.20   0.02    -0.03   0.03  -0.06
    22   8     0.07  -0.07  -0.06     0.25   0.46  -0.26    -0.08  -0.04  -0.16
    23   6     0.19  -0.07   0.00     0.08   0.00   0.00     0.02  -0.04   0.02
    24   1     0.23   0.13  -0.02     0.10   0.13   0.00     0.00   0.01   0.04
    25   1     0.25  -0.05   0.03     0.12   0.00   0.03     0.04  -0.08   0.05
    26   1     0.32  -0.23   0.09     0.16  -0.09   0.06     0.02  -0.04   0.02
    27   1     0.02  -0.11  -0.02    -0.23   0.31  -0.02    -0.05  -0.18   0.02
    28   8     0.00   0.01   0.00    -0.01  -0.05   0.02    -0.02  -0.12   0.03
    29  16     0.00   0.00   0.00    -0.09  -0.04   0.03     0.00  -0.02  -0.03
    30   8     0.00   0.00   0.01    -0.03  -0.06   0.08     0.13   0.07  -0.03
    31   8    -0.02  -0.02  -0.03    -0.15   0.05  -0.02     0.04   0.13   0.10
    32   8     0.00   0.02   0.02     0.06  -0.03   0.06    -0.09  -0.03  -0.05
                     22                     23                     24
                      A                      A                      A
 Frequencies --    404.2336               424.3679               486.6305
 Red. masses --     10.9170                 5.3651                 4.1795
 Frc consts  --      1.0510                 0.5693                 0.5831
 IR Inten    --     33.2918                28.3744               133.3797
  Atom  AN      X      Y      Z        X      Y      Z        X      Y      Z
     1   7     0.01   0.02   0.01     0.00  -0.05   0.03    -0.02  -0.04  -0.02
     2   8     0.03   0.01  -0.01    -0.01  -0.04  -0.01    -0.03  -0.02   0.01
     3   8     0.00   0.01  -0.01     0.02   0.00   0.04     0.03  -0.01   0.03
     4   6     0.02  -0.01   0.03    -0.04   0.04   0.04    -0.01   0.02  -0.04
     5   1     0.01  -0.03   0.05     0.02   0.12  -0.01     0.00   0.05  -0.14
     6   1     0.07   0.01   0.11    -0.15   0.04   0.02    -0.11  -0.03  -0.24
     7   1    -0.25   0.05  -0.18     0.21   0.29  -0.17     0.01   0.06  -0.02
     8   6     0.02   0.03   0.05    -0.01  -0.04  -0.12    -0.06  -0.04   0.03
     9   6     0.03   0.00  -0.06    -0.01   0.02   0.15     0.01  -0.09  -0.08
    10   6     0.02  -0.02   0.00     0.00   0.00  -0.03     0.02   0.05   0.25
    11   6     0.01  -0.01   0.05     0.00  -0.04  -0.16     0.00   0.02   0.21
    12   6     0.01  -0.03  -0.06    -0.02   0.03   0.15    -0.07  -0.04  -0.11
    13   6     0.01   0.01   0.00    -0.01  -0.02  -0.01    -0.08  -0.03   0.09
    14   1     0.02   0.05   0.11    -0.01  -0.06  -0.25    -0.06  -0.02  -0.13
    15   1     0.05   0.00  -0.13    -0.01   0.07   0.37     0.00  -0.18  -0.49
    16   1    -0.01  -0.06  -0.13    -0.02   0.08   0.40    -0.09  -0.14  -0.53
    17   1    -0.01   0.03   0.01    -0.01  -0.01   0.00    -0.06  -0.06   0.03
    18   6     0.00   0.02   0.08    -0.01  -0.01  -0.14     0.01  -0.01  -0.18
    19   6     0.00   0.00   0.02    -0.01   0.00  -0.03     0.03   0.02  -0.16
    20   7     0.01  -0.03  -0.02    -0.01   0.03   0.04     0.02   0.03  -0.04
    21   8    -0.02   0.01  -0.03     0.02  -0.03   0.02     0.09   0.04   0.05
    22   8    -0.03   0.00  -0.09     0.07   0.05   0.01     0.07   0.05   0.06
    23   6     0.02  -0.03   0.01    -0.01   0.03  -0.01    -0.01   0.05  -0.02
    24   1     0.01   0.00   0.02     0.01  -0.01  -0.03    -0.02   0.07  -0.01
    25   1     0.03  -0.04   0.03    -0.03   0.06  -0.04    -0.01   0.02   0.00
    26   1     0.02  -0.03   0.01     0.00   0.02  -0.01    -0.02   0.07  -0.02
    27   1    -0.20   0.20   0.27    -0.11  -0.14   0.26     0.00  -0.03   0.09
    28   8    -0.19   0.30   0.25    -0.10  -0.13   0.15    -0.01  -0.04   0.05
    29  16    -0.02  -0.03   0.01    -0.01  -0.03  -0.04     0.00   0.01   0.01
    30   8    -0.34   0.10  -0.26     0.13   0.15  -0.14     0.02   0.05  -0.03
    31   8     0.16  -0.21   0.19     0.08   0.12   0.16     0.00   0.00   0.00
    32   8     0.32  -0.14  -0.16    -0.08  -0.08  -0.13    -0.03  -0.03  -0.04
                     25                     26                     27
                      A                      A                      A
 Frequencies --    497.6214               538.1461               546.8705
 Red. masses --      7.2160                 9.7113                 6.1750
 Frc consts  --      1.0528                 1.6570                 1.0881
 IR Inten    --     20.7930               112.1919                39.9580
  Atom  AN      X      Y      Z        X      Y      Z        X      Y      Z
     1   7     0.00  -0.03  -0.02     0.04  -0.02   0.01     0.01   0.00  -0.01
     2   8    -0.02  -0.01   0.01    -0.02   0.00   0.00    -0.01   0.00   0.00
     3   8     0.03   0.00   0.02     0.01   0.02  -0.03     0.01   0.00   0.00
     4   6     0.00   0.02  -0.03     0.00   0.01   0.05     0.01   0.00  -0.01
     5   1     0.01   0.04  -0.06     0.05   0.06   0.08     0.01   0.01  -0.01
     6   1    -0.07  -0.02  -0.18    -0.03   0.04   0.16     0.00   0.01   0.01
     7   1     0.02   0.03   0.00     0.25   0.15  -0.18     0.08  -0.03  -0.02
     8   6     0.20   0.17  -0.05    -0.10  -0.05  -0.05     0.16   0.05   0.01
     9   6     0.03   0.20  -0.08    -0.14   0.00   0.02     0.24  -0.03  -0.01
    10   6    -0.03   0.00   0.12    -0.09   0.07   0.09     0.17  -0.03  -0.02
    11   6     0.04   0.00   0.08     0.01   0.10  -0.04     0.00  -0.15   0.04
    12   6     0.21  -0.04  -0.04     0.03   0.13  -0.06    -0.07  -0.19   0.05
    13   6     0.23   0.19   0.01     0.03   0.06   0.06    -0.07  -0.11   0.00
    14   1     0.20   0.00  -0.12    -0.10  -0.18  -0.17     0.15   0.24   0.01
    15   1     0.10   0.20  -0.27    -0.18  -0.04  -0.06     0.28   0.01   0.01
    16   1     0.21  -0.07  -0.22     0.07   0.13  -0.17    -0.11  -0.22   0.08
    17   1     0.12   0.25  -0.03     0.15   0.01   0.10    -0.24  -0.02  -0.03
    18   6    -0.07  -0.07  -0.10     0.07  -0.04  -0.06    -0.07  -0.06   0.03
    19   6    -0.23  -0.16  -0.01     0.03  -0.06  -0.05    -0.09   0.05  -0.01
    20   7    -0.15  -0.08  -0.03     0.00  -0.05  -0.01    -0.05   0.16  -0.03
    21   8    -0.24  -0.16   0.10     0.01   0.01   0.03    -0.06  -0.02   0.01
[...]
 00101951,-0.00209794,0.00046455,0.00119367,-0.00021973,0.00006317,0.00
 010162,0.00003066,-0.00000581,0.00022979,-0.00007054,-0.00001173,-0.00
 037109,-0.00002438,-0.00000058,0.00024176,0.00008489,-0.00003010,-0.03
 524848,0.03162493,0.01550442,-0.00146530,0.00111886,-0.00313056,0.0003
 8214,-0.00315755,0.00114859,-0.00030333,-0.00313992,0.00152284,0.04642
 449,-0.01149761,-0.01883811,0.00014410,0.00114503,-0.00011607,0.000247
 30,-0.00030121,0.00010195,0.00022478,-0.00023374,-0.00000086,-0.000140
 61,0.00004838,0.00000376,0.18800788,0.00614291,0.00116195,-0.00086887,
 -0.00116185,-0.00196232,0.00036000,-0.00341732,0.00078418,0.00134292,-
 0.00222989,-0.00193189,-0.00319500,-0.00009004,-0.00003182,-0.00006619
 ,0.00010320,0.00005902,0.00049082,0.00149454,0.00058691,-0.00357857,0.
 00004587,0.00030452,-0.00006570,-0.00021417,-0.00036649,0.00013751,0.0
 0100663,0.00178589,-0.00047226,0.00225587,-0.00148248,-0.00035684,-0.0
 0044844,-0.00053030,0.00009132,0.00033670,-0.00021376,0.00007699,0.000
 00463,-0.00000428,-0.00000085,0.00007948,-0.00000518,-0.00000604,-0.00
 001987,0.00002211,-0.00003235,0.00004117,0.00001133,-0.00000655,-0.000
 49985,0.01304201,0.00169443,0.00719481,0.00063864,-0.00197921,-0.00275
 267,-0.00080899,0.00055383,-0.00535338,0.00138120,0.00108050,0.0098418
 8,-0.02330996,-0.00268571,0.00000314,-0.00014561,0.00005425,-0.0000064
 7,0.00003430,-0.00002277,-0.00001573,0.00003489,-0.00000522,0.00005948
 ,-0.00008325,0.00001329,0.04622064,0.04808748,-0.00228754,-0.00423958,
 -0.00039219,0.00072964,0.00292816,-0.00003378,0.00131699,0.00169290,0.
 00122959,0.00183343,0.00180224,0.00275330,0.00004226,-0.00001905,0.000
 11501,-0.00011003,0.00001054,-0.00050427,-0.00462467,-0.00224212,0.001
 25791,-0.00019754,-0.00037316,0.00009894,-0.00003353,0.00017535,-0.000
 22619,-0.00058899,-0.00096662,0.00026706,-0.00350478,0.00150428,0.0030
 7507,0.00050297,0.00105086,-0.00027457,-0.00062208,0.00013344,-0.00016
 075,-0.00005051,-0.00001237,0.00001533,-0.00012117,0.00003841,-0.00000
 532,0.00017608,0.00000511,0.00005069,-0.00012455,-0.00004845,0.0000119
 1,0.01215768,-0.01366888,-0.00509586,-0.00056082,-0.00141837,0.0005909
 4,-0.00002406,0.00151727,-0.00032402,0.00049054,0.00109364,-0.00172941
 ,-0.02287631,0.00575904,-0.00689241,-0.00003190,-0.00055809,0.00013373
 ,-0.00012470,0.00012880,-0.00004855,-0.00010778,0.00012673,-0.00000892
 ,0.00006034,-0.00000966,-0.00000763,-0.06951505,-0.02833385,0.10634082
 ,-0.01195049,-0.00367100,-0.00007549,0.00225256,0.00428890,-0.00023396
 ,0.00912780,-0.00041834,-0.00231782,0.00540231,0.00387112,0.00690039,0
 .00015329,0.00000204,0.00003693,-0.00026031,-0.00007330,-0.00105378,-0
 .01203836,-0.00417901,0.00579399,-0.00016557,-0.00040144,0.00008123,-0
 .00029256,0.00027896,-0.00014391,-0.00066522,-0.00104829,0.00018190,-0
 .00497648,0.00179379,0.00124203,0.00069839,0.00151711,-0.00034488,-0.0
 0082326,0.00005487,-0.00003145,-0.00008343,-0.00002956,0.00000615,-0.0
 0017713,0.00005256,0.00000605,0.00027716,-0.00000951,0.00000633,-0.000
 17947,-0.00006567,0.00002068,0.01955907,-0.02371261,-0.00884650,0.0050
 6591,0.00030629,0.00127873,-0.00206329,0.00182599,-0.00069296,-0.00433
 812,0.00443743,0.00063219,-0.07499313,-0.00434631,0.03046132,-0.000026
 30,-0.00102921,0.00014149,-0.00019312,0.00024875,-0.00009404,-0.000188
 75,0.00019851,0.00000250,0.00014321,-0.00006557,-0.00000086,-0.1691097
 8,-0.05334909,0.10749887,0.49177805,-0.00447633,0.00010479,0.00044739,
 0.00088683,0.00085275,-0.00037894,0.00458373,0.00020016,-0.00194227,0.
 00163166,0.00093776,0.00175996,0.00007667,0.00003008,0.00000353,-0.000
 05217,-0.00006156,-0.00029426,-0.00616580,-0.00297843,0.00587701,-0.00
 001102,-0.00015166,0.00003069,0.00013667,0.00023260,-0.00008203,-0.000
 55732,-0.00105760,0.00029153,-0.00116477,0.00084252,0.00021136,0.00019
 743,0.00023130,-0.00003682,-0.00014466,0.00009706,-0.00003933,-0.00000
 029,0.00000475,0.00000079,-0.00004366,0.00000041,0.00000264,0.00003342
 ,-0.00000067,0.00001189,-0.00002095,-0.00000338,0.00000231,0.00188666,
 -0.00692426,-0.00154604,-0.00338052,-0.00108083,0.00094729,0.00190968,
 0.00059386,-0.00025007,0.00474478,-0.00114930,-0.00104383,-0.01948041,
 0.00689778,0.00714127,-0.00002979,0.00012737,-0.00005494,0.00000673,-0
 .00002377,0.00001764,0.00001285,-0.00002619,0.00000050,-0.00003265,0.0
 0003833,-0.00000625,-0.05084511,-0.03869151,0.04113485,0.08334211,0.10
 081072,-0.00266801,0.00238588,0.00019964,0.00046317,-0.00101865,-0.000
 29416,0.00461923,-0.00047242,-0.00252808,0.00070802,-0.00023146,0.0001
 1459,0.00004917,0.00003486,-0.00007875,0.00003280,-0.00006595,0.000018
 55,-0.00699178,-0.00107576,0.00762566,0.00009541,0.00013831,-0.0000325
 3,-0.00002051,-0.00007933,0.00006907,0.00031918,0.00036741,-0.00009368
 ,0.00092670,-0.00060996,-0.00078552,-0.00016226,-0.00032297,0.00010261
 ,0.00020836,-0.00007030,0.00004213,0.00001707,0.00000454,-0.00000296,0
 .00004546,-0.00001445,-0.00000002,-0.00005620,-0.00000115,-0.00000700,
 0.00004374,0.00001755,-0.00000673,-0.00166809,0.00424442,0.00026553,0.
 00120535,0.00094521,-0.00052451,-0.00008048,-0.00051044,0.00005257,-0.
 00006988,-0.00068206,0.00062576,0.01641974,0.00031123,0.00175638,-0.00
 000456,0.00017090,-0.00005285,0.00004175,-0.00003669,0.00001380,0.0000
 2991,-0.00004213,0.00000387,-0.00001900,-0.00000342,0.00000304,0.10121
 508,0.04166723,-0.11507113,0.00352945,-0.05229592,0.30275741,-0.004402
 91,0.00716336,0.00112983,0.00045743,-0.00359746,-0.00050843,0.00427539
 ,-0.00480117,-0.00383800,0.00024772,-0.00151889,-0.00182229,0.00002909
 ,0.00010356,-0.00029135,0.00014943,-0.00014005,0.00028448,-0.00586526,
 0.02276853,0.02258577,0.00022761,0.00027529,-0.00005887,0.00031361,0.0
 0005996,0.00002695,-0.00005508,-0.00029514,0.00018091,0.00267934,-0.00
 031959,-0.00104302,-0.00041125,-0.00108792,0.00028647,0.00065409,-0.00
 006507,0.00001183,0.00007242,0.00003109,-0.00000167,0.00010536,-0.0000
 5559,-0.00000089,-0.00016968,0.00001646,0.00001094,0.00013693,0.000061
 16,-0.00001918,-0.01237407,0.00921623,0.00411481,-0.00747617,0.0002153
 3,-0.00004557,0.00336400,-0.00102012,0.00014479,0.00675530,-0.00230948
 ,0.00020551,0.02859876,-0.00039270,-0.00721101,-0.00003337,0.00102959,
 -0.00023350,0.00018426,-0.00022983,0.00009750,0.00017676,-0.00021953,0
 .00000168,-0.00013372,0.00008072,-0.00000109,-0.06920204,-0.01396315,-
 0.00941239,-0.20246564,-0.00417191,-0.08825528,0.85206192,0.01696237,-
 0.00791143,-0.00169311,-0.00311070,0.00060107,0.00202842,-0.03185966,-
 0.00672060,0.01827630,-0.00601135,-0.00121886,-0.00414831,-0.00037312,
 -0.00015011,0.00009185,-0.00000515,0.00040195,0.00069333,0.05028378,0.
 02242814,-0.04269615,-0.00019294,-0.00008679,0.00001700,-0.00006316,-0
 .00012612,0.00008765,0.00011108,0.00064681,-0.00026070,0.00013531,-0.0
 0032008,-0.00044505,0.00007250,0.00023067,-0.00010289,-0.00018481,0.00
 008203,0.00003831,-0.00002634,-0.00001483,-0.00000870,-0.00001916,0.00
 002407,0.00000209,0.00001270,-0.00002070,-0.00003498,-0.00004591,-0.00
 002702,0.00001137,-0.00186037,0.00422562,0.00408586,0.00152632,-0.0012
 1773,0.00028290,-0.00159900,0.00003178,0.00010154,-0.00239344,0.000136
 34,-0.00116521,0.00399337,-0.00295891,-0.00041242,0.00005586,-0.000354
 05,0.00014335,-0.00006228,0.00007152,-0.00003517,-0.00005110,0.0000954
 9,-0.00000294,0.00003783,-0.00001207,0.00000036,-0.01004359,0.00094269
 ,-0.00679085,-0.00237031,-0.06940049,0.01070101,0.07010256,0.84636759,
 0.02257884,-0.00641315,0.00000478,-0.00414423,0.00022310,0.00133650,-0
 .02775218,0.00284209,0.01273102,-0.00834229,-0.00273233,-0.00681155,-0
 .00037211,-0.00017277,0.00025207,0.00011271,0.00037393,0.00102923,0.04
 162011,-0.01316877,-0.04624916,-0.00016752,-0.00001724,0.00000430,0.00
 012640,-0.00017288,0.00011323,0.00015936,0.00064519,-0.00023042,0.0018
 2204,-0.00078839,-0.00063974,-0.00010315,-0.00026046,-0.00000845,0.000
 05123,0.00015123,0.00001989,0.00000681,-0.00000088,-0.00001124,0.00003
 160,0.00001143,-0.00000007,-0.00007841,-0.00000620,-0.00003175,0.00001
 759,-0.00000661,0.00000593,-0.00873969,0.01185467,0.00746463,-0.002317
 08,-0.00228435,0.00027507,-0.00003704,-0.00045337,0.00022608,0.0019026
 7,-0.00104873,-0.00145355,0.02853670,0.00018686,-0.01303598,0.00007074
 ,0.00006061,0.00009511,0.00000558,-0.00003078,0.00000728,0.00002476,0.
 00001353,-0.00000832,-0.00002365,0.00002609,0.00000292,-0.03631472,-0.
 01451952,0.02938523,-0.08148996,0.01131426,-0.17198624,-0.19185326,-0.
 20020163,0.81978654,0.02650122,-0.01781346,0.00060965,-0.00338457,0.00
 421971,0.00179315,-0.06182207,-0.01067655,0.04179799,-0.00961669,-0.00
 122443,-0.00616204,-0.00057242,-0.00026359,0.00007033,0.00010626,0.000
 72202,0.00104996,-0.10368698,-0.04645413,0.06411593,-0.00034732,-0.000
 23606,0.00005145,-0.00007461,-0.00016615,0.00012301,0.00005461,0.00078
 294,-0.00036944,-0.00026506,-0.00036387,-0.00040386,0.00023889,0.00056
 382,-0.00022081,-0.00043111,0.00020511,0.00003816,-0.00004960,-0.00002
 560,-0.00001520,-0.00005366,0.00004899,0.00000076,0.00005211,-0.000026
 11,-0.00005374,-0.00008819,-0.00005165,0.00001964,-0.00051300,0.004896
 01,0.00532474,0.00257205,-0.00250520,0.00051114,-0.00238016,0.00026544
 ,0.00001000,-0.00164411,0.00045412,-0.00107587,0.00282140,-0.00271789,
 -0.00199775,0.00009802,-0.00068987,0.00025016,-0.00012308,0.00014010,-
 0.00006216,-0.00010639,0.00017112,-0.00000614,0.00007278,-0.00002429,-
 0.00000091,0.00029393,0.00245470,0.00277955,0.01098478,-0.01720601,-0.
 02211448,-0.09507946,0.01311115,0.02721985,0.23609869,-0.00501859,-0.0
 0625861,0.00369403,0.00313048,0.00141638,-0.00169372,-0.00744665,0.010
 34204,0.00430205,0.00059943,0.00120842,0.00075771,-0.00010109,-0.00005
 377,-0.00020396,0.00004554,0.00001272,-0.00003348,-0.05168349,-0.06815
 966,0.03386861,0.00000884,-0.00004054,0.00001202,0.00005187,0.00006314
 ,-0.00002222,-0.00015269,-0.00032093,0.00006444,-0.00030048,0.00017951
 ,0.00011915,0.00005455,0.00004901,-0.00000137,-0.00002913,0.00002954,-
 0.00001511,0.00000215,0.00000232,0.00000036,-0.00000734,-0.00000220,-0
 .00000056,0.00000968,0.00000446,0.00000429,-0.00000006,0.00000167,-0.0
 0000163,0.00121058,-0.00154891,-0.00081599,-0.00095245,-0.00032851,0.0
 0027562,0.00062565,0.00010353,-0.00017598,0.00136877,0.00092881,0.0003
 8855,-0.00337335,0.00051315,0.00122728,-0.00001367,0.00005816,-0.00002
 456,0.00000857,-0.00000983,0.00000784,0.00000474,-0.00001820,0.0000016
 8,-0.00000707,0.00000639,-0.00000128,0.00697513,0.00087899,-0.00237357
 ,-0.00689783,-0.00173550,-0.01575636,0.02225694,-0.22316396,-0.0944832
 5,0.03232470,0.31802608,-0.02217614,0.01817485,-0.00187137,0.00303070,
 -0.00363701,-0.00118204,0.06446042,0.00937120,-0.02816415,0.00920182,0
 .00073985,0.00585429,0.00079072,0.00025410,-0.00003267,-0.00014777,-0.
 00062272,-0.00100027,0.05508110,0.02696140,-0.07388456,0.00027331,0.00
 017264,-0.00003948,-0.00007980,0.00009327,-0.00010644,0.00010567,-0.00
 033643,0.00022915,-0.00036306,0.00028755,0.00060252,-0.00013931,-0.000
 22794,0.00012331,0.00022536,-0.00022243,-0.00002409,0.00002130,0.00001
 137,0.00001396,0.00002571,-0.00003036,-0.00000080,-0.00000255,0.000014
 64,0.00004627,0.00004303,0.00003145,-0.00001228,0.00371532,-0.00686013
 ,-0.00612641,0.00125088,0.00315368,-0.00094858,0.00045538,-0.00004673,
 0.00012252,-0.00185556,-0.00073899,0.00104615,-0.01010831,0.00226683,0
 .00423018,-0.00007056,0.00025355,-0.00014884,0.00005074,-0.00004591,0.
 00001944,0.00003475,-0.00007451,0.00000477,-0.00001604,-0.00001425,-0.
 00000146,0.01387990,0.00362185,-0.00706734,-0.02068751,-0.03246589,-0.
 02308993,0.03550844,-0.08655437,-0.14484522,-0.15430953,0.09124085,0.2
 8740461,0.00257421,-0.00298222,-0.00025874,-0.00045868,0.00135514,0.00
 033508,-0.00574956,-0.00036638,0.00330045,-0.00059252,0.00043723,0.000
 26382,-0.00006254,-0.00004344,0.00007281,-0.00004289,0.00008548,-0.000
 03727,0.01017005,0.00529662,-0.00589805,-0.00008733,-0.00010701,0.0000
 2207,-0.00007720,0.00000241,-0.00000521,-0.00005786,0.00000728,-0.0000
 4114,-0.00089222,0.00018069,0.00018806,0.00015181,0.00037071,-0.000098
 19,-0.00022151,0.00004198,-0.00000019,-0.00002292,-0.00000984,-0.00000
 094,-0.00003891,0.00002019,0.00000103,0.00005794,-0.00000705,-0.000007
 32,-0.00004618,-0.00002149,0.00000704,0.00365916,-0.00293674,-0.000863
 13,0.00177624,-0.00038109,0.00025699,-0.00087783,0.00035811,-0.0001044
 7,-0.00144650,0.00081542,-0.00018729,-0.01025687,-0.00054635,0.0038320
 9,0.00001378,-0.00031855,0.00007375,-0.00005847,0.00007082,-0.00002933
 ,-0.00005418,0.00006848,-0.00000067,0.00004018,-0.00001983,0.00000033,
 0.01525527,0.00581682,-0.01266191,-0.05622529,-0.01642427,0.02135997,-
 0.41201715,-0.10282408,0.23748224,-0.01459422,-0.00275653,0.02307974,0
 .46577333,-0.00213441,0.00098184,0.00014738,0.00036598,0.00003251,-0.0
 0025483,0.00468464,0.00144978,-0.00259530,0.00084066,0.00021666,0.0006
 8314,0.00005653,0.00001378,0.00000342,-0.00000868,-0.00005502,-0.00011
 082,-0.00732389,-0.00602096,0.00390037,0.00001684,0.00000023,-0.000000
 22,-0.00000826,0.00001445,-0.00001411,-0.00001498,-0.00007491,0.000029
 48,-0.00014588,0.00006432,0.00010421,0.00000865,0.00001975,0.00000092,
 -0.00000398,-0.00000961,-0.00000558,0.00000018,0.00000047,0.00000133,-
 0.00000251,-0.00000023,-0.00000005,0.00000694,0.00000214,0.00000436,0.
 00000003,0.00000076,-0.00000071,0.00089744,-0.00103144,-0.00075987,0.0
 0015419,0.00016130,-0.00002188,0.00004558,0.00004801,-0.00002342,-0.00
 008140,0.00012422,0.00011597,-0.00206254,0.00015612,0.00062633,-0.0000
 0640,-0.00000449,-0.00000760,-0.00000088,0.00000177,-0.00000006,-0.000
 00157,-0.00000195,-0.00000003,0.00000122,-0.00000200,0.00000020,0.0025
 1684,0.00369116,-0.00103016,-0.00783861,0.00852080,0.00160726,-0.10540
 319,-0.11836218,0.07871294,0.02821102,0.01006641,-0.02812458,0.1149205
 2,0.10477332,-0.00547617,0.00247929,0.00015913,0.00099928,-0.00056984,
 -0.00043416,0.00858409,0.00074580,-0.00457833,0.00187604,0.00037621,0.
 00125690,0.00010094,0.00004798,-0.00005801,-0.00001043,-0.00011405,-0.
 00019765,-0.01103401,-0.00873465,0.01026771,0.00006353,0.00004005,-0.0
 0000884,0.00000641,0.00003755,-0.00002085,-0.00002266,-0.00015100,0.00
 006750,-0.00005506,0.00010373,0.00004931,-0.00003111,-0.00008163,0.000
 03698,0.00006867,-0.00004215,-0.00000377,0.00000700,0.00000387,0.00000
 239,0.00000679,-0.00000941,-0.00000038,-0.00000469,0.00000356,0.000008
 40,0.00001267,0.00000880,-0.00000368,0.00035474,-0.00135228,-0.0011275
 6,-0.00032336,0.00053889,-0.00009653,0.00036656,-0.00002623,-0.0000104
 9,0.00031353,-0.00011819,0.00028604,-0.00215968,0.00013085,0.00129427,
 -0.00001877,0.00010918,-0.00004755,0.00002089,-0.00002079,0.00000981,0
 .00001549,-0.00002851,0.00000205,-0.00001022,0.00000273,-0.00000133,0.
 00073461,0.00141919,-0.00199628,-0.01953476,-0.00470431,0.01387097,0.2
 3943752,0.07749577,-0.25560892,0.03799032,-0.00031287,-0.02507178,-0.2
 7680424,-0.08156129,0.26631039,0.00242901,-0.00193048,0.00032020,-0.00
 038033,0.00130160,-0.00003058,-0.00336080,0.00343546,0.00185760,-0.000
 54613,0.00019106,0.00003020,-0.00002101,-0.00003330,0.00009625,-0.0000
 1796,0.00005335,-0.00002510,0.00085979,-0.00258063,-0.00230559,-0.0000
 6420,-0.00007585,0.00001704,-0.00004436,-0.00001291,-0.00000003,-0.000
 01677,0.00003784,-0.00003655,-0.00049945,0.00005034,0.00019756,0.00010
 115,0.00023884,-0.00006315,-0.00015210,0.00003820,-0.00000548,-0.00001
 543,-0.00000633,-0.00000054,-0.00002250,0.00001270,0.00000014,0.000032
 36,-0.00000289,-0.00000374,-0.00002944,-0.00001400,0.00000440,0.002344
 05,-0.00144156,-0.00057381,0.00112411,-0.00031714,0.00017722,-0.000574
 82,0.00021174,-0.00006384,-0.00088243,0.00048561,-0.00008171,-0.004447
 65,0.00063370,0.00045824,0.00001208,-0.00020937,0.00005311,-0.00003814
 ,0.00004585,-0.00001922,-0.00003587,0.00004540,-0.00000007,0.00002539,
 -0.00001275,0.00000017,0.01012923,0.00041947,-0.00000806,-0.00422688,0
 .02475840,-0.02921900,-0.09080357,0.00669165,-0.00003395,0.01493794,0.
 01006280,-0.00127814,0.00440883,-0.02769011,0.02452610,0.06977588,-0.0
 0445524,0.00221856,0.00040374,0.00105235,-0.00053802,-0.00060824,0.007
 90734,0.00023784,-0.00457292,0.00138525,0.00014800,0.00075909,0.000088
 20,0.00005143,-0.00005221,0.00002664,-0.00010829,-0.00012716,-0.013618
 28,-0.00413365,0.01222288,0.00007145,0.00005127,-0.00001123,0.00005227
 ,0.00003450,-0.00001973,-0.00002649,-0.00018734,0.00008656,0.00029226,
 0.00001961,0.00000276,-0.00006631,-0.00018635,0.00005644,0.00011869,-0
 .00002249,-0.00000934,0.00001503,0.00000732,0.00000211,0.00001590,-0.0
 0001081,-0.00000092,-0.00002202,0.00000772,0.00000988,0.00002757,0.000
 01290,-0.00000464,-0.00102658,0.00009617,-0.00049138,-0.00121819,0.000
 32549,-0.00011471,0.00074180,-0.00011394,0.00000885,0.00122214,-0.0003
 6023,0.00024241,0.00277451,0.00096163,-0.00131026,-0.00001559,0.000200
 36,-0.00005844,0.00003483,-0.00004361,0.00001961,0.00003219,-0.0000471
 3,0.00000024,-0.00002502,0.00001138,-0.00000035,-0.00626607,-0.0038794
 1,0.00298316,0.00728722,0.00276211,0.01069364,0.00621000,-0.44421984,0
 .23034538,0.01187388,-0.04225008,0.00335316,-0.00010303,-0.00477701,0.
 01428373,-0.01438670,0.49373187,-0.00322880,0.00037543,-0.00052023,0.0
 0062531,-0.00025288,0.00004437,0.00321528,-0.00258228,-0.00031956,0.00
 126131,0.00048777,0.00113575,0.00004919,0.00002523,-0.00005935,-0.0000
 3323,-0.00003675,-0.00015410,-0.00219970,0.00298746,0.00029915,0.00001
 989,0.00000158,-0.00000010,-0.00004844,0.00001266,-0.00001588,0.000012
 47,-0.00002212,0.00000827,-0.00037227,0.00009891,0.00014069,0.00002307
 ,0.00008112,-0.00000853,-0.00003043,-0.00003389,0.00000033,-0.00000518
 ,-0.00000201,0.00000177,-0.00000716,0.,-0.00000012,0.00001877,-0.00000
 035,0.00000341,-0.00000903,-0.00000137,-0.00000065,0.00188340,-0.00214
 655,-0.00140582,0.00102170,0.00048805,-0.00012585,-0.00029420,0.000094
 59,-0.00002642,-0.00099569,0.00031135,0.00032411,-0.00498994,-0.000300
 03,0.00223675,-0.00000964,-0.00006991,-0.00000300,-0.00001007,0.000018
 46,-0.00000752,-0.00001419,0.00001071,0.00000177,0.00001249,-0.0000103
 8,-0.00000058,0.01003997,0.00359135,-0.00548694,-0.02227235,0.02594598
 ,-0.01296749,0.00056838,0.23049535,-0.23181921,0.00303613,-0.02004857,
 0.01392055,0.00672263,0.02857321,-0.00435573,0.00601033,-0.26809211,0.
 23916016\\0.00019423,0.00010345,0.00014755,-0.00007602,-0.00013043,-0.
 00005360,0.00020529,-0.00031248,0.00007208,0.00016836,-0.00029889,-0.0
 0000990,0.00003649,-0.00010958,0.00002768,0.00009752,0.00017957,0.0001
 5154,-0.00002829,-0.00148888,-0.00112482,-0.00012814,0.00003088,-0.000
 00445,0.00012293,0.00019341,-0.00005887,0.00009400,0.00024732,-0.00013
 315,0.00037428,-0.00017907,0.00026851,-0.00000117,-0.00021229,0.000042
 89,-0.00013736,-0.00004254,0.00002114,0.00001560,-0.00001657,0.0000054
 3,-0.00009253,-0.00011347,0.00011508,0.00001664,0.00006702,-0.00008300
 ,0.00003374,0.00001431,-0.00000245,0.00011295,0.00002321,-0.00049277,-
 0.00003604,0.00007191,-0.00030054,-0.00009812,-0.00021235,0.00002137,0
 .00060263,-0.00008753,0.00008312,-0.00028901,0.00105413,-0.00017266,-0
 .00002051,0.00000330,0.00005958,0.00009177,-0.00000471,0.00003928,0.00
 002478,-0.00002678,-0.00006743,-0.00010259,0.00001721,0.00007579,0.000
 88756,-0.00058554,0.00045191,-0.00082660,0.00017269,-0.00004458,-0.000
 30738,-0.00040137,0.00107685,-0.00033839,0.00197222,-0.00025188,-0.000
 34574,0.00001726,0.00016356,-0.00025088,0.00005461,-0.00002329\\\@


 THE SCIENTIFIC THEORIST IS NOT TO BE ENVIED. FOR NATURE, OR MORE
 PRECISELY EXPERIMENT, IS AN INEXORABLE AND NOT VERY FRIENDLY JUDGE OF HIS
 WORK.  IT NEVER SAYS "YES" TO A THEORY. IN THE MOST FAVORABLE CASES
 IT SAYS "MAYBE", AND IN THE GREAT MAJORITY OF CASES SIMPLY "NO"...
 PROBABLY EVERY THEORY WILL SOME DAY EXPERIENCE ITS "NO" - MOST
 THEORIES, SOON AFTER CONCEPTION.  -- A.EINSTEIN, NOV 11, 1922.
 Job cpu time:       0 days  1 hours 47 minutes  8.1 seconds.
 File lengths (MBytes):  RWF=    539 Int=      0 D2E=      0 Chk=     16 Scr=      1
 Normal termination of Gaussian 09 at Wed Oct 12 08:43:53 2022.
