 Entering Gaussian System, Link 0=g09
 Input=MeNO2_isatin_TS4_product_opt.com
 Output=MeNO2_isatin_TS4_product_opt.log
 Initial command:
 /apps/applications/gaussian/G09.D01/2/default/g09/l1.exe "/nobackup/chmbnn/Gau-176722.inp" -scrdir="/nobackup/chmbnn/"
 Entering Link 1 = /apps/applications/gaussian/G09.D01/2/default/g09/l1.exe PID=    176723.
  
 Copyright (c) 1988,1990,1992,1993,1995,1998,2003,2009,2013,
            Gaussian, Inc.  All Rights Reserved.
  
 This is part of the Gaussian(R) 09 program.  It is based on
 the Gaussian(R) 03 system (copyright 2003, Gaussian, Inc.),
 the Gaussian(R) 98 system (copyright 1998, Gaussian, Inc.),
 the Gaussian(R) 94 system (copyright 1995, Gaussian, Inc.),
 the Gaussian 92(TM) system (copyright 1992, Gaussian, Inc.),
 the Gaussian 90(TM) system (copyright 1990, Gaussian, Inc.),
 the Gaussian 88(TM) system (copyright 1988, Gaussian, Inc.),
 the Gaussian 86(TM) system (copyright 1986, Carnegie Mellon
 University), and the Gaussian 82(TM) system (copyright 1983,
 Carnegie Mellon University). Gaussian is a federally registered
 trademark of Gaussian, Inc.
  
 This software contains proprietary and confidential information,
 including trade secrets, belonging to Gaussian, Inc.
  
 This software is provided under written license and may be
 used, copied, transmitted, or stored only in accord with that
 written license.
  
 The following legend is applicable only to US Government
 contracts under FAR:
  
                    RESTRICTED RIGHTS LEGEND
  
 Use, reproduction and disclosure by the US Government is
 subject to restrictions as set forth in subparagraphs (a)
 and (c) of the Commercial Computer Software - Restricted
 Rights clause in FAR 52.227-19.
  
 Gaussian, Inc.
 340 Quinnipiac St., Bldg. 40, Wallingford CT 06492
  
  
 ---------------------------------------------------------------
 Warning -- This program may not be used in any manner that
 competes with the business of Gaussian, Inc. or will provide
 assistance to any competitor of Gaussian, Inc.  The licensee
 of this program is prohibited from giving any competitor of
 Gaussian, Inc. access to this program.  By using this program,
 the user acknowledges that Gaussian, Inc. is engaged in the
 business of creating and licensing software in the field of
 computational chemistry and represents and warrants to the
 licensee that it is not a competitor of Gaussian, Inc. and that
 it will not use this program in any manner prohibited above.
 ---------------------------------------------------------------
  

 Cite this work as:
 Gaussian 09, Revision D.01,
 M. J. Frisch, G. W. Trucks, H. B. Schlegel, G. E. Scuseria, 
 M. A. Robb, J. R. Cheeseman, G. Scalmani, V. Barone, B. Mennucci, 
 G. A. Petersson, H. Nakatsuji, M. Caricato, X. Li, H. P. Hratchian, 
 A. F. Izmaylov, J. Bloino, G. Zheng, J. L. Sonnenberg, M. Hada, 
 M. Ehara, K. Toyota, R. Fukuda, J. Hasegawa, M. Ishida, T. Nakajima, 
 Y. Honda, O. Kitao, H. Nakai, T. Vreven, J. A. Montgomery, Jr., 
 J. E. Peralta, F. Ogliaro, M. Bearpark, J. J. Heyd, E. Brothers, 
 K. N. Kudin, V. N. Staroverov, T. Keith, R. Kobayashi, J. Normand, 
 K. Raghavachari, A. Rendell, J. C. Burant, S. S. Iyengar, J. Tomasi, 
 M. Cossi, N. Rega, J. M. Millam, M. Klene, J. E. Knox, J. B. Cross, 
 V. Bakken, C. Adamo, J. Jaramillo, R. Gomperts, R. E. Stratmann, 
 O. Yazyev, A. J. Austin, R. Cammi, C. Pomelli, J. W. Ochterski, 
 R. L. Martin, K. Morokuma, V. G. Zakrzewski, G. A. Voth, 
 P. Salvador, J. J. Dannenberg, S. Dapprich, A. D. Daniels, 
 O. Farkas, J. B. Foresman, J. V. Ortiz, J. Cioslowski, 
 and D. J. Fox, Gaussian, Inc., Wallingford CT, 2013.
 
 ******************************************
 Gaussian 09:  ES64L-G09RevD.01 24-Apr-2013
                11-Nov-2020 
 ******************************************
 %nprocshared=4
 Will use up to    4 processors via shared memory.
 %chk=MeNO2_isatin_TS4_product_opt.chk
 ---------------------------------------------------------
 # opt freq scrf=(cpcm,solvent=nitromethane) def2svp m062x
 ---------------------------------------------------------
 1/14=-1,18=20,19=15,26=3,38=1/1,3;
 2/9=110,12=2,17=6,18=5,40=1/2;
 3/5=43,7=101,11=2,16=1,25=1,30=1,70=2101,71=1,72=15,74=-55/1,2,3;
 4//1;
 5/5=2,38=5,53=15/2;
 6/7=2,8=2,9=2,10=2,28=1/1;
 7//1,2,3,16;
 1/14=-1,18=20,19=15,26=3/3(2);
 2/9=110/2;
 99//99;
 2/9=110/2;
 3/5=43,7=101,11=2,16=1,25=1,30=1,70=2105,71=1,72=15,74=-55/1,2,3;
 4/5=5,16=3,69=1/1;
 5/5=2,38=5,53=15/2;
 7//1,2,3,16;
 1/14=-1,18=20,19=15,26=3/3(-5);
 2/9=110/2;
 6/7=2,8=2,9=2,10=2,19=2,28=1/1;
 99/9=1/99;
 -----------------------------------
 MeNO2 + isatin TS4 product opt freq
 -----------------------------------
 Symbolic Z-matrix:
 Charge = -1 Multiplicity = 1
 N                     0.77586   0.38349   1.8079 
 O                     0.9777    1.56694   1.83598 
 O                     1.6354   -0.46838   1.92607 
 C                    -0.61469  -0.10496   1.58893 
 H                    -1.28477   0.59237   2.10359 
 H                    -0.65154  -1.10671   2.02791 
 H                     3.31644   0.18836   1.48835 
 C                    -5.03571  -1.28524  -0.25775 
 C                    -4.57608   0.01407  -0.51175 
 C                    -3.21086   0.24239  -0.39182 
 C                    -2.32773  -0.77906  -0.02062 
 C                    -2.78815  -2.05966   0.22616 
 C                    -4.16181  -2.31253   0.09888 
 H                    -6.10285  -1.4945   -0.34733 
 H                    -5.26341   0.80971  -0.79979 
 H                    -2.09493  -2.8552    0.50713 
 H                    -4.54902  -3.31566   0.27956 
 C                    -0.93364  -0.20296   0.07391 
 C                    -1.14913   1.22656  -0.50797 
 N                    -2.50409   1.42635  -0.63108 
 O                    -0.28577   2.01398  -0.80553 
 O                     0.00649  -0.93983  -0.61287 
 C                    -3.09731   2.64483  -1.12877 
 H                    -3.60656   2.46687  -2.0875 
 H                    -3.82225   3.04424  -0.40574 
 H                    -2.29149   3.37227  -1.27647 
 H                     0.87423  -0.44876  -0.68162 
 O                     2.3037    0.28953  -0.86132 
 S                     3.60369  -0.35857  -0.53952 
 O                     3.46938  -1.79256  -0.27781 
 O                     4.05648   0.32687   0.86414 
 O                     4.67961   0.01877  -1.44967 
 
 Add virtual bond connecting atoms O28        and H27        Dist= 3.06D+00.

 GradGradGradGradGradGradGradGradGradGradGradGradGradGradGradGradGradGrad
 Berny optimization.
 Initialization pass.
                           ----------------------------
                           !    Initial Parameters    !
                           ! (Angstroms and Degrees)  !
 --------------------------                            --------------------------
 ! Name  Definition              Value          Derivative Info.                !
 --------------------------------------------------------------------------------
 ! R1    R(1,2)                  1.2009         estimate D2E/DX2                !
 ! R2    R(1,3)                  1.2159         estimate D2E/DX2                !
 ! R3    R(1,4)                  1.49           estimate D2E/DX2                !
 ! R4    R(4,5)                  1.0955         estimate D2E/DX2                !
 ! R5    R(4,6)                  1.0943         estimate D2E/DX2                !
 ! R6    R(4,18)                 1.5513         estimate D2E/DX2                !
 ! R7    R(7,31)                 0.978          estimate D2E/DX2                !
 ! R8    R(8,9)                  1.4014         estimate D2E/DX2                !
 ! R9    R(8,13)                 1.3951         estimate D2E/DX2                !
 ! R10   R(8,14)                 1.0912         estimate D2E/DX2                !
 ! R11   R(9,10)                 1.3894         estimate D2E/DX2                !
 ! R12   R(9,15)                 1.0902         estimate D2E/DX2                !
 ! R13   R(10,11)                1.4004         estimate D2E/DX2                !
 ! R14   R(10,20)                1.3995         estimate D2E/DX2                !
 ! R15   R(11,12)                1.383          estimate D2E/DX2                !
 ! R16   R(11,18)                1.5114         estimate D2E/DX2                !
 ! R17   R(12,13)                1.4025         estimate D2E/DX2                !
 ! R18   R(12,16)                1.092          estimate D2E/DX2                !
 ! R19   R(13,17)                1.0903         estimate D2E/DX2                !
 ! R20   R(18,19)                1.5584         estimate D2E/DX2                !
 ! R21   R(18,22)                1.3779         estimate D2E/DX2                !
 ! R22   R(19,20)                1.3751         estimate D2E/DX2                !
 ! R23   R(19,21)                1.2058         estimate D2E/DX2                !
 ! R24   R(20,23)                1.4437         estimate D2E/DX2                !
 ! R25   R(22,27)                0.9994         estimate D2E/DX2                !
 ! R26   R(23,24)                1.1001         estimate D2E/DX2                !
 ! R27   R(23,25)                1.099          estimate D2E/DX2                !
 ! R28   R(23,26)                1.0956         estimate D2E/DX2                !
 ! R29   R(27,28)                1.6189         estimate D2E/DX2                !
 ! R30   R(28,29)                1.4878         estimate D2E/DX2                !
 ! R31   R(29,30)                1.4639         estimate D2E/DX2                !
 ! R32   R(29,31)                1.6264         estimate D2E/DX2                !
 ! R33   R(29,32)                1.4589         estimate D2E/DX2                !
 ! A1    A(2,1,3)              124.7048         estimate D2E/DX2                !
 ! A2    A(2,1,4)              118.9049         estimate D2E/DX2                !
 ! A3    A(3,1,4)              116.3803         estimate D2E/DX2                !
 ! A4    A(1,4,5)              107.0446         estimate D2E/DX2                !
 ! A5    A(1,4,6)              105.8165         estimate D2E/DX2                !
 ! A6    A(1,4,18)             110.8612         estimate D2E/DX2                !
 ! A7    A(5,4,6)              111.9394         estimate D2E/DX2                !
 ! A8    A(5,4,18)             111.9162         estimate D2E/DX2                !
 ! A9    A(6,4,18)             109.0871         estimate D2E/DX2                !
 ! A10   A(9,8,13)             121.5742         estimate D2E/DX2                !
 ! A11   A(9,8,14)             118.9266         estimate D2E/DX2                !
 ! A12   A(13,8,14)            119.4985         estimate D2E/DX2                !
 ! A13   A(8,9,10)             117.3219         estimate D2E/DX2                !
 ! A14   A(8,9,15)             121.1827         estimate D2E/DX2                !
 ! A15   A(10,9,15)            121.4934         estimate D2E/DX2                !
 ! A16   A(9,10,11)            121.5128         estimate D2E/DX2                !
 ! A17   A(9,10,20)            128.3539         estimate D2E/DX2                !
 ! A18   A(11,10,20)           110.1155         estimate D2E/DX2                !
 ! A19   A(10,11,12)           120.8465         estimate D2E/DX2                !
 ! A20   A(10,11,18)           108.6771         estimate D2E/DX2                !
 ! A21   A(12,11,18)           130.4542         estimate D2E/DX2                !
 ! A22   A(11,12,13)           118.4761         estimate D2E/DX2                !
 ! A23   A(11,12,16)           120.6074         estimate D2E/DX2                !
 ! A24   A(13,12,16)           120.9153         estimate D2E/DX2                !
 ! A25   A(8,13,12)            120.2625         estimate D2E/DX2                !
 ! A26   A(8,13,17)            119.8266         estimate D2E/DX2                !
 ! A27   A(12,13,17)           119.9109         estimate D2E/DX2                !
 ! A28   A(4,18,11)            105.95           estimate D2E/DX2                !
 ! A29   A(4,18,19)            109.5804         estimate D2E/DX2                !
 ! A30   A(4,18,22)            112.3504         estimate D2E/DX2                !
 ! A31   A(11,18,19)           101.4644         estimate D2E/DX2                !
 ! A32   A(11,18,22)           113.2245         estimate D2E/DX2                !
 ! A33   A(19,18,22)           113.5042         estimate D2E/DX2                !
 ! A34   A(18,19,20)           107.6348         estimate D2E/DX2                !
 ! A35   A(18,19,21)           126.3105         estimate D2E/DX2                !
 ! A36   A(20,19,21)           126.0531         estimate D2E/DX2                !
 ! A37   A(10,20,19)           111.0634         estimate D2E/DX2                !
 ! A38   A(10,20,23)           124.4332         estimate D2E/DX2                !
 ! A39   A(19,20,23)           123.9418         estimate D2E/DX2                !
 ! A40   A(18,22,27)           111.3419         estimate D2E/DX2                !
 ! A41   A(20,23,24)           110.7396         estimate D2E/DX2                !
 ! A42   A(20,23,25)           110.5466         estimate D2E/DX2                !
 ! A43   A(20,23,26)           107.7368         estimate D2E/DX2                !
 ! A44   A(24,23,25)           109.0739         estimate D2E/DX2                !
 ! A45   A(24,23,26)           109.2933         estimate D2E/DX2                !
 ! A46   A(25,23,26)           109.4235         estimate D2E/DX2                !
 ! A47   A(27,28,29)           123.2893         estimate D2E/DX2                !
 ! A48   A(28,29,30)           112.6575         estimate D2E/DX2                !
 ! A49   A(28,29,31)           104.2614         estimate D2E/DX2                !
 ! A50   A(28,29,32)           113.3776         estimate D2E/DX2                !
 ! A51   A(30,29,31)           106.5048         estimate D2E/DX2                !
 ! A52   A(30,29,32)           115.6307         estimate D2E/DX2                !
 ! A53   A(31,29,32)           102.9505         estimate D2E/DX2                !
 ! A54   A(7,31,29)            106.2902         estimate D2E/DX2                !
 ! A55   L(22,27,28,1,-1)      182.9667         estimate D2E/DX2                !
 ! A56   L(22,27,28,1,-2)      178.6366         estimate D2E/DX2                !
 ! D1    D(2,1,4,5)            -35.9965         estimate D2E/DX2                !
 ! D2    D(2,1,4,6)           -155.5355         estimate D2E/DX2                !
 ! D3    D(2,1,4,18)            86.3216         estimate D2E/DX2                !
 ! D4    D(3,1,4,5)            145.0965         estimate D2E/DX2                !
 ! D5    D(3,1,4,6)             25.5574         estimate D2E/DX2                !
 ! D6    D(3,1,4,18)           -92.5854         estimate D2E/DX2                !
 ! D7    D(1,4,18,11)          176.8302         estimate D2E/DX2                !
 ! D8    D(1,4,18,19)          -74.4425         estimate D2E/DX2                !
 ! D9    D(1,4,18,22)           52.709          estimate D2E/DX2                !
 ! D10   D(5,4,18,11)          -63.7348         estimate D2E/DX2                !
 ! D11   D(5,4,18,19)           44.9925         estimate D2E/DX2                !
 ! D12   D(5,4,18,22)          172.144          estimate D2E/DX2                !
 ! D13   D(6,4,18,11)           60.6936         estimate D2E/DX2                !
 ! D14   D(6,4,18,19)          169.4209         estimate D2E/DX2                !
 ! D15   D(6,4,18,22)          -63.4276         estimate D2E/DX2                !
 ! D16   D(13,8,9,10)           -0.1264         estimate D2E/DX2                !
 ! D17   D(13,8,9,15)          179.3764         estimate D2E/DX2                !
 ! D18   D(14,8,9,10)         -179.8114         estimate D2E/DX2                !
 ! D19   D(14,8,9,15)           -0.3086         estimate D2E/DX2                !
 ! D20   D(9,8,13,12)            0.6854         estimate D2E/DX2                !
 ! D21   D(9,8,13,17)         -179.3367         estimate D2E/DX2                !
 ! D22   D(14,8,13,12)        -179.6314         estimate D2E/DX2                !
 ! D23   D(14,8,13,17)           0.3465         estimate D2E/DX2                !
 ! D24   D(8,9,10,11)           -0.5596         estimate D2E/DX2                !
 ! D25   D(8,9,10,20)          177.7482         estimate D2E/DX2                !
 ! D26   D(15,9,10,11)         179.9393         estimate D2E/DX2                !
 ! D27   D(15,9,10,20)          -1.7529         estimate D2E/DX2                !
 ! D28   D(9,10,11,12)           0.699          estimate D2E/DX2                !
 ! D29   D(9,10,11,18)        -177.7584         estimate D2E/DX2                !
 ! D30   D(20,10,11,12)       -177.8879         estimate D2E/DX2                !
 ! D31   D(20,10,11,18)          3.6547         estimate D2E/DX2                !
 ! D32   D(9,10,20,19)        -175.0315         estimate D2E/DX2                !
 ! D33   D(9,10,20,23)          -3.3543         estimate D2E/DX2                !
 ! D34   D(11,10,20,19)          3.4323         estimate D2E/DX2                !
 ! D35   D(11,10,20,23)        175.1094         estimate D2E/DX2                !
 ! D36   D(10,11,12,13)         -0.128          estimate D2E/DX2                !
 ! D37   D(10,11,12,16)        179.4776         estimate D2E/DX2                !
 ! D38   D(18,11,12,13)        177.9515         estimate D2E/DX2                !
 ! D39   D(18,11,12,16)         -2.4429         estimate D2E/DX2                !
 ! D40   D(10,11,18,4)         106.2215         estimate D2E/DX2                !
 ! D41   D(10,11,18,19)         -8.21           estimate D2E/DX2                !
 ! D42   D(10,11,18,22)       -130.2048         estimate D2E/DX2                !
 ! D43   D(12,11,18,4)         -72.038          estimate D2E/DX2                !
 ! D44   D(12,11,18,19)        173.5305         estimate D2E/DX2                !
 ! D45   D(12,11,18,22)         51.5356         estimate D2E/DX2                !
 ! D46   D(11,12,13,8)          -0.547          estimate D2E/DX2                !
 ! D47   D(11,12,13,17)        179.4751         estimate D2E/DX2                !
 ! D48   D(16,12,13,8)         179.8487         estimate D2E/DX2                !
 ! D49   D(16,12,13,17)         -0.1293         estimate D2E/DX2                !
 ! D50   D(4,18,19,20)        -101.5196         estimate D2E/DX2                !
 ! D51   D(4,18,19,21)          78.9194         estimate D2E/DX2                !
 ! D52   D(11,18,19,20)         10.18           estimate D2E/DX2                !
 ! D53   D(11,18,19,21)       -169.381          estimate D2E/DX2                !
 ! D54   D(22,18,19,20)        131.9807         estimate D2E/DX2                !
 ! D55   D(22,18,19,21)        -47.5803         estimate D2E/DX2                !
 ! D56   D(4,18,22,27)         -70.9789         estimate D2E/DX2                !
 ! D57   D(11,18,22,27)        169.0377         estimate D2E/DX2                !
 ! D58   D(19,18,22,27)         54.047          estimate D2E/DX2                !
 ! D59   D(18,19,20,10)         -8.7708         estimate D2E/DX2                !
 ! D60   D(18,19,20,23)        179.5033         estimate D2E/DX2                !
 ! D61   D(21,19,20,10)        170.7916         estimate D2E/DX2                !
 ! D62   D(21,19,20,23)         -0.9343         estimate D2E/DX2                !
 ! D63   D(10,20,23,24)        -56.8417         estimate D2E/DX2                !
 ! D64   D(10,20,23,25)         64.1621         estimate D2E/DX2                !
 ! D65   D(10,20,23,26)       -176.3166         estimate D2E/DX2                !
 ! D66   D(19,20,23,24)        113.7875         estimate D2E/DX2                !
 ! D67   D(19,20,23,25)       -125.2086         estimate D2E/DX2                !
 ! D68   D(19,20,23,26)         -5.6874         estimate D2E/DX2                !
 ! D69   D(18,22,28,29)        131.0734         estimate D2E/DX2                !
 ! D70   D(27,28,29,30)         10.2666         estimate D2E/DX2                !
 ! D71   D(27,28,29,31)       -104.8049         estimate D2E/DX2                !
 ! D72   D(27,28,29,32)        143.985          estimate D2E/DX2                !
 ! D73   D(28,29,31,7)          55.2299         estimate D2E/DX2                !
 ! D74   D(30,29,31,7)         -64.1019         estimate D2E/DX2                !
 ! D75   D(32,29,31,7)         173.8201         estimate D2E/DX2                !
 --------------------------------------------------------------------------------
 Trust Radius=3.00D-01 FncErr=1.00D-07 GrdErr=1.00D-06
 Number of steps in this run=    174 maximum allowed number of steps=    192.
 GradGradGradGradGradGradGradGradGradGradGradGradGradGradGradGradGradGrad

                          Input orientation:                          
 ---------------------------------------------------------------------
 Center     Atomic      Atomic             Coordinates (Angstroms)
 Number     Number       Type             X           Y           Z
 ---------------------------------------------------------------------
      1          7           0        0.775860    0.383492    1.807904
      2          8           0        0.977704    1.566943    1.835982
      3          8           0        1.635397   -0.468379    1.926067
      4          6           0       -0.614687   -0.104959    1.588927
      5          1           0       -1.284769    0.592374    2.103595
      6          1           0       -0.651541   -1.106706    2.027910
      7          1           0        3.316439    0.188355    1.488352
      8          6           0       -5.035712   -1.285238   -0.257748
      9          6           0       -4.576080    0.014071   -0.511748
     10          6           0       -3.210862    0.242388   -0.391823
     11          6           0       -2.327734   -0.779062   -0.020619
     12          6           0       -2.788148   -2.059663    0.226164
     13          6           0       -4.161811   -2.312533    0.098877
     14          1           0       -6.102854   -1.494503   -0.347332
     15          1           0       -5.263408    0.809712   -0.799793
     16          1           0       -2.094933   -2.855198    0.507125
     17          1           0       -4.549020   -3.315659    0.279557
     18          6           0       -0.933641   -0.202955    0.073906
     19          6           0       -1.149130    1.226564   -0.507966
     20          7           0       -2.504092    1.426349   -0.631079
     21          8           0       -0.285773    2.013978   -0.805525
     22          8           0        0.006490   -0.939825   -0.612867
     23          6           0       -3.097306    2.644830   -1.128773
     24          1           0       -3.606558    2.466873   -2.087495
     25          1           0       -3.822252    3.044242   -0.405737
     26          1           0       -2.291491    3.372271   -1.276473
     27          1           0        0.874234   -0.448761   -0.681617
     28          8           0        2.303697    0.289530   -0.861324
     29         16           0        3.603690   -0.358566   -0.539523
     30          8           0        3.469384   -1.792562   -0.277813
     31          8           0        4.056476    0.326868    0.864136
     32          8           0        4.679606    0.018770   -1.449673
 ---------------------------------------------------------------------
                    Distance matrix (angstroms):
                    1          2          3          4          5
     1  N    0.000000
     2  O    1.200869   0.000000
     3  O    1.215916   2.140844   0.000000
     4  C    1.490019   2.322068   2.304043   0.000000
     5  H    2.092189   2.477940   3.111926   1.095521   0.000000
     6  H    2.075227   3.136826   2.376535   1.094331   1.814822
     7  H    2.568021   2.736975   1.857093   3.943336   4.659707
     8  C    6.389519   6.977092   7.066824   4.934443   4.813620
     9  C    5.844700   6.226377   6.690153   4.485492   4.243487
    10  C    4.555509   4.925611   5.418859   3.283922   3.171661
    11  C    3.785145   4.458321   4.426344   2.445319   2.735123
    12  C    4.601419   5.470414   4.998960   3.225201   3.580251
    13  C    5.879619   6.669519   6.351940   4.435732   4.553543
    14  H    7.449068   8.017083   8.130301   5.983302   5.794484
    15  H    6.592003   6.817051   7.527107   5.305960   4.930159
    16  H    4.519136   5.546376   4.650340   3.305335   3.884692
    17  H    6.661374   7.537038   7.004642   5.244237   5.408805
    18  C    2.504608   3.144947   3.178192   1.551330   2.208048
    19  C    3.127237   3.183296   4.068285   2.540776   2.690882
    20  N    4.218326   4.269550   5.221528   3.292899   3.108167
    21  O    3.258153   2.962056   4.161080   3.214262   3.388500
    22  O    2.864128   3.636482   3.053160   2.435315   3.375522
    23  C    5.360889   5.153379   6.436039   4.594631   4.236280
    24  H    6.222556   6.100738   7.225128   5.392744   5.144870
    25  H    5.755209   5.499754   6.896503   4.917787   4.329806
    26  H    5.277767   4.861504   6.358247   4.807631   4.490677
    27  H    2.626792   3.226774   2.716573   2.736870   3.674597
    28  O    3.076994   3.265808   2.964895   3.830968   4.664713
    29  S    3.749358   4.030684   3.156797   4.731735   5.638031
    30  O    4.042338   4.686456   3.158173   4.797120   5.827606
    31  O    3.414139   3.458483   2.760750   4.746742   5.489595
    32  O    5.097457   5.186178   4.571667   6.105566   6.966240
                    6          7          8          9         10
     6  H    0.000000
     7  H    4.208702   0.000000
     8  C    4.947430   8.659028   0.000000
     9  C    4.807079   8.143871   1.401421   0.000000
    10  C    3.771642   6.792911   2.383631   1.389363   0.000000
    11  C    2.667104   5.921957   2.765066   2.434200   1.400381
    12  C    2.952881   6.626665   2.425994   2.835769   2.420751
    13  C    4.182963   8.006829   1.395070   2.440813   2.769966
    14  H    5.958941   9.742937   1.091150   2.152642   3.373779
    15  H    5.739153   8.901431   2.175885   1.090153   2.168235
    16  H    2.730090   6.285616   3.420232   3.927709   3.412982
    17  H    4.809008   8.695099   2.155963   3.422572   3.860196
    18  C    2.171285   4.496328   4.255387   3.695599   2.366637
    19  C    3.481725   5.000447   4.634358   3.635126   2.287538
    20  N    4.113215   6.316898   3.728429   2.510359   1.399475
    21  O    4.230935   4.644427   5.809200   4.742643   3.444681
    22  O    2.726638   4.079666   5.066480   4.681890   3.434799
    23  C    5.479091   7.349812   4.467834   3.080322   2.515496
    24  H    6.199932   8.118264   4.412345   3.072326   2.824927
    25  H    5.762501   7.918622   4.498753   3.124329   2.867817
    26  H    5.802553   7.016442   5.500994   4.132996   3.379943
    27  H    3.178430   3.328520   5.983880   5.472567   4.153273
    28  O    4.362405   2.560637   7.530679   6.894158   5.534710
    29  S    5.025775   2.119885   8.693525   8.188301   6.842593
    30  O    4.771664   2.658338   8.520237   8.249130   6.984247
    31  O    5.057166   0.978001   9.301903   8.747109   7.375552
    32  O    6.463854   3.243297   9.874641   9.303088   7.964203
                   11         12         13         14         15
    11  C    0.000000
    12  C    1.383048   0.000000
    13  C    2.393669   1.402532   0.000000
    14  H    3.856181   3.411097   2.153119   0.000000
    15  H    3.427754   3.925916   3.430676   2.493752   0.000000
    16  H    2.154774   1.091953   2.175577   4.317988   5.017852
    17  H    3.385047   2.163573   1.090338   2.474672   4.323660
    18  C    1.511400   2.628639   3.856426   5.344745   4.531636
    19  C    2.376794   3.744945   4.687186   5.654148   4.145626
    20  N    2.295126   3.601088   4.154528   4.643595   2.832407
    21  O    3.547782   4.890891   5.878802   6.808657   5.121244
    22  O    2.413546   3.125382   4.445856   6.140217   5.555866
    23  C    3.680120   4.905475   5.216871   5.174751   2.857951
    24  H    4.055054   5.149014   5.285002   4.995214   2.673857
    25  H    4.123051   5.245809   5.391194   5.079839   2.687998
    26  H    4.337286   5.657782   6.140577   6.251022   3.953002
    27  H    3.286125   4.102696   5.426285   7.062937   6.266448
    28  O    4.826886   5.712112   7.035305   8.609127   7.585213
    29  S    5.968909   6.658498   8.032966   9.774676   8.947516
    30  O    5.890663   6.283474   7.658159   9.577130   9.127209
    31  O    6.539420   7.276772   8.665581  10.392162   9.479559
    32  O    7.195939   7.930679   9.273814  10.943793   9.995572
                   16         17         18         19         20
    16  H    0.000000
    17  H    2.507260   0.000000
    18  C    2.927571   4.775163   0.000000
    19  C    4.311117   5.728109   1.558376   0.000000
    20  N    4.449108   5.243818   2.370222   1.375134   0.000000
    21  O    5.357703   6.910695   2.471421   1.205797   2.301451
    22  O    3.055980   5.214756   1.377854   2.457581   3.449947
    23  C    5.825051   6.294307   3.773296   2.488427   1.443710
    24  H    6.110769   6.318928   4.352484   3.173678   2.102206
    25  H    6.214527   6.437869   4.372461   3.234190   2.099024
    26  H    6.480835   7.228145   4.055801   2.549441   2.061151
    27  H    4.002499   6.209239   1.974753   2.632655   3.864153
    28  O    5.577626   7.826795   3.405518   3.595123   4.945726
    29  S    6.308958   8.711026   4.581253   5.010283   6.363906
    30  O    5.718999   8.180788   4.694378   5.522569   6.794748
    31  O    6.934900   9.362921   5.080004   5.458063   6.818033
    32  O    7.614665   9.963744   5.820567   6.026586   7.365928
                   21         22         23         24         25
    21  O    0.000000
    22  O    2.974473   0.000000
    23  C    2.899514   4.769639   0.000000
    24  H    3.588339   5.180177   1.100070   0.000000
    25  H    3.705126   5.529463   1.099026   1.791142   0.000000
    26  H    2.467723   4.931051   1.095593   1.790783   1.791372
    27  H    2.725078   0.999425   5.054046   5.527650   5.859536
    28  O    3.111622   2.617290   5.898288   6.416809   6.732254
    29  S    4.563731   3.644597   7.366882   7.897278   8.169554
    30  O    5.373028   3.582046   7.970947   8.454980   8.750942
    31  O    4.948660   4.493154   7.779539   8.486097   8.430365
    32  O    5.389877   4.843259   8.214592   8.663749   9.084320
                   26         27         28         29         30
    26  H    0.000000
    27  H    4.997595   0.000000
    28  O    5.548999   1.618868   0.000000
    29  S    7.015369   2.734640   1.487806   0.000000
    30  O    7.801314   2.950197   2.456505   1.463856   0.000000
    31  O    7.358897   3.621825   2.459846   1.626374   2.478045
    32  O    7.737710   3.910160   2.462602   1.458887   2.473624
                   31         32
    31  O    0.000000
    32  O    2.415973   0.000000
 Stoichiometry    C10H11N2O8S(1-)
 Framework group  C1[X(C10H11N2O8S)]
 Deg. of freedom    90
 Full point group                 C1      NOp   1
 Largest Abelian subgroup         C1      NOp   1
 Largest concise Abelian subgroup C1      NOp   1
                         Standard orientation:                         
 ---------------------------------------------------------------------
 Center     Atomic      Atomic             Coordinates (Angstroms)
 Number     Number       Type             X           Y           Z
 ---------------------------------------------------------------------
      1          7           0        0.907093   -0.023368    1.818448
      2          8           0        1.112354    1.125734    2.100439
      3          8           0        1.767902   -0.876477    1.720152
      4          6           0       -0.490550   -0.457835    1.539185
      5          1           0       -1.143145    0.106007    2.214735
      6          1           0       -0.516324   -1.531822    1.747628
      7          1           0        3.436366   -0.131925    1.387489
      8          6           0       -4.968192   -1.222255   -0.388279
      9          6           0       -4.513557    0.103142   -0.363540
     10          6           0       -3.144820    0.305567   -0.237389
     11          6           0       -2.253137   -0.768580   -0.127041
     12          6           0       -2.708731   -2.074142   -0.154672
     13          6           0       -4.086188   -2.298934   -0.293155
     14          1           0       -6.038028   -1.411441   -0.489617
     15          1           0       -5.207515    0.939591   -0.448440
     16          1           0       -2.009103   -2.908902   -0.076832
     17          1           0       -4.469992   -3.318950   -0.326315
     18          6           0       -0.855528   -0.221184    0.050087
     19          6           0       -1.085353    1.300404   -0.195851
     20          7           0       -2.442973    1.516312   -0.231118
     21          8           0       -0.229651    2.137886   -0.338484
     22          8           0        0.061683   -0.784475   -0.810093
     23          6           0       -3.048269    2.811810   -0.430109
     24          1           0       -3.586764    2.847090   -1.388719
     25          1           0       -3.750053    3.038913    0.384619
     26          1           0       -2.245672    3.557530   -0.438113
     27          1           0        0.928044   -0.286436   -0.795054
     28          8           0        2.353054    0.479716   -0.850633
     29         16           0        3.660749   -0.217497   -0.718750
     30          8           0        3.531221   -1.674509   -0.775426
     31          8           0        4.157439    0.143987    0.787146
     32          8           0        4.709411    0.355855   -1.555367
 ---------------------------------------------------------------------
 Rotational constants (GHZ):      0.6099194      0.1627064      0.1527950
 Standard basis: def2SVP (5D, 7F)
 There are   374 symmetry adapted cartesian basis functions of A   symmetry.
 There are   353 symmetry adapted basis functions of A   symmetry.
   353 basis functions,   614 primitive gaussians,   374 cartesian basis functions
    83 alpha electrons       83 beta electrons
       nuclear repulsion energy      1998.1245160647 Hartrees.
 NAtoms=   32 NActive=   32 NUniq=   32 SFac= 1.00D+00 NAtFMM=   60 NAOKFM=F Big=F
 Integral buffers will be    131072 words long.
 Raffenetti 2 integral format.
 Two-electron integral symmetry is turned on.
 ------------------------------------------------------------------------------
 Polarizable Continuum Model (PCM)
 =================================
 Model                : C-PCM.
 Atomic radii         : UFF (Universal Force Field).
 Polarization charges : Total charges.
 Charge compensation  : None.
 Solution method      : On-the-fly selection.
 Cavity type          : Scaled VdW (van der Waals Surface) (Alpha=1.100).
 Cavity algorithm     : GePol (No added spheres)
                        Default sphere list used, NSphG=   32.
                        Lebedev-Laikov grids with approx.  5.0 points / Ang**2.
                        Smoothing algorithm: Karplus/York (Gamma=1.0000).
                        Polarization charges: spherical gaussians, with
                                              point-specific exponents (IZeta= 3).
                        Self-potential: point-specific (ISelfS= 7).
                        Self-field    : sphere-specific E.n sum rule (ISelfD= 2).
 1st derivatives      : Analytical E(r).r(x)/FMM algorithm (CHGder, D1EAlg=3).
                        Cavity 1st derivative terms included.
 Solvent              : NitroMethane, Eps=  36.562000 Eps(inf)=   1.909095
 ------------------------------------------------------------------------------
 One-electron integrals computed using PRISM.
   1 Symmetry operations used in ECPInt.
 ECPInt:  NShTT=   13041 NPrTT=   49457 LenC2=   11619 LenP2D=   30160.
 LDataN:  DoStor=T MaxTD1= 4 Len=   56
 NBasis=   353 RedAO= T EigKep=  2.44D-04  NBF=   353
 NBsUse=   353 1.00D-06 EigRej= -1.00D+00 NBFU=   353
 ExpMin= 1.22D-01 ExpMax= 9.18D+03 ExpMxC= 1.38D+03 IAcc=1 IRadAn=         1 AccDes= 0.00D+00
 Harris functional with IExCor= 1009 and IRadAn=       1 diagonalized for initial guess.
 HarFok:  IExCor= 1009 AccDes= 0.00D+00 IRadAn=         1 IDoV= 1 UseB2=F ITyADJ=14
 ICtDFT=  3500011 ScaDFX=  1.000000  1.000000  1.000000  1.000000
 FoFCou: FMM=F IPFlag=           0 FMFlag=      100000 FMFlg1=           0
         NFxFlg=           0 DoJE=T BraDBF=F KetDBF=T FulRan=T
         wScrn=  0.000000 ICntrl=     500 IOpCl=  0 I1Cent=   200000004 NGrid=           0
         NMat0=    1 NMatS0=      1 NMatT0=    0 NMatD0=    1 NMtDS0=    0 NMtDT0=    0
 Petite list used in FoFCou.
 Requested convergence on RMS density matrix=1.00D-08 within 128 cycles.
 Requested convergence on MAX density matrix=1.00D-06.
 Requested convergence on             energy=1.00D-06.
 No special actions if energy rises.
 Inv3:  Mode=1 IEnd=    20358075.
 Iteration    1 A*A^-1 deviation from unit magnitude is 7.33D-15 for   2599.
 Iteration    1 A*A^-1 deviation from orthogonality  is 3.48D-15 for   2597   1483.
 Iteration    1 A^-1*A deviation from unit magnitude is 7.33D-15 for   2599.
 Iteration    1 A^-1*A deviation from orthogonality  is 3.31D-15 for   2584    971.
 Error on total polarization charges =  0.00807
 SCF Done:  E(RM062X) =  -1495.82680677     A.U. after   14 cycles
            NFock= 14  Conv=0.91D-08     -V/T= 2.0066

 **********************************************************************

            Population analysis using the SCF density.

 **********************************************************************

 Orbital symmetries:
       Occupied  (A) (A) (A) (A) (A) (A) (A) (A) (A) (A) (A) (A)
                 (A) (A) (A) (A) (A) (A) (A) (A) (A) (A) (A) (A)
                 (A) (A) (A) (A) (A) (A) (A) (A) (A) (A) (A) (A)
                 (A) (A) (A) (A) (A) (A) (A) (A) (A) (A) (A) (A)
                 (A) (A) (A) (A) (A) (A) (A) (A) (A) (A) (A) (A)
                 (A) (A) (A) (A) (A) (A) (A) (A) (A) (A) (A) (A)
                 (A) (A) (A) (A) (A) (A) (A) (A) (A) (A) (A)
       Virtual   (A) (A) (A) (A) (A) (A) (A) (A) (A) (A) (A) (A)
                 (A) (A) (A) (A) (A) (A) (A) (A) (A) (A) (A) (A)
                 (A) (A) (A) (A) (A) (A) (A) (A) (A) (A) (A) (A)
                 (A) (A) (A) (A) (A) (A) (A) (A) (A) (A) (A) (A)
                 (A) (A) (A) (A) (A) (A) (A) (A) (A) (A) (A) (A)
                 (A) (A) (A) (A) (A) (A) (A) (A) (A) (A) (A) (A)
                 (A) (A) (A) (A) (A) (A) (A) (A) (A) (A) (A) (A)
                 (A) (A) (A) (A) (A) (A) (A) (A) (A) (A) (A) (A)
                 (A) (A) (A) (A) (A) (A) (A) (A) (A) (A) (A) (A)
                 (A) (A) (A) (A) (A) (A) (A) (A) (A) (A) (A) (A)
                 (A) (A) (A) (A) (A) (A) (A) (A) (A) (A) (A) (A)
                 (A) (A) (A) (A) (A) (A) (A) (A) (A) (A) (A) (A)
                 (A) (A) (A) (A) (A) (A) (A) (A) (A) (A) (A) (A)
                 (A) (A) (A) (A) (A) (A) (A) (A) (A) (A) (A) (A)
                 (A) (A) (A) (A) (A) (A) (A) (A) (A) (A) (A) (A)
                 (A) (A) (A) (A) (A) (A) (A) (A) (A) (A) (A) (A)
                 (A) (A) (A) (A) (A) (A) (A) (A) (A) (A) (A) (A)
                 (A) (A) (A) (A) (A) (A) (A) (A) (A) (A) (A) (A)
                 (A) (A) (A) (A) (A) (A) (A) (A) (A) (A) (A) (A)
                 (A) (A) (A) (A) (A) (A) (A) (A) (A) (A) (A) (A)
                 (A) (A) (A) (A) (A) (A) (A) (A) (A) (A) (A) (A)
                 (A) (A) (A) (A) (A) (A) (A) (A) (A) (A) (A) (A)
                 (A) (A) (A) (A) (A) (A)
 The electronic state is 1-A.
 Alpha  occ. eigenvalues --  -90.12779 -19.68573 -19.68361 -19.63425 -19.62379
 Alpha  occ. eigenvalues --  -19.62271 -19.59023 -19.58203 -19.58144 -15.01629
 Alpha  occ. eigenvalues --  -14.81012 -10.66895 -10.64165 -10.62114 -10.60934
 Alpha  occ. eigenvalues --  -10.59231 -10.57174 -10.56906 -10.56839 -10.56753
 Alpha  occ. eigenvalues --  -10.56083  -8.45392  -6.37952  -6.37812  -6.37791
 Alpha  occ. eigenvalues --   -1.37889  -1.24334  -1.19020  -1.17721  -1.13380
 Alpha  occ. eigenvalues --   -1.10153  -1.07933  -1.06977  -1.06627  -0.95853
 Alpha  occ. eigenvalues --   -0.93378  -0.88067  -0.84598  -0.80696  -0.77917
 Alpha  occ. eigenvalues --   -0.71032  -0.69809  -0.68735  -0.67987  -0.66198
 Alpha  occ. eigenvalues --   -0.65063  -0.63799  -0.62520  -0.61856  -0.58592
 Alpha  occ. eigenvalues --   -0.58230  -0.56061  -0.54958  -0.54383  -0.53704
 Alpha  occ. eigenvalues --   -0.53489  -0.52369  -0.51598  -0.51305  -0.50262
 Alpha  occ. eigenvalues --   -0.50001  -0.48444  -0.46573  -0.46238  -0.45603
 Alpha  occ. eigenvalues --   -0.43985  -0.43096  -0.42637  -0.41650  -0.40683
 Alpha  occ. eigenvalues --   -0.40237  -0.39812  -0.39370  -0.38962  -0.38773
 Alpha  occ. eigenvalues --   -0.37332  -0.36571  -0.34894  -0.33615  -0.33098
 Alpha  occ. eigenvalues --   -0.31923  -0.31496  -0.27512
 Alpha virt. eigenvalues --   -0.03265   0.00729   0.01769   0.06380   0.10403
 Alpha virt. eigenvalues --    0.11666   0.12263   0.14693   0.15632   0.16292
 Alpha virt. eigenvalues --    0.16955   0.17315   0.18172   0.18950   0.19131
 Alpha virt. eigenvalues --    0.19650   0.20357   0.21381   0.21518   0.23265
 Alpha virt. eigenvalues --    0.24012   0.24495   0.26403   0.27021   0.28546
 Alpha virt. eigenvalues --    0.29542   0.30526   0.32039   0.33563   0.35236
 Alpha virt. eigenvalues --    0.36056   0.36727   0.37170   0.39043   0.41165
 Alpha virt. eigenvalues --    0.43571   0.43901   0.44647   0.45810   0.45960
 Alpha virt. eigenvalues --    0.48388   0.50212   0.50801   0.51665   0.52434
 Alpha virt. eigenvalues --    0.52996   0.54130   0.54479   0.56851   0.57692
 Alpha virt. eigenvalues --    0.57859   0.59560   0.60030   0.60497   0.61453
 Alpha virt. eigenvalues --    0.64005   0.65559   0.66206   0.67779   0.68415
 Alpha virt. eigenvalues --    0.68650   0.69243   0.69632   0.70524   0.71159
 Alpha virt. eigenvalues --    0.71364   0.71627   0.72284   0.72734   0.73238
 Alpha virt. eigenvalues --    0.73736   0.74130   0.75079   0.75360   0.75467
 Alpha virt. eigenvalues --    0.76735   0.77275   0.77973   0.79589   0.80115
 Alpha virt. eigenvalues --    0.80997   0.81531   0.84033   0.85656   0.87751
 Alpha virt. eigenvalues --    0.87941   0.91322   0.92654   0.93002   0.93227
 Alpha virt. eigenvalues --    0.95160   0.96456   0.97080   0.98143   0.99290
 Alpha virt. eigenvalues --    1.00742   1.01537   1.02351   1.04463   1.05547
 Alpha virt. eigenvalues --    1.07072   1.08552   1.09898   1.10495   1.12282
 Alpha virt. eigenvalues --    1.12328   1.13722   1.14523   1.15333   1.17041
 Alpha virt. eigenvalues --    1.18299   1.19369   1.20223   1.21681   1.23013
 Alpha virt. eigenvalues --    1.23830   1.25180   1.26327   1.27139   1.28347
 Alpha virt. eigenvalues --    1.28587   1.28993   1.30381   1.31090   1.32095
 Alpha virt. eigenvalues --    1.34280   1.34881   1.36257   1.37136   1.38416
 Alpha virt. eigenvalues --    1.38790   1.39660   1.41657   1.42849   1.44730
 Alpha virt. eigenvalues --    1.45805   1.46350   1.49834   1.52112   1.53420
 Alpha virt. eigenvalues --    1.54046   1.55622   1.56764   1.58199   1.59161
 Alpha virt. eigenvalues --    1.62573   1.66950   1.67133   1.70961   1.72316
 Alpha virt. eigenvalues --    1.72855   1.73501   1.74067   1.75628   1.76748
 Alpha virt. eigenvalues --    1.77599   1.78983   1.79743   1.80500   1.80600
 Alpha virt. eigenvalues --    1.81618   1.82087   1.83306   1.83798   1.84141
 Alpha virt. eigenvalues --    1.84814   1.86219   1.87341   1.88906   1.90571
 Alpha virt. eigenvalues --    1.91916   1.95100   1.96563   1.97297   1.98347
 Alpha virt. eigenvalues --    1.99212   2.00948   2.01324   2.03120   2.05255
 Alpha virt. eigenvalues --    2.07586   2.08819   2.09945   2.13033   2.15475
 Alpha virt. eigenvalues --    2.17173   2.18166   2.19179   2.20689   2.23392
 Alpha virt. eigenvalues --    2.27813   2.28120   2.29593   2.30536   2.32306
 Alpha virt. eigenvalues --    2.34084   2.34280   2.36212   2.39123   2.40861
 Alpha virt. eigenvalues --    2.42624   2.44198   2.46369   2.49689   2.50651
 Alpha virt. eigenvalues --    2.51055   2.57257   2.60336   2.61547   2.63292
 Alpha virt. eigenvalues --    2.63605   2.66770   2.67084   2.67744   2.68409
 Alpha virt. eigenvalues --    2.69124   2.69380   2.71780   2.72710   2.73093
 Alpha virt. eigenvalues --    2.73336   2.73461   2.73717   2.74058   2.74762
 Alpha virt. eigenvalues --    2.75125   2.76418   2.78347   2.80828   2.81416
 Alpha virt. eigenvalues --    2.82591   2.84687   2.86943   2.89165   2.89700
 Alpha virt. eigenvalues --    2.91172   2.92955   2.95041   2.95771   2.95997
 Alpha virt. eigenvalues --    2.98351   2.98997   3.02692   3.04300   3.05200
 Alpha virt. eigenvalues --    3.06183   3.09091   3.11017   3.11231   3.12739
 Alpha virt. eigenvalues --    3.14606   3.16974   3.20048   3.21420   3.24273
 Alpha virt. eigenvalues --    3.24827   3.33970   3.35844   3.36632   3.47522
 Alpha virt. eigenvalues --    3.48756   3.50243   3.51058   3.53472   3.65704
 Alpha virt. eigenvalues --    3.71592   3.75457   3.78477   3.81996   3.87318
          Condensed to atoms (all electrons):
               1          2          3          4          5          6
     1  N    6.011608   0.315683   0.266770   0.246522  -0.012280  -0.015026
     2  O    0.315683   8.081286  -0.112818  -0.064774   0.002542   0.004923
     3  O    0.266770  -0.112818   8.169731  -0.060797   0.003947   0.007383
     4  C    0.246522  -0.064774  -0.060797   4.775447   0.360781   0.371448
     5  H   -0.012280   0.002542   0.003947   0.360781   0.571019  -0.018701
     6  H   -0.015026   0.004923   0.007383   0.371448  -0.018701   0.569235
     7  H   -0.001795   0.007375   0.039348   0.001812  -0.000085  -0.000148
     8  C    0.000000   0.000000   0.000000   0.000102  -0.000053  -0.000031
     9  C    0.000002   0.000000   0.000000  -0.000592  -0.000047   0.000020
    10  C   -0.000036  -0.000003  -0.000004   0.003934   0.001294  -0.001142
    11  C    0.007604  -0.000418  -0.000498  -0.076385   0.002600  -0.019474
    12  C    0.000133   0.000001  -0.000048  -0.017080  -0.001502   0.007889
    13  C   -0.000002   0.000000   0.000000  -0.000375   0.000140   0.000018
    14  H    0.000000   0.000000   0.000000   0.000001  -0.000001  -0.000001
    15  H    0.000000   0.000000   0.000000   0.000002   0.000003   0.000002
    16  H   -0.000082   0.000000  -0.000015  -0.000338  -0.000001   0.001771
    17  H    0.000000   0.000000   0.000000   0.000006   0.000000   0.000010
    18  C   -0.022227  -0.009892  -0.008777   0.310968  -0.008411   0.004074
    19  C   -0.007296   0.016476   0.000506  -0.045081   0.001751   0.006809
    20  N    0.000271   0.000048  -0.000004  -0.002861   0.002048  -0.000191
    21  O    0.002206  -0.003884  -0.000020   0.000946  -0.000483  -0.000179
    22  O   -0.001983   0.000037   0.001493  -0.060173   0.003590  -0.000254
    23  C   -0.000009   0.000005   0.000000  -0.000728  -0.000179   0.000026
    24  H    0.000000   0.000000   0.000000  -0.000025   0.000020   0.000000
    25  H    0.000000   0.000000   0.000000   0.000153  -0.000080  -0.000003
    26  H   -0.000009   0.000002   0.000000  -0.000110  -0.000015   0.000004
    27  H   -0.000811  -0.000736   0.004811  -0.001303   0.000427  -0.001136
    28  O    0.005630  -0.000732  -0.003330  -0.001947  -0.000003   0.000055
    29  S    0.000608  -0.000434   0.003042  -0.000155   0.000003   0.000029
    30  O   -0.000039   0.000002  -0.000456   0.000053   0.000000   0.000003
    31  O    0.000569  -0.000208  -0.015078  -0.000020   0.000002   0.000006
    32  O    0.000001   0.000000  -0.000002   0.000000   0.000000   0.000000
               7          8          9         10         11         12
     1  N   -0.001795   0.000000   0.000002  -0.000036   0.007604   0.000133
     2  O    0.007375   0.000000   0.000000  -0.000003  -0.000418   0.000001
     3  O    0.039348   0.000000   0.000000  -0.000004  -0.000498  -0.000048
     4  C    0.001812   0.000102  -0.000592   0.003934  -0.076385  -0.017080
     5  H   -0.000085  -0.000053  -0.000047   0.001294   0.002600  -0.001502
     6  H   -0.000148  -0.000031   0.000020  -0.001142  -0.019474   0.007889
     7  H    0.442790   0.000000   0.000000   0.000000   0.000013   0.000000
     8  C    0.000000   5.147746   0.221006   0.153851  -0.190675   0.111690
     9  C    0.000000   0.221006   5.203320   0.286409   0.069516  -0.135963
    10  C    0.000000   0.153851   0.286409   5.118740   0.220220   0.084248
    11  C    0.000013  -0.190675   0.069516   0.220220   5.781313   0.249795
    12  C    0.000000   0.111690  -0.135963   0.084248   0.249795   5.168988
    13  C    0.000000   0.251892   0.092309  -0.167927   0.113776   0.244473
    14  H    0.000000   0.452260  -0.066306   0.014314  -0.001339   0.013296
    15  H    0.000000  -0.076372   0.470875  -0.078931   0.019648  -0.002920
    16  H    0.000000   0.012982  -0.001707   0.014595  -0.077074   0.463020
    17  H    0.000000  -0.071163   0.013647  -0.001569   0.015741  -0.071121
    18  C    0.000099  -0.001041   0.019152  -0.049260   0.061196  -0.079504
    19  C   -0.000060  -0.000187   0.001442  -0.072240  -0.057975   0.014768
    20  N    0.000000   0.008209  -0.083524   0.317439  -0.035076   0.008785
    21  O    0.000012   0.000001  -0.000061   0.001732   0.006673  -0.000051
    22  O    0.000022  -0.000033  -0.000010   0.002884  -0.073466  -0.001010
    23  C    0.000000  -0.000166   0.002106  -0.046299   0.007043  -0.000055
    24  H    0.000000   0.000161   0.003199  -0.003527   0.000068  -0.000054
    25  H    0.000000   0.000265   0.001501  -0.007597   0.000742   0.000039
    26  H    0.000000  -0.000009   0.000475   0.005788  -0.001279   0.000022
    27  H   -0.000638  -0.000002   0.000017  -0.000246   0.004733  -0.000345
    28  O    0.005324   0.000000   0.000000   0.000002  -0.000044  -0.000001
    29  S   -0.017060   0.000000   0.000000   0.000000   0.000004   0.000000
    30  O    0.005505   0.000000   0.000000   0.000000   0.000000   0.000000
    31  O    0.311956   0.000000   0.000000   0.000000   0.000000   0.000000
    32  O    0.002669   0.000000   0.000000   0.000000   0.000000   0.000000
              13         14         15         16         17         18
     1  N   -0.000002   0.000000   0.000000  -0.000082   0.000000  -0.022227
     2  O    0.000000   0.000000   0.000000   0.000000   0.000000  -0.009892
     3  O    0.000000   0.000000   0.000000  -0.000015   0.000000  -0.008777
     4  C   -0.000375   0.000001   0.000002  -0.000338   0.000006   0.310968
     5  H    0.000140  -0.000001   0.000003  -0.000001   0.000000  -0.008411
     6  H    0.000018  -0.000001   0.000002   0.001771   0.000010   0.004074
     7  H    0.000000   0.000000   0.000000   0.000000   0.000000   0.000099
     8  C    0.251892   0.452260  -0.076372   0.012982  -0.071163  -0.001041
     9  C    0.092309  -0.066306   0.470875  -0.001707   0.013647   0.019152
    10  C   -0.167927   0.014314  -0.078931   0.014595  -0.001569  -0.049260
    11  C    0.113776  -0.001339   0.019648  -0.077074   0.015741   0.061196
    12  C    0.244473   0.013296  -0.002920   0.463020  -0.071121  -0.079504
    13  C    5.143293  -0.068438   0.014049  -0.062883   0.457675   0.015125
    14  H   -0.068438   0.633590  -0.010640  -0.000201  -0.011546   0.000017
    15  H    0.014049  -0.010640   0.644922   0.000014  -0.000156  -0.000404
    16  H   -0.062883  -0.000201   0.000014   0.634690  -0.010236  -0.015029
    17  H    0.457675  -0.011546  -0.000156  -0.010236   0.639960  -0.000359
    18  C    0.015125   0.000017  -0.000404  -0.015029  -0.000359   5.733173
    19  C   -0.000583   0.000002  -0.000081   0.000575   0.000012   0.094557
    20  N   -0.000420  -0.000107  -0.012438  -0.000175   0.000010  -0.199225
    21  O    0.000000   0.000000  -0.000001   0.000001   0.000000  -0.096112
    22  O    0.000347   0.000000   0.000003   0.002999   0.000000   0.357620
    23  C    0.000064  -0.000025   0.007110   0.000010   0.000000   0.011189
    24  H   -0.000018   0.000006  -0.000015  -0.000001   0.000000  -0.000205
    25  H   -0.000028   0.000003   0.000021   0.000000   0.000000  -0.001148
    26  H    0.000002   0.000000  -0.000132   0.000000   0.000000   0.004396
    27  H    0.000022   0.000000   0.000000  -0.000091   0.000000  -0.049093
    28  O    0.000000   0.000000   0.000000   0.000002   0.000000   0.003052
    29  S    0.000000   0.000000   0.000000   0.000000   0.000000   0.000364
    30  O    0.000000   0.000000   0.000000   0.000000   0.000000  -0.000170
    31  O    0.000000   0.000000   0.000000   0.000000   0.000000  -0.000050
    32  O    0.000000   0.000000   0.000000   0.000000   0.000000   0.000002
              19         20         21         22         23         24
     1  N   -0.007296   0.000271   0.002206  -0.001983  -0.000009   0.000000
     2  O    0.016476   0.000048  -0.003884   0.000037   0.000005   0.000000
     3  O    0.000506  -0.000004  -0.000020   0.001493   0.000000   0.000000
     4  C   -0.045081  -0.002861   0.000946  -0.060173  -0.000728  -0.000025
     5  H    0.001751   0.002048  -0.000483   0.003590  -0.000179   0.000020
     6  H    0.006809  -0.000191  -0.000179  -0.000254   0.000026   0.000000
     7  H   -0.000060   0.000000   0.000012   0.000022   0.000000   0.000000
     8  C   -0.000187   0.008209   0.000001  -0.000033  -0.000166   0.000161
     9  C    0.001442  -0.083524  -0.000061  -0.000010   0.002106   0.003199
    10  C   -0.072240   0.317439   0.001732   0.002884  -0.046299  -0.003527
    11  C   -0.057975  -0.035076   0.006673  -0.073466   0.007043   0.000068
    12  C    0.014768   0.008785  -0.000051  -0.001010  -0.000055  -0.000054
    13  C   -0.000583  -0.000420   0.000000   0.000347   0.000064  -0.000018
    14  H    0.000002  -0.000107   0.000000   0.000000  -0.000025   0.000006
    15  H   -0.000081  -0.012438  -0.000001   0.000003   0.007110  -0.000015
    16  H    0.000575  -0.000175   0.000001   0.002999   0.000010  -0.000001
    17  H    0.000012   0.000010   0.000000   0.000000   0.000000   0.000000
    18  C    0.094557  -0.199225  -0.096112   0.357620   0.011189  -0.000205
    19  C    4.787133   0.325178   0.752442  -0.030752  -0.028239   0.000618
    20  N    0.325178   6.909574  -0.101114   0.002184   0.284204  -0.028351
    21  O    0.752442  -0.101114   7.675766  -0.001155  -0.005154   0.000161
    22  O   -0.030752   0.002184  -0.001155   7.853585  -0.000131   0.000011
    23  C   -0.028239   0.284204  -0.005154  -0.000131   4.500246   0.408517
    24  H    0.000618  -0.028351   0.000161   0.000011   0.408517   0.589795
    25  H    0.003291  -0.024487   0.000219   0.000000   0.406917  -0.029255
    26  H   -0.003913  -0.028810   0.017855  -0.000026   0.395679  -0.018038
    27  H   -0.001776   0.000237   0.007438   0.333623  -0.000015   0.000007
    28  O    0.000854   0.000003  -0.000345  -0.031109   0.000000   0.000000
    29  S   -0.000007   0.000000   0.000075   0.000903   0.000000   0.000000
    30  O   -0.000006   0.000000   0.000000  -0.000329   0.000000   0.000000
    31  O    0.000008   0.000000  -0.000001  -0.000013   0.000000   0.000000
    32  O    0.000000   0.000000   0.000000  -0.000005   0.000000   0.000000
              25         26         27         28         29         30
     1  N    0.000000  -0.000009  -0.000811   0.005630   0.000608  -0.000039
     2  O    0.000000   0.000002  -0.000736  -0.000732  -0.000434   0.000002
     3  O    0.000000   0.000000   0.004811  -0.003330   0.003042  -0.000456
     4  C    0.000153  -0.000110  -0.001303  -0.001947  -0.000155   0.000053
     5  H   -0.000080  -0.000015   0.000427  -0.000003   0.000003   0.000000
     6  H   -0.000003   0.000004  -0.001136   0.000055   0.000029   0.000003
     7  H    0.000000   0.000000  -0.000638   0.005324  -0.017060   0.005505
     8  C    0.000265  -0.000009  -0.000002   0.000000   0.000000   0.000000
     9  C    0.001501   0.000475   0.000017   0.000000   0.000000   0.000000
    10  C   -0.007597   0.005788  -0.000246   0.000002   0.000000   0.000000
    11  C    0.000742  -0.001279   0.004733  -0.000044   0.000004   0.000000
    12  C    0.000039   0.000022  -0.000345  -0.000001   0.000000   0.000000
    13  C   -0.000028   0.000002   0.000022   0.000000   0.000000   0.000000
    14  H    0.000003   0.000000   0.000000   0.000000   0.000000   0.000000
    15  H    0.000021  -0.000132   0.000000   0.000000   0.000000   0.000000
    16  H    0.000000   0.000000  -0.000091   0.000002   0.000000   0.000000
    17  H    0.000000   0.000000   0.000000   0.000000   0.000000   0.000000
    18  C   -0.001148   0.004396  -0.049093   0.003052   0.000364  -0.000170
    19  C    0.003291  -0.003913  -0.001776   0.000854  -0.000007  -0.000006
    20  N   -0.024487  -0.028810   0.000237   0.000003   0.000000   0.000000
    21  O    0.000219   0.017855   0.007438  -0.000345   0.000075   0.000000
    22  O    0.000000  -0.000026   0.333623  -0.031109   0.000903  -0.000329
    23  C    0.406917   0.395679  -0.000015   0.000000   0.000000   0.000000
    24  H   -0.029255  -0.018038   0.000007   0.000000   0.000000   0.000000
    25  H    0.587176  -0.016290  -0.000002   0.000000   0.000000   0.000000
    26  H   -0.016290   0.565932  -0.000024   0.000001   0.000000   0.000000
    27  H   -0.000002  -0.000024   0.415021   0.069949  -0.006405   0.007374
    28  O    0.000000   0.000001   0.069949   8.356557   0.401547  -0.060000
    29  S    0.000000   0.000000  -0.006405   0.401547  13.231968   0.472092
    30  O    0.000000   0.000000   0.007374  -0.060000   0.472092   8.296772
    31  O    0.000000   0.000000   0.001096  -0.054805   0.260579  -0.054250
    32  O    0.000000   0.000000   0.000542  -0.052521   0.487145  -0.054131
              31         32
     1  N    0.000569   0.000001
     2  O   -0.000208   0.000000
     3  O   -0.015078  -0.000002
     4  C   -0.000020   0.000000
     5  H    0.000002   0.000000
     6  H    0.000006   0.000000
     7  H    0.311956   0.002669
     8  C    0.000000   0.000000
     9  C    0.000000   0.000000
    10  C    0.000000   0.000000
    11  C    0.000000   0.000000
    12  C    0.000000   0.000000
    13  C    0.000000   0.000000
    14  H    0.000000   0.000000
    15  H    0.000000   0.000000
    16  H    0.000000   0.000000
    17  H    0.000000   0.000000
    18  C   -0.000050   0.000002
    19  C    0.000008   0.000000
    20  N    0.000000   0.000000
    21  O   -0.000001   0.000000
    22  O   -0.000013  -0.000005
    23  C    0.000000   0.000000
    24  H    0.000000   0.000000
    25  H    0.000000   0.000000
    26  H    0.000000   0.000000
    27  H    0.001096   0.000542
    28  O   -0.054805  -0.052521
    29  S    0.260579   0.487145
    30  O   -0.054250  -0.054131
    31  O    8.055433  -0.051195
    32  O   -0.051195   8.276231
 Mulliken charges:
               1
     1  N    0.203989
     2  O   -0.234482
     3  O   -0.295185
     4  C    0.260569
     5  H    0.091675
     6  H    0.082583
     7  H    0.202863
     8  C   -0.020433
     9  C   -0.096786
    10  C    0.203328
    11  C   -0.026983
    12  C   -0.057494
    13  C   -0.032511
    14  H    0.045114
    15  H    0.025441
    16  H    0.037173
    17  H    0.039092
    18  C   -0.074076
    19  C    0.241777
    20  N   -0.341410
    21  O   -0.256965
    22  O   -0.358854
    23  C    0.057885
    24  H    0.076925
    25  H    0.078562
    26  H    0.078500
    27  H    0.217324
    28  O   -0.638139
    29  S    1.165702
    30  O   -0.612418
    31  O   -0.454029
    32  O   -0.608736
 Sum of Mulliken charges =  -1.00000
 Mulliken charges with hydrogens summed into heavy atoms:
               1
     1  N    0.203989
     2  O   -0.234482
     3  O   -0.295185
     4  C    0.434827
     8  C    0.024682
     9  C   -0.071345
    10  C    0.203328
    11  C   -0.026983
    12  C   -0.020320
    13  C    0.006581
    18  C   -0.074076
    19  C    0.241777
    20  N   -0.341410
    21  O   -0.256965
    22  O   -0.141530
    23  C    0.291872
    28  O   -0.638139
    29  S    1.165702
    30  O   -0.612418
    31  O   -0.251166
    32  O   -0.608736
 Electronic spatial extent (au):  <R**2>=           7164.4386
 Charge=             -1.0000 electrons
 Dipole moment (field-independent basis, Debye):
    X=            -23.9518    Y=              0.0534    Z=              6.4645  Tot=             24.8089
 Quadrupole moment (field-independent basis, Debye-Ang):
   XX=           -184.0792   YY=           -133.4305   ZZ=           -134.8780
   XY=             -3.0132   XZ=             16.0729   YZ=             -4.7455
 Traceless Quadrupole moment (field-independent basis, Debye-Ang):
   XX=            -33.2833   YY=             17.3654   ZZ=             15.9179
   XY=             -3.0132   XZ=             16.0729   YZ=             -4.7455
 Octapole moment (field-independent basis, Debye-Ang**2):
  XXX=           -367.7738  YYY=              8.8775  ZZZ=             26.3243  XYY=            -50.9257
  XXY=             27.6109  XXZ=             62.9129  XZZ=             -3.1690  YZZ=              1.5755
  YYZ=              4.5651  XYZ=              0.7989
 Hexadecapole moment (field-independent basis, Debye-Ang**3):
 XXXX=          -7871.9002 YYYY=          -1358.9796 ZZZZ=           -812.3419 XXXY=            -60.3709
 XXXZ=            404.2661 YYYX=              3.6259 YYYZ=            -16.0586 ZZZX=             16.8559
 ZZZY=            -14.0102 XXYY=          -1345.5397 XXZZ=          -1477.5183 YYZZ=           -397.3962
 XXYZ=             -3.0168 YYXZ=             27.1001 ZZXY=            -45.0256
 N-N= 1.998124516065D+03 E-N=-7.533809790092D+03  KE= 1.486077907306D+03
   1 Symmetry operations used in ECPInt.
 ECPInt:  NShTT=   13041 NPrTT=   49457 LenC2=   11619 LenP2D=   30160.
 LDataN:  DoStor=T MaxTD1= 5 Len=  102
 D1PCM: C-PCM CHGder 1st derivatives, ID1Alg=3 FixD1E=F DoIter=F DoCFld=F I1PDM=0.
 Calling FoFJK, ICntrl=      2127 FMM=F ISym2X=0 I1Cent= 0 IOpClX= 0 NMat=1 NMatS=1 NMatT=0.
 ***** Axes restored to original set *****
 -------------------------------------------------------------------
 Center     Atomic                   Forces (Hartrees/Bohr)
 Number     Number              X              Y              Z
 -------------------------------------------------------------------
      1        7           0.000198032    0.000042532    0.000479026
      2        8           0.000005683   -0.000032964    0.000064373
      3        8          -0.000162663   -0.000048945    0.000214979
      4        6          -0.000451292   -0.000164481   -0.000108642
      5        1          -0.000005759    0.000063408   -0.000055601
      6        1           0.000047609    0.000108638   -0.000070027
      7        1           0.000356451   -0.000063235   -0.000353219
      8        6          -0.000033663   -0.000086304   -0.000083772
      9        6           0.000251650    0.000189439   -0.000096086
     10        6          -0.000067271    0.000034644   -0.000099343
     11        6          -0.000027657    0.000054894    0.000024791
     12        6          -0.000191468   -0.000116448    0.000110298
     13        6          -0.000197870    0.000028279   -0.000015274
     14        1           0.000014341   -0.000030245   -0.000024163
     15        1          -0.000047300   -0.000065351    0.000032990
     16        1           0.000037213    0.000052579   -0.000008813
     17        1           0.000035640    0.000054569    0.000065512
     18        6           0.000341772    0.000095955   -0.000003661
     19        6          -0.000204473   -0.000263213    0.000257041
     20        7           0.000308856   -0.000068555    0.000014900
     21        8           0.000301319   -0.000184994    0.000219436
     22        8          -0.000348652    0.000045757    0.000142313
     23        6          -0.000015933    0.000013674   -0.000183306
     24        1          -0.000024478    0.000024195    0.000031255
     25        1          -0.000021672   -0.000092718   -0.000064280
     26        1           0.000149717   -0.000070812   -0.000039036
     27        1           0.000294084   -0.000024299   -0.000129710
     28        8          -0.000176623    0.000535106   -0.000108874
     29       16          -0.000397307   -0.000181371   -0.000175934
     30        8          -0.000070119    0.000260778   -0.000210033
     31        8          -0.000012486   -0.000132327   -0.000079211
     32        8           0.000114319    0.000021815    0.000252072
 -------------------------------------------------------------------
 Cartesian Forces:  Max     0.000535106 RMS     0.000171268

 GradGradGradGradGradGradGradGradGradGradGradGradGradGradGradGradGradGrad
 Berny optimization.
 FormGI is forming the generalized inverse of G from B-inverse, IUseBI=4.
 GSVD:  received Info=                   1 from GESDD.
 Internal  Forces:  Max     0.002147641 RMS     0.000441373
 Search for a local minimum.
 Step number   1 out of a maximum of  174
 All quantities printed in internal units (Hartrees-Bohrs-Radians)
 Mixed Optimization -- En-DIIS/RFO-DIIS
 Second derivative matrix not updated -- first step.
 ITU=  0
     Eigenvalues ---    0.00230   0.00230   0.00230   0.00230   0.00501
     Eigenvalues ---    0.00503   0.00727   0.00968   0.01114   0.01510
     Eigenvalues ---    0.01593   0.01824   0.01985   0.02020   0.02091
     Eigenvalues ---    0.02115   0.02116   0.02159   0.02182   0.02211
     Eigenvalues ---    0.02270   0.04103   0.04349   0.05287   0.05589
     Eigenvalues ---    0.06939   0.07524   0.07847   0.08739   0.09120
     Eigenvalues ---    0.09325   0.12517   0.12742   0.14739   0.15117
     Eigenvalues ---    0.15999   0.16000   0.16000   0.16000   0.16000
     Eigenvalues ---    0.16000   0.16000   0.16000   0.16000   0.16000
     Eigenvalues ---    0.18186   0.19654   0.21914   0.22000   0.22113
     Eigenvalues ---    0.22614   0.24529   0.24602   0.24870   0.24999
     Eigenvalues ---    0.25000   0.25000   0.25000   0.26567   0.27538
     Eigenvalues ---    0.30215   0.33447   0.33674   0.33790   0.34174
     Eigenvalues ---    0.34182   0.34317   0.34588   0.34680   0.34774
     Eigenvalues ---    0.34795   0.39081   0.39646   0.42038   0.43128
     Eigenvalues ---    0.44688   0.45858   0.46438   0.46771   0.47790
     Eigenvalues ---    0.47920   0.48374   0.49497   0.51775   0.80861
     Eigenvalues ---    0.90009   0.92078   0.97216   1.01963   1.04388
 RFO step:  Lambda=-2.44200418D-03 EMin= 2.30000000D-03
 Linear search not attempted -- first point.
 Maximum step size (   0.300) exceeded in Quadratic search.
    -- Step size scaled by   0.629
 Iteration  1 RMS(Cart)=  0.20359060 RMS(Int)=  0.01452210
 Iteration  2 RMS(Cart)=  0.07662798 RMS(Int)=  0.00135896
 Iteration  3 RMS(Cart)=  0.00355479 RMS(Int)=  0.00000971
 Iteration  4 RMS(Cart)=  0.00000538 RMS(Int)=  0.00000937
 Iteration  5 RMS(Cart)=  0.00000000 RMS(Int)=  0.00000937
 Variable       Old X    -DE/DX   Delta X   Delta X   Delta X     New X
                                 (Linear)    (Quad)   (Total)
    R1        2.26931  -0.00002   0.00000  -0.00001  -0.00001   2.26930
    R2        2.29775  -0.00007   0.00000  -0.00004  -0.00004   2.29770
    R3        2.81573   0.00015   0.00000   0.00029   0.00029   2.81601
    R4        2.07023   0.00002   0.00000   0.00004   0.00004   2.07027
    R5        2.06799  -0.00014   0.00000  -0.00025  -0.00025   2.06774
    R6        2.93159   0.00044   0.00000   0.00100   0.00100   2.93258
    R7        1.84815  -0.00049   0.00000  -0.00059  -0.00059   1.84756
    R8        2.64830   0.00014   0.00000   0.00012   0.00013   2.64843
    R9        2.63630  -0.00005   0.00000  -0.00015  -0.00014   2.63615
   R10        2.06198  -0.00001   0.00000  -0.00001  -0.00001   2.06196
   R11        2.62552  -0.00009   0.00000  -0.00011  -0.00011   2.62541
   R12        2.06009  -0.00004   0.00000  -0.00006  -0.00006   2.06003
   R13        2.64634   0.00006   0.00000   0.00004   0.00004   2.64638
   R14        2.64462   0.00012   0.00000  -0.00019  -0.00018   2.64444
   R15        2.61358   0.00012   0.00000   0.00021   0.00021   2.61379
   R16        2.85613   0.00007   0.00000   0.00054   0.00053   2.85667
   R17        2.65040   0.00005   0.00000   0.00006   0.00006   2.65046
   R18        2.06349  -0.00001   0.00000  -0.00001  -0.00001   2.06348
   R19        2.06044  -0.00004   0.00000  -0.00008  -0.00008   2.06036
   R20        2.94490  -0.00087   0.00000  -0.00151  -0.00152   2.94339
   R21        2.60377  -0.00013   0.00000  -0.00016  -0.00016   2.60360
   R22        2.59863  -0.00029   0.00000  -0.00051  -0.00051   2.59812
   R23        2.27863   0.00004   0.00000   0.00002   0.00002   2.27865
   R24        2.72822  -0.00006   0.00000  -0.00010  -0.00010   2.72812
   R25        1.88864   0.00039   0.00000   0.00051   0.00051   1.88915
   R26        2.07883  -0.00001   0.00000  -0.00001  -0.00001   2.07882
   R27        2.07686  -0.00007   0.00000  -0.00012  -0.00012   2.07674
   R28        2.07037   0.00006   0.00000   0.00010   0.00010   2.07047
   R29        3.05922   0.00015   0.00000   0.00107   0.00107   3.06029
   R30        2.81155  -0.00012   0.00000  -0.00009  -0.00009   2.81146
   R31        2.76629  -0.00030   0.00000  -0.00021  -0.00021   2.76608
   R32        3.07340  -0.00035   0.00000  -0.00047  -0.00047   3.07293
   R33        2.75690  -0.00006   0.00000  -0.00004  -0.00004   2.75685
    A1        2.17651   0.00007   0.00000   0.00028   0.00024   2.17675
    A2        2.07528   0.00011   0.00000   0.00037   0.00032   2.07560
    A3        2.03122  -0.00018   0.00000  -0.00035  -0.00039   2.03083
    A4        1.86828  -0.00049   0.00000  -0.00074  -0.00074   1.86754
    A5        1.84685  -0.00060   0.00000  -0.00153  -0.00153   1.84532
    A6        1.93489   0.00173   0.00000   0.00525   0.00525   1.94014
    A7        1.95371   0.00026   0.00000  -0.00047  -0.00048   1.95323
    A8        1.95331  -0.00055   0.00000  -0.00167  -0.00168   1.95163
    A9        1.90393  -0.00031   0.00000  -0.00067  -0.00067   1.90326
   A10        2.12187   0.00002   0.00000  -0.00007  -0.00007   2.12180
   A11        2.07566   0.00004   0.00000   0.00021   0.00021   2.07587
   A12        2.08564  -0.00005   0.00000  -0.00013  -0.00013   2.08551
   A13        2.04765   0.00003   0.00000   0.00015   0.00015   2.04780
   A14        2.11504  -0.00011   0.00000  -0.00043  -0.00043   2.11461
   A15        2.12046   0.00008   0.00000   0.00029   0.00029   2.12075
   A16        2.12080  -0.00002   0.00000   0.00005   0.00005   2.12085
   A17        2.24020   0.00006   0.00000  -0.00018  -0.00017   2.24003
   A18        1.92188  -0.00004   0.00000   0.00012   0.00011   1.92198
   A19        2.10917   0.00001   0.00000  -0.00025  -0.00024   2.10893
   A20        1.89677  -0.00035   0.00000   0.00034   0.00031   1.89708
   A21        2.27686   0.00034   0.00000   0.00004   0.00006   2.27691
   A22        2.06780  -0.00002   0.00000   0.00021   0.00021   2.06801
   A23        2.10500  -0.00006   0.00000  -0.00038  -0.00037   2.10462
   A24        2.11037   0.00008   0.00000   0.00016   0.00016   2.11053
   A25        2.09898  -0.00001   0.00000  -0.00006  -0.00006   2.09892
   A26        2.09137   0.00005   0.00000   0.00020   0.00020   2.09157
   A27        2.09284  -0.00004   0.00000  -0.00014  -0.00014   2.09270
   A28        1.84918  -0.00073   0.00000  -0.00184  -0.00183   1.84735
   A29        1.91254   0.00004   0.00000   0.00139   0.00140   1.91394
   A30        1.96088   0.00150   0.00000   0.00779   0.00779   1.96868
   A31        1.77089   0.00036   0.00000   0.00084   0.00081   1.77170
   A32        1.97614  -0.00022   0.00000  -0.00227  -0.00227   1.97387
   A33        1.98102  -0.00107   0.00000  -0.00639  -0.00639   1.97463
   A34        1.87858   0.00003   0.00000   0.00150   0.00145   1.88003
   A35        2.20453  -0.00046   0.00000  -0.00190  -0.00190   2.20263
   A36        2.20004   0.00043   0.00000   0.00031   0.00030   2.20034
   A37        1.93842   0.00004   0.00000   0.00050   0.00048   1.93890
   A38        2.17177   0.00005   0.00000  -0.00001   0.00000   2.17176
   A39        2.16319  -0.00010   0.00000  -0.00043  -0.00042   2.16277
   A40        1.94328   0.00071   0.00000   0.00275   0.00275   1.94603
   A41        1.93277   0.00003   0.00000   0.00003   0.00003   1.93280
   A42        1.92940   0.00000   0.00000   0.00003   0.00003   1.92943
   A43        1.88036  -0.00017   0.00000  -0.00063  -0.00063   1.87973
   A44        1.90370  -0.00004   0.00000  -0.00024  -0.00024   1.90346
   A45        1.90753   0.00004   0.00000   0.00005   0.00005   1.90758
   A46        1.90980   0.00015   0.00000   0.00077   0.00077   1.91057
   A47        2.15180  -0.00023   0.00000  -0.00088  -0.00088   2.15093
   A48        1.96625  -0.00032   0.00000  -0.00074  -0.00074   1.96551
   A49        1.81970   0.00079   0.00000   0.00215   0.00215   1.82185
   A50        1.97881   0.00010   0.00000   0.00028   0.00028   1.97909
   A51        1.85886   0.00007   0.00000   0.00044   0.00044   1.85930
   A52        2.01814   0.00001   0.00000  -0.00030  -0.00030   2.01784
   A53        1.79682  -0.00058   0.00000  -0.00157  -0.00157   1.79525
   A54        1.85511  -0.00017   0.00000  -0.00067  -0.00067   1.85445
   A55        3.19337   0.00165   0.00000   0.21835   0.21835   3.41173
   A56        3.11780   0.00153   0.00000   0.20312   0.20312   3.32091
    D1       -0.62826  -0.00007   0.00000   0.00229   0.00229  -0.62597
    D2       -2.71461   0.00019   0.00000   0.00399   0.00399  -2.71061
    D3        1.50660  -0.00001   0.00000   0.00292   0.00292   1.50952
    D4        2.53241  -0.00027   0.00000  -0.01447  -0.01447   2.51794
    D5        0.44606  -0.00001   0.00000  -0.01277  -0.01277   0.43329
    D6       -1.61592  -0.00021   0.00000  -0.01384  -0.01384  -1.62976
    D7        3.08627  -0.00006   0.00000  -0.00733  -0.00732   3.07895
    D8       -1.29927   0.00002   0.00000  -0.00665  -0.00667  -1.30593
    D9        0.91995  -0.00022   0.00000  -0.00809  -0.00808   0.91186
   D10       -1.11238   0.00013   0.00000  -0.00583  -0.00582  -1.11820
   D11        0.78527   0.00021   0.00000  -0.00515  -0.00517   0.78010
   D12        3.00448  -0.00003   0.00000  -0.00659  -0.00658   2.99789
   D13        1.05930  -0.00015   0.00000  -0.00808  -0.00807   1.05123
   D14        2.95695  -0.00006   0.00000  -0.00741  -0.00742   2.94953
   D15       -1.10702  -0.00030   0.00000  -0.00884  -0.00884  -1.11586
   D16       -0.00221  -0.00002   0.00000   0.00000   0.00000  -0.00221
   D17        3.13071  -0.00003   0.00000   0.00136   0.00136   3.13207
   D18       -3.13830  -0.00001   0.00000  -0.00081  -0.00081  -3.13911
   D19       -0.00539  -0.00002   0.00000   0.00055   0.00055  -0.00483
   D20        0.01196  -0.00004   0.00000  -0.00214  -0.00214   0.00982
   D21       -3.13002  -0.00002   0.00000  -0.00103  -0.00103  -3.13105
   D22       -3.13516  -0.00005   0.00000  -0.00132  -0.00132  -3.13648
   D23        0.00605  -0.00003   0.00000  -0.00022  -0.00022   0.00583
   D24       -0.00977   0.00004   0.00000   0.00203   0.00203  -0.00774
   D25        3.10229  -0.00013   0.00000   0.00166   0.00166   3.10395
   D26        3.14053   0.00004   0.00000   0.00067   0.00067   3.14120
   D27       -0.03059  -0.00012   0.00000   0.00029   0.00029  -0.03030
   D28        0.01220   0.00001   0.00000  -0.00196  -0.00195   0.01025
   D29       -3.10247  -0.00015   0.00000  -0.00661  -0.00661  -3.10908
   D30       -3.10473   0.00015   0.00000  -0.00164  -0.00164  -3.10637
   D31        0.06379  -0.00001   0.00000  -0.00630  -0.00629   0.05749
   D32       -3.05488  -0.00001   0.00000  -0.00459  -0.00458  -3.05946
   D33       -0.05854  -0.00007   0.00000  -0.00418  -0.00418  -0.06272
   D34        0.05990  -0.00016   0.00000  -0.00492  -0.00492   0.05498
   D35        3.05624  -0.00022   0.00000  -0.00452  -0.00452   3.05172
   D36       -0.00223  -0.00008   0.00000  -0.00022  -0.00022  -0.00246
   D37        3.13248  -0.00004   0.00000  -0.00073  -0.00073   3.13174
   D38        3.10584   0.00011   0.00000   0.00558   0.00557   3.11141
   D39       -0.04264   0.00015   0.00000   0.00506   0.00506  -0.03757
   D40        1.85391   0.00003   0.00000   0.01448   0.01449   1.86840
   D41       -0.14329   0.00010   0.00000   0.01327   0.01327  -0.13003
   D42       -2.27250   0.00127   0.00000   0.02156   0.02156  -2.25095
   D43       -1.25730  -0.00014   0.00000   0.00924   0.00924  -1.24806
   D44        3.02868  -0.00007   0.00000   0.00802   0.00802   3.03670
   D45        0.89947   0.00110   0.00000   0.01631   0.01631   0.91578
   D46       -0.00955   0.00009   0.00000   0.00222   0.00222  -0.00733
   D47        3.13243   0.00007   0.00000   0.00111   0.00111   3.13354
   D48        3.13895   0.00006   0.00000   0.00273   0.00273  -3.14150
   D49       -0.00226   0.00003   0.00000   0.00162   0.00162  -0.00063
   D50       -1.77185   0.00047   0.00000  -0.01486  -0.01486  -1.78671
   D51        1.37740   0.00061   0.00000  -0.00290  -0.00290   1.37450
   D52        0.17767  -0.00017   0.00000  -0.01603  -0.01603   0.16164
   D53       -2.95626  -0.00003   0.00000  -0.00407  -0.00407  -2.96033
   D54        2.30350  -0.00075   0.00000  -0.02147  -0.02147   2.28203
   D55       -0.83043  -0.00061   0.00000  -0.00951  -0.00951  -0.83994
   D56       -1.23881  -0.00136   0.00000  -0.03472  -0.03471  -1.27353
   D57        2.95027  -0.00135   0.00000  -0.03639  -0.03639   2.91388
   D58        0.94330  -0.00094   0.00000  -0.03160  -0.03161   0.91169
   D59       -0.15308   0.00021   0.00000   0.01348   0.01348  -0.13960
   D60        3.13292   0.00026   0.00000   0.01303   0.01304  -3.13722
   D61        2.98088   0.00007   0.00000   0.00154   0.00153   2.98241
   D62       -0.01631   0.00012   0.00000   0.00110   0.00109  -0.01522
   D63       -0.99207   0.00003   0.00000   0.00002   0.00002  -0.99205
   D64        1.11984   0.00000   0.00000  -0.00024  -0.00024   1.11960
   D65       -3.07731   0.00007   0.00000   0.00033   0.00033  -3.07697
   D66        1.98597  -0.00003   0.00000   0.00056   0.00056   1.98652
   D67       -2.18530  -0.00006   0.00000   0.00030   0.00030  -2.18500
   D68       -0.09926   0.00002   0.00000   0.00087   0.00087  -0.09840
   D69        2.28766   0.00215   0.00000   0.28479   0.28479   2.57245
   D70        0.17919   0.00028   0.00000   0.00193   0.00193   0.18111
   D71       -1.82919  -0.00011   0.00000   0.00051   0.00051  -1.82868
   D72        2.51301   0.00007   0.00000   0.00103   0.00103   2.51404
   D73        0.96394   0.00000   0.00000   0.00116   0.00116   0.96510
   D74       -1.11879  -0.00005   0.00000   0.00076   0.00076  -1.11803
   D75        3.03373   0.00019   0.00000   0.00168   0.00168   3.03541
         Item               Value     Threshold  Converged?
 Maximum Force            0.002148     0.000450     NO 
 RMS     Force            0.000441     0.000300     NO 
 Maximum Displacement     1.109517     0.001800     NO 
 RMS     Displacement     0.263109     0.001200     NO 
 Predicted change in Energy=-1.269852D-03
 GradGradGradGradGradGradGradGradGradGradGradGradGradGradGradGradGradGrad

                          Input orientation:                          
 ---------------------------------------------------------------------
 Center     Atomic      Atomic             Coordinates (Angstroms)
 Number     Number       Type             X           Y           Z
[...]
 ,-0.00011758,0.00008274,0.00003331,0.00001921,0.00014111,-0.00003674,0
 .00003327,-0.00030976,-0.00019205,0.00004878,0.00018227,0.00009814,-0.
 00001338,-0.03108326,0.00166524,0.01285822,-0.00060597,0.00362177,-0.0
 0502470,0.00211721,-0.00260450,0.00150895,-0.00046460,-0.00283817,0.00
 138062,-0.26187184,-0.13663348,0.02481218,0.00012932,0.00111511,0.0000
 3930,0.00026564,-0.00030616,0.00018903,0.00021286,-0.00019442,0.000066
 76,-0.00013300,0.00002572,-0.00000778,0.27233085,0.00224006,0.00261388
 ,-0.00159619,-0.00097037,-0.00152046,0.00069363,-0.00108678,-0.0008075
 0,-0.00008966,0.00071879,-0.00078519,-0.00197716,-0.00026816,-0.000229
 10,-0.00063188,-0.00012647,-0.00005331,0.00032001,0.00057168,0.0003153
 1,-0.00111735,0.00024965,0.00026304,-0.00007270,-0.00012661,-0.0003818
 5,0.00041743,0.00141258,0.00171463,-0.00002258,0.00302072,-0.00344865,
 -0.00344030,0.00008810,-0.00037289,0.00019991,0.00019440,-0.00000735,0
 .00036033,0.00002598,-0.00000392,-0.00002123,0.00015839,0.00000347,0.0
 0002271,0.00002301,0.00003645,-0.00027014,0.00009501,0.00005304,0.0000
 0263,0.02306222,0.01559542,0.00113432,0.00720212,0.00332910,-0.0018540
 3,-0.00203394,-0.00087999,0.00003340,-0.00477920,0.00021571,0.00113008
 ,-0.16728419,-0.14333837,0.00106687,-0.00005629,-0.00002550,-0.0000122
 9,0.00001906,0.00001909,-0.00001541,0.00000643,-0.00000398,0.00000610,
 0.00005424,-0.00009009,0.00003776,0.12641253,0.13281247,0.00091465,-0.
 00522073,-0.00310640,0.00016833,0.00138414,0.00004916,-0.00159256,0.00
 215039,0.00052501,0.00209532,0.00107384,0.00059766,-0.00015582,-0.0001
 3450,0.00037541,0.00001140,-0.00007889,-0.00014353,-0.00122349,-0.0002
 5735,0.00029298,-0.00009791,-0.00003846,-0.00003055,-0.00003225,-0.000
 03154,0.00002863,0.00017489,-0.00011755,-0.00003836,0.00001051,-0.0010
 1030,0.00009569,-0.00011950,0.00018290,0.00001403,-0.00005625,0.000009
 73,-0.00001046,-0.00001380,0.00000294,0.00000294,-0.00002309,0.0000137
 6,-0.00000387,0.00000231,0.00002366,-0.00000917,-0.00004426,-0.0000197
 0,0.00000183,0.02084131,0.00797757,-0.00759321,-0.00036887,-0.00079965
 ,0.00143976,-0.00001509,0.00012475,-0.00017294,0.00006798,-0.00024195,
 -0.00091355,0.01322123,-0.00893717,-0.02471778,0.00003774,-0.00006685,
 0.00005962,-0.00002312,0.00000705,-0.00000711,-0.00002197,0.00001745,-
 0.00000778,-0.00000626,0.00000764,-0.00000237,-0.03070060,0.00528290,0
 .04229362,-0.00064531,0.00073622,-0.00196685,0.00001611,-0.00211745,0.
 00030017,0.00232251,0.00054571,0.00166108,0.00042361,0.00108098,0.0007
 5766,0.00023658,0.00015249,0.00061584,0.00004010,-0.00003529,-0.000164
 52,-0.00776490,-0.00094651,0.00405276,-0.00031152,-0.00023143,0.000027
 34,-0.00024761,0.00000526,-0.00025003,-0.00033004,0.00022426,-0.000166
 66,-0.00128409,0.00141683,0.00199514,-0.00004790,0.00072692,-0.0003858
 3,-0.00034054,-0.00011110,-0.00009190,-0.00007499,-0.00003433,0.000001
 04,-0.00013024,0.00002259,-0.00004003,0.00020004,0.00009400,0.00001947
 ,-0.00014748,-0.00008722,0.00000608,0.00816934,-0.00847752,-0.00780270
 ,0.00576054,-0.00079100,0.00176674,-0.00329500,0.00089564,-0.00082867,
 -0.00641021,0.00361568,-0.00080778,-0.05016934,-0.01953116,0.01018530,
 0.00008509,-0.00095648,0.00021284,-0.00020389,0.00021481,-0.00016114,-
 0.00020353,0.00017169,-0.00005793,0.00012850,-0.00004270,0.00001540,0.
 03570278,0.01536082,-0.00378991,0.45634593,-0.00039814,-0.00465563,0.0
 0121277,0.00078257,0.00280247,-0.00051957,-0.00131510,0.00131398,0.001
 11249,-0.00040207,0.00010708,0.00042284,0.00006975,0.00005315,0.000138
 74,0.00002611,0.00003288,-0.00008376,0.00086000,-0.00148996,0.00000398
 ,-0.00004206,-0.00005266,0.00001001,0.00009215,0.00014767,-0.00007246,
 -0.00036633,-0.00077508,0.00022439,-0.00061412,0.00072007,0.00045934,0
 .00004597,0.00005721,-0.00003928,0.00000390,0.00006700,-0.00005057,0.0
 0000327,0.00000856,0.00000080,-0.00002975,-0.00000408,-0.00000296,0.00
 001605,0.00001206,0.00001670,-0.00000909,-0.00000482,-0.00000144,-0.00
 075610,-0.00289518,-0.00168590,-0.00370576,-0.00209129,0.00089002,0.00
 171255,0.00055654,-0.00000089,0.00484035,-0.00023466,-0.00039398,-0.01
 175293,0.00241600,0.00273642,-0.00002886,0.00015614,-0.00008798,0.0000
 1990,-0.00002900,0.00002996,0.00003137,-0.00003074,0.00000742,-0.00003
 253,0.00003603,-0.00001458,0.00039351,-0.01318067,0.00105757,-0.172035
 59,0.18735199,-0.00516171,0.00500646,-0.00101619,0.00116960,-0.0010566
 7,-0.00185353,0.00565151,-0.00161373,-0.00475085,-0.00082451,-0.000419
 27,0.00094546,0.00015802,0.00006382,0.00002373,0.00011987,0.00000985,0
 .00005073,-0.00091045,-0.00128765,0.00767278,0.00003939,0.00003850,-0.
 00000093,0.00001488,-0.00002210,-0.00000552,0.00005911,0.00005600,-0.0
 0002900,-0.00006402,-0.00000719,0.00023780,0.00001476,-0.00008130,0.00
 002735,0.00004861,-0.00001021,-0.00000276,0.00000691,0.00000251,0.0000
 0253,0.00001656,-0.00000314,0.00000182,-0.00001560,-0.00001161,0.00000
 504,0.00001759,0.00000942,-0.00000188,-0.00049473,-0.00041811,-0.00055
 165,0.00004265,0.00056288,-0.00037159,0.00007759,-0.00018220,0.0000097
 4,-0.00132926,0.00026469,0.00112099,0.00090468,0.00062127,0.00436574,0
 .00000001,0.00006191,-0.00003904,0.00001934,-0.00000980,0.00001063,0.0
 0001542,-0.00001918,0.00000921,-0.00000627,-0.00000082,0.00000030,0.00
 278912,0.00263651,-0.00774232,0.06159522,-0.04151128,0.08320727,-0.005
 75590,0.00346952,0.00451277,0.00071628,-0.00029244,-0.00164724,-0.0012
 1445,-0.00433557,-0.00319618,-0.00111260,-0.00077994,0.00017646,-0.000
 09550,-0.00004870,-0.00044527,0.00009586,0.00002598,0.00014676,0.02070
 701,0.01141342,0.02118469,0.00023732,0.00018291,-0.00002236,0.00021760
 ,0.00001222,0.00014404,0.00014233,-0.00038548,0.00016943,0.00037935,-0
 .00072438,-0.00103746,0.00012625,-0.00056496,0.00027039,0.00029255,0.0
 0011220,0.00004918,0.00006215,0.00003021,0.00000359,0.00009950,-0.0000
 1941,0.00003080,-0.00014418,-0.00007362,-0.00001070,0.00012037,0.00006
 955,-0.00000293,-0.00617962,0.00476620,0.00480298,-0.00543472,0.000599
 56,-0.00140805,0.00287247,-0.00069085,0.00064662,0.00484164,-0.0016294
 9,0.00036713,0.02619780,0.00584799,-0.00449948,-0.00006014,0.00080024,
 -0.00019746,0.00017164,-0.00017537,0.00013609,0.00017096,-0.00015178,0
 .00005171,-0.00011056,0.00004436,-0.00001332,-0.04674360,-0.01386001,0
 .00194738,-0.37392887,0.15359718,-0.04539209,0.92529890,0.00289861,0.0
 0025322,-0.00250577,-0.00123631,-0.00131328,0.00152484,-0.00405673,-0.
 00213071,0.00153284,0.00019178,0.00070140,-0.00021113,-0.00004716,0.00
 000889,0.00017397,-0.00004576,0.00002654,-0.00005274,0.00699419,0.0066
 4214,-0.00191705,-0.00011851,-0.00008674,0.00000986,-0.00009860,-0.000
 00224,-0.00007912,-0.00010117,0.00014496,-0.00006488,-0.00028114,0.000
 40355,0.00047593,-0.00005997,0.00028034,-0.00013766,-0.00012977,-0.000
 05264,-0.00002230,-0.00002771,-0.00001380,-0.00000070,-0.00004622,0.00
 000840,-0.00001247,0.00006925,0.00003027,0.00000687,-0.00006037,-0.000
 03346,0.00000380,0.00260963,-0.00252973,-0.00194950,0.00241025,-0.0003
 6454,0.00071356,-0.00126654,0.00030806,-0.00028404,-0.00191032,0.00085
 284,-0.00026636,-0.01552106,-0.00804764,0.00355513,0.00002938,-0.00034
 246,0.00009238,-0.00007327,0.00007545,-0.00005865,-0.00007500,0.000068
 01,-0.00002164,0.00004892,-0.00001841,0.00000644,0.02166756,0.01636004
 ,-0.00396296,0.14101324,-0.17119720,0.02806053,0.02368303,0.93010120,0
 .01052128,-0.01386012,-0.00050729,-0.00167947,0.00730947,0.00153633,-0
 .01655979,0.00313576,0.00411530,0.00007012,0.00071841,-0.00156939,-0.0
 0039613,-0.00011739,-0.00015394,-0.00018228,0.00007446,-0.00006531,0.0
 0858912,-0.00793141,-0.04702130,-0.00002384,-0.00004338,0.00000100,0.0
 0001069,0.00003858,0.00005758,-0.00004026,-0.00010564,0.00002655,0.000
 29234,-0.00018380,-0.00070032,-0.00000008,0.00004303,-0.00000512,-0.00
 005031,0.00003645,0.00001996,-0.00000136,-0.00000048,-0.00000537,-0.00
 000994,0.00000399,0.00000232,-0.00000078,0.00000681,-0.00000767,-0.000
 00743,-0.00000358,0.00000256,-0.00175433,0.00128944,0.00259118,-0.0005
 0855,-0.00070046,0.00007169,0.00019754,0.00010275,0.00002204,0.0007908
 0,-0.00014959,-0.00037787,0.00637838,0.00269030,-0.00172165,0.00000366
 ,0.00000472,0.00004376,-0.00000747,-0.00000788,-0.00000232,0.00000021,
 0.00001039,-0.00000715,-0.00000414,0.00000985,0.00000119,-0.00944702,-
 0.00553384,0.00136314,-0.03801651,0.02749004,-0.09346925,-0.15762232,-
 0.12234519,0.66014600,0.00150026,-0.00228499,-0.00049552,-0.00001807,0
 .00119170,0.00018103,-0.00115734,0.00159503,0.00101353,0.00023661,0.00
 017063,-0.00005628,0.00000654,0.00001247,0.00008795,-0.00001477,-0.000
 00319,-0.00004877,-0.00276481,-0.00198128,-0.00087509,-0.00004799,-0.0
 0004388,0.00000525,-0.00004422,0.00000129,-0.00002378,-0.00003076,0.00
 007548,-0.00004358,-0.00003149,0.00013532,0.00018462,-0.00001988,0.000
 12001,-0.00006095,-0.00006791,-0.00001944,-0.00000950,-0.00001345,-0.0
 0000622,-0.00000085,-0.00002083,0.00000435,-0.00000629,0.00002905,0.00
 001689,0.00000188,-0.00002546,-0.00001499,0.00000046,0.00126611,-0.000
 82107,-0.00101164,0.00097716,-0.00013734,0.00037972,-0.00059090,0.0001
 6030,-0.00014857,-0.00102306,0.00037541,-0.00009352,-0.00449837,0.0001
 0037,0.00063431,0.00001074,-0.00016984,0.00004162,-0.00003653,0.000037
 39,-0.00002867,-0.00003660,0.00003275,-0.00001104,0.00002245,-0.000008
 28,0.00000266,0.00715267,0.00034494,0.00006202,0.00047416,0.04263002,-
 0.00697731,-0.09899883,-0.04005577,0.00852786,0.08246777,-0.00195918,0
 .00113114,0.00108258,0.00056346,-0.00019097,-0.00073342,0.00233960,-0.
 00007271,-0.00116380,-0.00017292,-0.00029898,0.00020373,0.00004525,0.0
 0000548,-0.00005302,0.00003574,-0.00001229,0.00001538,-0.00431085,-0.0
 0233907,0.00470739,0.00004804,0.00003298,-0.00000332,0.00005875,0.0000
 1992,0.00002018,-0.00000335,-0.00016763,0.00006378,0.00003862,-0.00007
 979,-0.00012482,0.00003223,-0.00012326,0.00005707,0.00006317,0.0000340
 8,0.00000342,0.00001317,0.00000763,0.00000069,0.00001768,-0.00000424,0
 .00000554,-0.00002690,-0.00001142,-0.00000311,0.00002668,0.00001459,-0
 .00000154,-0.00097998,0.00074099,0.00056852,-0.00151920,-0.00016367,-0
 .00023597,0.00079753,-0.00005199,0.00013862,0.00164206,-0.00035818,-0.
 00001155,0.00425290,0.00273918,-0.00112198,-0.00001755,0.00017690,-0.0
 0005570,0.00003616,-0.00003777,0.00003083,0.00003871,-0.00003531,0.000
 01119,-0.00002572,0.00001249,-0.00000449,-0.00813399,-0.00580365,0.000
 92589,0.01354572,-0.02968646,0.00649794,-0.04044856,-0.54150936,0.0507
 9845,0.04774774,0.61796876,-0.00207730,0.00364903,-0.00035128,0.000157
 91,-0.00219002,-0.00006489,0.00326666,-0.00191804,-0.00095291,-0.00011
 009,-0.00013197,0.00033372,0.00007423,0.00002313,0.00002388,0.00003310
 ,-0.00000812,0.00002337,-0.00307602,0.00255228,0.00526473,0.00000871,0
 .00001355,-0.00000069,-0.00000253,-0.00001228,-0.00000973,0.00001879,0
 .00003738,-0.00001011,-0.00005372,0.00002209,0.00014273,-0.00000012,-0
 .00001458,0.00000298,0.00001430,-0.00001028,-0.00000213,0.00000087,0.0
 0000010,0.00000117,0.00000361,-0.00000095,-0.00000043,-0.00000236,-0.0
 0000362,0.00000124,0.00000296,0.00000159,-0.00000098,0.00026105,-0.000
 19582,-0.00049235,0.00016102,0.00021383,-0.00007033,-0.00005399,-0.000
 04564,0.00000447,-0.00026137,0.00000266,0.00012880,-0.00081443,-0.0004
 8432,0.00061505,-0.00000097,0.00000360,-0.00000975,0.00000290,0.000000
 43,0.00000105,0.00000096,-0.00000318,0.00000192,0.00000061,-0.00000257
 ,-0.00000019,0.00164036,0.00091520,-0.00078117,-0.00437478,0.00951544,
 0.01752281,0.00818886,0.04875759,-0.09181703,-0.00682097,-0.05246756,0
 .06982243,0.00478827,-0.00838796,-0.00104341,-0.00059817,0.00357058,0.
 00145614,-0.01458917,0.00011764,0.00631188,0.00022672,0.00084584,-0.00
 093620,-0.00022386,-0.00002652,-0.00001192,-0.00003485,0.00006661,-0.0
 0005704,-0.28483312,-0.07391773,0.18981634,-0.00006454,-0.00006147,0.0
 0000625,-0.00004982,0.00000786,-0.00000405,-0.00004688,0.00006835,-0.0
 0004187,0.00004261,0.00007239,-0.00010810,-0.00002483,0.00015491,-0.00
 006729,-0.00009317,-0.00000967,0.00000177,-0.00001568,-0.00000826,-0.0
 0000390,-0.00002542,0.00000553,-0.00000630,0.00003315,0.00001803,-0.00
 000466,-0.00003201,-0.00001827,0.00000153,0.00055827,-0.00043905,0.000
 17059,0.00123383,-0.00034574,0.00031840,-0.00065881,0.00016905,-0.0001
 3314,-0.00103679,0.00040462,-0.00020238,-0.00302134,-0.00103214,0.0005
 9942,0.00001930,-0.00019092,0.00006962,-0.00004114,0.00003863,-0.00003
 223,-0.00004215,0.00004051,-0.00001476,0.00002558,-0.00000796,0.000002
 90,0.00513439,0.00269342,-0.00119126,-0.01862447,-0.00602778,-0.038400
 93,-0.10410115,-0.02314368,-0.02312367,0.01144283,-0.00563148,-0.00888
 771,0.39835716,-0.00147789,-0.00323592,0.00051752,0.00109333,0.0012142
 2,-0.00035970,-0.00266544,0.00333650,0.00114584,0.00000430,0.00020918,
 0.00001581,-0.00004867,-0.00000611,-0.00002094,0.00002746,0.00001641,-
 0.00000429,-0.06857226,-0.03134589,0.03886447,0.00000186,-0.00000002,0
 .00000026,0.00000441,0.00000132,0.00000327,-0.00000218,-0.00001550,0.0
 0000142,0.00000971,-0.00001299,-0.00001291,0.00000463,-0.00000713,0.00
 000375,0.00000061,0.00000501,0.00000082,0.00000038,0.00000013,-0.00000
 051,0.00000068,-0.00000021,-0.00000018,-0.00000107,0.00000006,-0.00000
 185,0.00000161,0.00000066,-0.00000034,-0.00002194,0.00007147,0.0000104
 4,-0.00009741,-0.00000847,-0.00000599,0.00004283,0.00000191,0.00000172
 ,0.00004759,0.00001001,0.00002064,0.00036106,0.00033445,-0.00018978,-0
 .00000072,0.00000492,-0.00000182,0.00000144,-0.00000106,0.00000152,0.0
 0000096,-0.00000163,-0.00000005,-0.00000131,0.00000062,-0.00000093,-0.
 00032634,-0.00071852,0.00039661,0.00760530,0.01419583,0.00778944,-0.02
 739584,-0.08946124,-0.03730928,-0.01409941,-0.02240493,-0.03845066,0.1
 0653775,0.11732866,-0.00477687,0.00906817,-0.00061989,0.00091893,-0.00
 433091,-0.00062289,0.01561022,0.00007287,-0.00173132,0.00004245,-0.000
 82524,0.00069417,0.00037883,0.00008783,0.00018441,0.00004955,-0.000072
 38,0.00002646,0.21580455,0.04940629,-0.20071333,-0.00000229,0.00000863
 ,0.00000184,-0.00002076,-0.00002143,-0.00004638,0.00001101,0.00008609,
 -0.00003120,-0.00021076,0.00016488,0.00053753,-0.00000491,0.00001853,-
 0.00002359,0.00000329,-0.00002951,-0.00001703,-0.00000348,-0.00000166,
 0.00000341,-0.00000170,-0.00000065,-0.00000345,0.00001190,0.00000114,0
 .00000653,-0.00000334,-0.00000261,-0.00000158,0.00156251,-0.00124467,-
 0.00198634,0.00068552,0.00036354,0.00005968,-0.00034098,-0.00000213,-0
 .00007568,-0.00083490,0.00025337,0.00032838,-0.00519456,-0.00139685,0.
 00178208,0.00000251,-0.00006614,-0.00001266,-0.00000967,0.00001882,-0.
 00000982,-0.00001330,0.00000549,0.00000022,0.00001056,-0.00000832,0.00
 000097,0.00814080,0.00386646,-0.00215508,-0.02965862,-0.00471844,-0.01
 662033,-0.03668993,-0.04438278,-0.17109658,-0.00802977,-0.01711474,-0.
 00525273,-0.16148879,0.01906283,0.44255348,0.00172652,-0.00157690,-0.0
 0118305,-0.00025737,0.00038609,0.00051931,-0.00139924,0.00101307,0.001
 28781,0.00028903,0.00035611,-0.00009397,-0.00000472,0.00001019,0.00012
 196,-0.00002441,-0.00000205,-0.00004544,0.00280560,-0.00047255,-0.0019
 6497,-0.00007506,-0.00005832,0.00000623,-0.00007075,-0.00000763,-0.000
 04510,-0.00004576,0.00013190,-0.00005586,-0.00011819,0.00021396,0.0003
 0186,-0.00003195,0.00018191,-0.00008802,-0.00009575,-0.00003449,-0.000
 01311,-0.00001980,-0.00000963,-0.00000075,-0.00003132,0.00000728,-0.00
 000964,0.00004700,0.00002327,0.00000121,-0.00003726,-0.00002170,0.0000
 0099,0.00197770,-0.00138527,-0.00142844,0.00184831,-0.00013079,0.00045
 069,-0.00095782,0.00019668,-0.00020524,-0.00171960,0.00066542,-0.00014
 286,-0.00793017,-0.00281000,0.00116305,0.00002158,-0.00025702,0.000071
 40,-0.00005554,0.00005489,-0.00004469,-0.00005542,0.00004871,-0.000017
 07,0.00003649,-0.00001551,0.00000485,0.01203461,0.00663786,-0.00007908
 ,-0.04574534,-0.00760844,0.02681604,-0.33886984,-0.11326077,0.21405365
 ,0.00385490,-0.00811351,0.01269947,0.00629526,-0.00103544,0.00405199,0
 .36660828,0.00033977,-0.00055973,0.00004750,0.00001627,0.00036970,-0.0
 0002339,-0.00015408,0.00047039,0.00026354,0.00002044,-0.00003063,-0.00
 007257,-0.00000769,-0.00000631,-0.00001724,-0.00000577,-0.00000249,-0.
 00000003,-0.00091706,0.00183880,-0.00196302,0.00000656,0.00000394,-0.0
 0000079,0.00000580,-0.00000041,0.00000948,0.00000986,-0.00000469,0.000
 00085,0.00004826,-0.00004817,-0.00006306,0.00000284,-0.00001853,0.0000
 0828,0.00000491,0.00000479,0.00000342,0.00000142,0.00000059,-0.0000004
 5,0.00000241,-0.00000002,0.00000061,-0.00000427,-0.00000108,-0.0000016
 8,0.00000413,0.00000220,-0.00000051,-0.00016155,0.00026891,0.00024543,
 -0.00008435,0.00002952,-0.00006196,0.00006047,-0.00001799,0.00001738,0
 .00003746,-0.00006256,0.00000309,0.00144827,0.00088779,-0.00036279,-0.
 00000120,0.00001448,-0.00000018,0.00000252,-0.00000431,0.00000231,0.00
 000327,-0.00000268,0.00000014,-0.00000238,0.00000058,-0.00000020,-0.00
 177099,-0.00168063,0.00027882,0.01796961,0.01629275,-0.00502745,-0.113
 07819,-0.13916186,0.09452916,-0.03510637,-0.01953245,0.03023169,0.0044
 3691,0.01048827,-0.00826648,0.12687269,0.13046183,-0.00223610,0.003003
 48,0.00048897,0.00038090,-0.00143473,-0.00046587,0.00429373,-0.0004905
 6,-0.00119514,-0.00006765,-0.00030807,0.00027650,0.00007930,0.00001275
 ,-0.00001531,0.00003246,-0.00001652,0.00002746,-0.01040897,-0.00396689
 ,-0.00168746,0.00003376,0.00003069,-0.00000248,0.00002252,-0.00000653,
 0.00000947,0.00003220,-0.00001630,0.00001160,0.00000184,-0.00006689,-0
 .00000892,0.00001112,-0.00007691,0.00003567,0.00004488,0.00000569,0.00
 000254,0.00000766,0.00000354,0.00000104,0.00001440,-0.00000350,0.00000
 311,-0.00001823,-0.00001034,0.00000038,0.00001533,0.00000871,-0.000000
 86,-0.00041757,0.00037785,0.00015516,-0.00056422,0.00020086,-0.0001918
 8,0.00029911,-0.00010137,0.00007402,0.00044304,-0.00023331,0.00012429,
 0.00214988,0.00057811,-0.00029075,-0.00000858,0.00009502,-0.00003427,0
 .00002289,-0.00001885,0.00001720,0.00002037,-0.00001994,0.00000798,-0.
 00001266,0.00000337,-0.00000229,-0.00336981,-0.00147150,0.00029616,0.0
 0535179,0.00385416,0.01124091,0.20935591,0.09336122,-0.26147306,0.0136
 1920,0.00796381,0.00592636,0.03700476,0.00852287,-0.04515930,-0.256133
 22,-0.10977991,0.29182878\\-0.00001243,0.00005178,0.00000302,-0.000002
 08,-0.00002360,-0.00000597,0.00002659,-0.00002455,-0.00000586,-0.00000
 222,-0.00000473,-0.00000505,0.00000507,-0.00000138,0.00000357,0.000006
 68,-0.00000210,0.00000028,-0.00000239,0.00000746,-0.00000606,0.0000033
 3,-0.00000432,0.00000863,0.00000095,-0.00000655,0.00000624,0.00000039,
 0.00001304,0.00000218,-0.00001036,-0.00000334,0.00001828,0.00000532,-0
 .00000754,0.00000452,-0.00000140,-0.00000094,0.00000335,0.00000043,-0.
 00000414,0.00000964,-0.00000319,-0.00000247,0.00001100,0.00000533,0.00
 000109,-0.00000113,0.00000143,-0.00000195,0.00000588,0.00001806,0.0000
 0345,-0.00002384,0.00001799,0.00000059,0.00000624,-0.00001346,-0.00000
 034,-0.00001279,-0.00001437,-0.00001357,0.00000430,-0.00000927,0.00001
 017,-0.00000743,-0.00000754,-0.00000075,0.00001882,-0.00000770,-0.0000
 0065,0.00000762,-0.00000297,-0.00000057,0.00000699,-0.00000307,-0.0000
 0169,-0.00000186,0.00000903,-0.00000242,0.00000575,-0.00003057,0.00002
 745,-0.00000814,0.00000124,-0.00000770,0.00000952,0.00001020,0.0000020
 4,-0.00001160,0.00000834,-0.00000701,-0.00004403,0.00000261,0.00000524
 ,-0.00000206\\\@


     ON THE SURVIVAL OF THE FITTEST -
 "STRONG REPRESENTATIVES FROM EACH PAST ERA THRIVE TODAY,
 SUCH AS PROGRAMMING IN THE THIRTY YEAR OLD LANGUAGE KNOWN
 AS FORTRAN, AND EVEN IN THE ANCIENT SCRIPT KNOWN AS DIRECT
 MACHINE CODE. SOME PEOPLE MIGHT LOOK ON SUCH RELICS AS LIVING
 FOSSILS; OTHERS WOULD POINT OUT THAT EVEN A VERY OLD SPECIES
 MIGHT STILL BE FILLING A PARTICULAR ECOLOGICAL NICHE."
     -- ALAN KAY, SCI.AM. SEPTEMBER 1984
 Job cpu time:       0 days  2 hours  1 minutes 49.6 seconds.
 File lengths (MBytes):  RWF=    542 Int=      0 D2E=      0 Chk=     19 Scr=      1
 Normal termination of Gaussian 09 at Wed Nov 11 09:28:11 2020.
