 Entering Gaussian System, Link 0=g09
 Input=MeNO2_Na2SO4_TS3_freq.com
 Output=MeNO2_Na2SO4_TS3_freq.log
 Initial command:
 /apps/applications/gaussian/G09.D01/2/default/g09/l1.exe "/nobackup/chmbnn/Gau-19118.inp" -scrdir="/nobackup/chmbnn/"
 Entering Link 1 = /apps/applications/gaussian/G09.D01/2/default/g09/l1.exe PID=     19119.
  
 Copyright (c) 1988,1990,1992,1993,1995,1998,2003,2009,2013,
            Gaussian, Inc.  All Rights Reserved.
  
 This is part of the Gaussian(R) 09 program.  It is based on
 the Gaussian(R) 03 system (copyright 2003, Gaussian, Inc.),
 the Gaussian(R) 98 system (copyright 1998, Gaussian, Inc.),
 the Gaussian(R) 94 system (copyright 1995, Gaussian, Inc.),
 the Gaussian 92(TM) system (copyright 1992, Gaussian, Inc.),
 the Gaussian 90(TM) system (copyright 1990, Gaussian, Inc.),
 the Gaussian 88(TM) system (copyright 1988, Gaussian, Inc.),
 the Gaussian 86(TM) system (copyright 1986, Carnegie Mellon
 University), and the Gaussian 82(TM) system (copyright 1983,
 Carnegie Mellon University). Gaussian is a federally registered
 trademark of Gaussian, Inc.
  
 This software contains proprietary and confidential information,
 including trade secrets, belonging to Gaussian, Inc.
  
 This software is provided under written license and may be
 used, copied, transmitted, or stored only in accord with that
 written license.
  
 The following legend is applicable only to US Government
 contracts under FAR:
  
                    RESTRICTED RIGHTS LEGEND
  
 Use, reproduction and disclosure by the US Government is
 subject to restrictions as set forth in subparagraphs (a)
 and (c) of the Commercial Computer Software - Restricted
 Rights clause in FAR 52.227-19.
  
 Gaussian, Inc.
 340 Quinnipiac St., Bldg. 40, Wallingford CT 06492
  
  
 ---------------------------------------------------------------
 Warning -- This program may not be used in any manner that
 competes with the business of Gaussian, Inc. or will provide
 assistance to any competitor of Gaussian, Inc.  The licensee
 of this program is prohibited from giving any competitor of
 Gaussian, Inc. access to this program.  By using this program,
 the user acknowledges that Gaussian, Inc. is engaged in the
 business of creating and licensing software in the field of
 computational chemistry and represents and warrants to the
 licensee that it is not a competitor of Gaussian, Inc. and that
 it will not use this program in any manner prohibited above.
 ---------------------------------------------------------------
  

 Cite this work as:
 Gaussian 09, Revision D.01,
 M. J. Frisch, G. W. Trucks, H. B. Schlegel, G. E. Scuseria, 
 M. A. Robb, J. R. Cheeseman, G. Scalmani, V. Barone, B. Mennucci, 
 G. A. Petersson, H. Nakatsuji, M. Caricato, X. Li, H. P. Hratchian, 
 A. F. Izmaylov, J. Bloino, G. Zheng, J. L. Sonnenberg, M. Hada, 
 M. Ehara, K. Toyota, R. Fukuda, J. Hasegawa, M. Ishida, T. Nakajima, 
 Y. Honda, O. Kitao, H. Nakai, T. Vreven, J. A. Montgomery, Jr., 
 J. E. Peralta, F. Ogliaro, M. Bearpark, J. J. Heyd, E. Brothers, 
 K. N. Kudin, V. N. Staroverov, T. Keith, R. Kobayashi, J. Normand, 
 K. Raghavachari, A. Rendell, J. C. Burant, S. S. Iyengar, J. Tomasi, 
 M. Cossi, N. Rega, J. M. Millam, M. Klene, J. E. Knox, J. B. Cross, 
 V. Bakken, C. Adamo, J. Jaramillo, R. Gomperts, R. E. Stratmann, 
 O. Yazyev, A. J. Austin, R. Cammi, C. Pomelli, J. W. Ochterski, 
 R. L. Martin, K. Morokuma, V. G. Zakrzewski, G. A. Voth, 
 P. Salvador, J. J. Dannenberg, S. Dapprich, A. D. Daniels, 
 O. Farkas, J. B. Foresman, J. V. Ortiz, J. Cioslowski, 
 and D. J. Fox, Gaussian, Inc., Wallingford CT, 2013.
 
 ******************************************
 Gaussian 09:  ES64L-G09RevD.01 24-Apr-2013
                 7-Nov-2020 
 ******************************************
 %nprocshared=4
 Will use up to    4 processors via shared memory.
 %chk=MeNO2_Na2SO4_TS3_freq.chk
 -------------------------------------------------------------
 # freq scrf=(cpcm,solvent=nitromethane) pop=nbo def2svp m062x
 -------------------------------------------------------------
 1/10=4,30=1,38=1/1,3;
 2/12=2,17=6,18=5,40=1/2;
 3/5=43,7=101,11=2,16=1,25=1,30=1,70=2101,71=2,72=15,74=-55,140=1/1,2,3;
 4//1;
 5/5=2,38=5,53=15,98=1/2;
 8/6=4,10=90,11=11/1;
 11/6=1,8=1,9=11,15=111,16=1/1,2,10;
 10/6=1/2;
 6/7=2,8=2,9=2,10=2,18=1,28=1,40=1/1,7;
 7/8=1,10=1,25=1/1,2,3,16;
 1/10=4,30=1/3;
 99//99;
 --------------------
 MeNO2+SO4-2 TS3 freq
 --------------------
 Symbolic Z-matrix:
 Charge = -1 Multiplicity = 1
 N                    -2.26335   0.03457   0.0595 
 O                    -3.29067   0.06756  -0.59243 
 O                    -1.72788   1.11659   0.43189 
 C                    -1.61811  -1.15804   0.34256 
 H                    -1.07659  -1.1101    1.2897 
 H                    -2.25676  -2.02093   0.15557 
 H                    -0.35453  -1.07172  -0.52295 
 O                     0.76524   1.35697   0.07755 
 H                    -0.23488   1.23504   0.29315 
 S                     1.51091  -0.02838  -0.01722 
 O                     0.63255  -0.84831  -1.00399 
 O                     1.49054  -0.66035   1.2929 
 O                     2.79274   0.23354  -0.63241 
 

 GradGradGradGradGradGradGradGradGradGradGradGradGradGradGradGradGradGrad
 Berny optimization.
 Initialization pass.
 Trust Radius=3.00D-01 FncErr=1.00D-07 GrdErr=1.00D-07
 Number of steps in this run=      2 maximum allowed number of steps=      2.
 GradGradGradGradGradGradGradGradGradGradGradGradGradGradGradGradGradGrad

                          Input orientation:                          
 ---------------------------------------------------------------------
 Center     Atomic      Atomic             Coordinates (Angstroms)
 Number     Number       Type             X           Y           Z
 ---------------------------------------------------------------------
      1          7           0       -2.263352    0.034574    0.059503
      2          8           0       -3.290665    0.067558   -0.592430
      3          8           0       -1.727875    1.116587    0.431894
      4          6           0       -1.618112   -1.158045    0.342558
      5          1           0       -1.076587   -1.110095    1.289698
      6          1           0       -2.256756   -2.020928    0.155566
      7          1           0       -0.354525   -1.071722   -0.522950
      8          8           0        0.765242    1.356967    0.077554
      9          1           0       -0.234875    1.235035    0.293145
     10         16           0        1.510914   -0.028378   -0.017218
     11          8           0        0.632551   -0.848306   -1.003987
     12          8           0        1.490544   -0.660347    1.292901
     13          8           0        2.792735    0.233542   -0.632412
 ---------------------------------------------------------------------
                    Distance matrix (angstroms):
                    1          2          3          4          5
     1  N    0.000000
     2  O    1.217159   0.000000
     3  O    1.263393   2.142899   0.000000
     4  C    1.385206   2.274585   2.279030   0.000000
     5  H    2.057197   3.135509   2.473483   1.092073   0.000000
     6  H    2.057756   2.447497   3.193755   1.089679   1.873145
     7  H    2.281833   3.150191   2.754363   1.534017   1.951548
     8  O    3.304759   4.308345   2.529619   3.475038   3.308780
     9  H    2.368631   3.388967   1.504104   2.764529   2.683511
    10  S    3.775571   4.836862   3.464448   3.346101   3.094075
    11  O    3.208854   4.049668   3.390305   2.640948   2.872399
    12  O    4.011972   5.190788   3.775851   3.288555   2.606232
    13  O    5.107088   6.085795   4.727413   4.726801   4.524546
                    6          7          8          9         10
     6  H    0.000000
     7  H    2.231560   0.000000
     8  O    4.533071   2.740988   0.000000
     9  H    3.835130   2.449787   1.030330   0.000000
    10  S    4.265612   2.196405   1.576131   2.177227   0.000000
    11  O    3.326815   1.120549   2.459790   2.602939   1.554837
    12  O    4.145717   2.621226   2.464282   2.751192   1.454720
    13  O    5.585777   3.408950   2.424224   3.320552   1.445728
                   11         12         13
    11  O    0.000000
    12  O    2.459100   0.000000
    13  O    2.444352   2.490295   0.000000
 Stoichiometry    CH4NO6S(1-)
 Framework group  C1[X(CH4NO6S)]
 Deg. of freedom    33
 Full point group                 C1      NOp   1
 Largest Abelian subgroup         C1      NOp   1
 Largest concise Abelian subgroup C1      NOp   1
                         Standard orientation:                         
 ---------------------------------------------------------------------
 Center     Atomic      Atomic             Coordinates (Angstroms)
 Number     Number       Type             X           Y           Z
 ---------------------------------------------------------------------
      1          7           0       -2.263352    0.034574    0.059503
      2          8           0       -3.290665    0.067558   -0.592430
      3          8           0       -1.727875    1.116587    0.431894
      4          6           0       -1.618112   -1.158045    0.342558
      5          1           0       -1.076587   -1.110095    1.289698
      6          1           0       -2.256756   -2.020928    0.155566
      7          1           0       -0.354525   -1.071722   -0.522950
      8          8           0        0.765242    1.356967    0.077554
      9          1           0       -0.234875    1.235035    0.293145
     10         16           0        1.510914   -0.028378   -0.017218
     11          8           0        0.632551   -0.848306   -1.003987
     12          8           0        1.490544   -0.660347    1.292901
     13          8           0        2.792735    0.233542   -0.632412
 ---------------------------------------------------------------------
 Rotational constants (GHZ):      3.2741574      0.7883524      0.7514646
 Standard basis: def2SVP (5D, 7F)
 There are   159 symmetry adapted cartesian basis functions of A   symmetry.
 There are   150 symmetry adapted basis functions of A   symmetry.
   150 basis functions,   265 primitive gaussians,   159 cartesian basis functions
    41 alpha electrons       41 beta electrons
       nuclear repulsion energy       627.0250549843 Hartrees.
 NAtoms=   13 NActive=   13 NUniq=   13 SFac= 1.00D+00 NAtFMM=   60 NAOKFM=F Big=F
 Integral buffers will be    131072 words long.
 Raffenetti 2 integral format.
 Two-electron integral symmetry is turned on.
 Force inversion solution in PCM.
 ------------------------------------------------------------------------------
 Polarizable Continuum Model (PCM)
 =================================
 Model                : C-PCM.
 Atomic radii         : UFF (Universal Force Field).
 Polarization charges : Total charges.
 Charge compensation  : None.
 Solution method      : Matrix inversion.
 Cavity type          : Scaled VdW (van der Waals Surface) (Alpha=1.100).
 Cavity algorithm     : GePol (No added spheres)
                        Default sphere list used, NSphG=   13.
                        Lebedev-Laikov grids with approx.  5.0 points / Ang**2.
                        Smoothing algorithm: Karplus/York (Gamma=1.0000).
                        Polarization charges: spherical gaussians, with
                                              point-specific exponents (IZeta= 3).
                        Self-potential: point-specific (ISelfS= 7).
                        Self-field    : sphere-specific E.n sum rule (ISelfD= 2).
 1st derivatives      : Analytical E(r).r(x)/FMM algorithm (CHGder, D1EAlg=3).
                        Cavity 1st derivative terms included.
 2nd derivatives      : Analytical E(r).r(xy)/FMM algorithm (CHGder, D2EAlg=3).
                        Cavity 2nd derivative terms included.
 Solvent              : NitroMethane, Eps=  36.562000 Eps(inf)=   1.909095
 ------------------------------------------------------------------------------
 Spheres list:
 ISph  on   Nord     Re0    Alpha      Xe            Ye            Ze
    1   N      1    1.8300  1.100     -2.263352      0.034574      0.059503
    2   O      2    1.7500  1.100     -3.290665      0.067558     -0.592430
    3   O      3    1.7500  1.100     -1.727875      1.116587      0.431894
    4   C      4    1.9255  1.100     -1.618112     -1.158045      0.342558
    5   H      5    1.4430  1.100     -1.076587     -1.110095      1.289698
    6   H      6    1.4430  1.100     -2.256756     -2.020928      0.155566
    7   H      7    1.4430  1.100     -0.354525     -1.071722     -0.522950
    8   O      8    1.7500  1.100      0.765242      1.356967      0.077554
    9   H      9    1.4430  1.100     -0.234875      1.235035      0.293145
   10   S     10    2.0175  1.100      1.510914     -0.028378     -0.017218
   11   O     11    1.7500  1.100      0.632551     -0.848306     -1.003987
   12   O     12    1.7500  1.100      1.490544     -0.660347      1.292901
   13   O     13    1.7500  1.100      2.792735      0.233542     -0.632412
 ------------------------------------------------------------------------------
 One-electron integrals computed using PRISM.
   1 Symmetry operations used in ECPInt.
 ECPInt:  NShTT=    2346 NPrTT=    9184 LenC2=    2269 LenP2D=    6743.
 LDataN:  DoStor=T MaxTD1= 4 Len=   56
 NBasis=   150 RedAO= T EigKep=  5.13D-03  NBF=   150
 NBsUse=   150 1.00D-06 EigRej= -1.00D+00 NBFU=   150
 ExpMin= 1.22D-01 ExpMax= 9.18D+03 ExpMxC= 1.38D+03 IAcc=1 IRadAn=         1 AccDes= 0.00D+00
 Harris functional with IExCor= 1009 and IRadAn=       1 diagonalized for initial guess.
 HarFok:  IExCor= 1009 AccDes= 0.00D+00 IRadAn=         1 IDoV= 1 UseB2=F ITyADJ=14
 ICtDFT=  3500011 ScaDFX=  1.000000  1.000000  1.000000  1.000000
 FoFCou: FMM=F IPFlag=           0 FMFlag=      100000 FMFlg1=           0
         NFxFlg=           0 DoJE=T BraDBF=F KetDBF=T FulRan=T
         wScrn=  0.000000 ICntrl=     500 IOpCl=  0 I1Cent=   200000004 NGrid=           0
         NMat0=    1 NMatS0=      1 NMatT0=    0 NMatD0=    1 NMtDS0=    0 NMtDT0=    0
 Petite list used in FoFCou.
 Requested convergence on RMS density matrix=1.00D-08 within 128 cycles.
 Requested convergence on MAX density matrix=1.00D-06.
 Requested convergence on             energy=1.00D-06.
 No special actions if energy rises.
 Inv3:  Mode=1 IEnd=     5459403.
 Iteration    1 A*A^-1 deviation from unit magnitude is 4.00D-15 for   1266.
 Iteration    1 A*A^-1 deviation from orthogonality  is 4.65D-15 for   1330    757.
 Iteration    1 A^-1*A deviation from unit magnitude is 3.55D-15 for   1266.
 Iteration    1 A^-1*A deviation from orthogonality  is 3.35D-15 for   1330    757.
 Error on total polarization charges =  0.00397
 SCF Done:  E(RM062X) =  -944.001128151     A.U. after   14 cycles
            NFock= 14  Conv=0.99D-08     -V/T= 2.0047
 DoSCS=F DFT=T ScalE2(SS,OS)=  1.000000  1.000000
 Range of M.O.s used for correlation:     1   150
 NBasis=   150 NAE=    41 NBE=    41 NFC=     0 NFV=     0
 NROrb=    150 NOA=    41 NOB=    41 NVA=   109 NVB=   109
   1 Symmetry operations used in ECPInt.
 ECPInt:  NShTT=    2346 NPrTT=    9184 LenC2=    2269 LenP2D=    6743.
 LDataN:  DoStor=T MaxTD1= 5 Len=  102
 Symmetrizing basis deriv contribution to polar:
 IMax=3 JMax=2 DiffMx= 0.00D+00
 G2DrvN: will do    14 centers at a time, making    1 passes.
 Calling FoFCou, ICntrl=  3107 FMM=F I1Cent=   0 AccDes= 0.00D+00.
 NEqPCM:  Using equilibrium solvation (IEInf=0, Eps=  36.5620, EpsInf=   1.9091)
 G2PCM: DoFxE=T DoFxN=T DoGrad=T DoDP/DQ/DG/TGxP=FFFF NFrqRd=   0 IEInf=0 SqF1=F DoCFld=F IF1Alg=4.
 End of G2Drv F.D. properties file   721 does not exist.
 End of G2Drv F.D. properties file   722 does not exist.
 End of G2Drv F.D. properties file   788 does not exist.
          IDoAtm=1111111111111
 NEqPCM:  Using equilibrium solvation (IEInf=0, Eps=  36.5620, EpsInf=   1.9091)
          Differentiating once with respect to electric field.
                with respect to dipole field.
          Differentiating once with respect to nuclear coordinates.
          There are    42 degrees of freedom in the 1st order CPHF.  IDoFFX=6 NUNeed=     3.
     39 vectors produced by pass  0 Test12= 1.06D-14 2.38D-09 XBig12= 4.39D+01 3.92D+00.
 AX will form    39 AO Fock derivatives at one time.
     39 vectors produced by pass  1 Test12= 1.06D-14 2.38D-09 XBig12= 6.67D+00 4.43D-01.
     39 vectors produced by pass  2 Test12= 1.06D-14 2.38D-09 XBig12= 1.44D-01 6.31D-02.
     39 vectors produced by pass  3 Test12= 1.06D-14 2.38D-09 XBig12= 1.73D-03 5.38D-03.
     39 vectors produced by pass  4 Test12= 1.06D-14 2.38D-09 XBig12= 1.88D-05 5.55D-04.
     39 vectors produced by pass  5 Test12= 1.06D-14 2.38D-09 XBig12= 8.39D-08 3.61D-05.
     32 vectors produced by pass  6 Test12= 1.06D-14 2.38D-09 XBig12= 2.61D-10 1.63D-06.
      5 vectors produced by pass  7 Test12= 1.06D-14 2.38D-09 XBig12= 7.18D-13 1.04D-07.
      3 vectors produced by pass  8 Test12= 1.06D-14 2.38D-09 XBig12= 1.79D-15 5.07D-09.
 InvSVY:  IOpt=1 It=  1 EMax= 4.44D-15
 Solved reduced A of dimension   274 with    42 vectors.
 Isotropic polarizability for W=    0.000000       71.54 Bohr**3.
 End of Minotr F.D. properties file   721 does not exist.
 End of Minotr F.D. properties file   722 does not exist.
 End of Minotr F.D. properties file   788 does not exist.

 **********************************************************************

            Population analysis using the SCF density.

 **********************************************************************

 Orbital symmetries:
       Occupied  (A) (A) (A) (A) (A) (A) (A) (A) (A) (A) (A) (A)
                 (A) (A) (A) (A) (A) (A) (A) (A) (A) (A) (A) (A)
                 (A) (A) (A) (A) (A) (A) (A) (A) (A) (A) (A) (A)
                 (A) (A) (A) (A) (A)
       Virtual   (A) (A) (A) (A) (A) (A) (A) (A) (A) (A) (A) (A)
                 (A) (A) (A) (A) (A) (A) (A) (A) (A) (A) (A) (A)
                 (A) (A) (A) (A) (A) (A) (A) (A) (A) (A) (A) (A)
                 (A) (A) (A) (A) (A) (A) (A) (A) (A) (A) (A) (A)
                 (A) (A) (A) (A) (A) (A) (A) (A) (A) (A) (A) (A)
                 (A) (A) (A) (A) (A) (A) (A) (A) (A) (A) (A) (A)
                 (A) (A) (A) (A) (A) (A) (A) (A) (A) (A) (A) (A)
                 (A) (A) (A) (A) (A) (A) (A) (A) (A) (A) (A) (A)
                 (A) (A) (A) (A) (A) (A) (A) (A) (A) (A) (A) (A)
                 (A)
 The electronic state is 1-A.
 Alpha  occ. eigenvalues --  -90.16109 -19.64821 -19.64236 -19.63545 -19.63272
 Alpha  occ. eigenvalues --  -19.61256 -19.61127 -14.97654 -10.54922  -8.48751
 Alpha  occ. eigenvalues --   -6.41278  -6.41211  -6.41141  -1.32096  -1.27772
 Alpha  occ. eigenvalues --   -1.13395  -1.11946  -1.11346  -1.10368  -0.89235
 Alpha  occ. eigenvalues --   -0.73328  -0.66796  -0.65403  -0.61174  -0.58591
 Alpha  occ. eigenvalues --   -0.58095  -0.57403  -0.56592  -0.50557  -0.49423
 Alpha  occ. eigenvalues --   -0.47173  -0.44341  -0.42171  -0.41997  -0.40181
 Alpha  occ. eigenvalues --   -0.37825  -0.36678  -0.36378  -0.36114  -0.34819
 Alpha  occ. eigenvalues --   -0.28441
 Alpha virt. eigenvalues --    0.00477   0.14103   0.17349   0.17752   0.18773
 Alpha virt. eigenvalues --    0.20847   0.21956   0.23229   0.25872   0.27946
 Alpha virt. eigenvalues --    0.35255   0.40484   0.42681   0.48309   0.54670
 Alpha virt. eigenvalues --    0.55746   0.58807   0.61367   0.69100   0.70558
 Alpha virt. eigenvalues --    0.70682   0.71817   0.72409   0.73181   0.74238
 Alpha virt. eigenvalues --    0.78369   0.80631   0.85176   0.91431   0.92902
 Alpha virt. eigenvalues --    0.94780   0.97836   0.98648   1.00594   1.01490
 Alpha virt. eigenvalues --    1.03943   1.07420   1.08206   1.09148   1.10547
 Alpha virt. eigenvalues --    1.13292   1.13913   1.16015   1.16319   1.19899
 Alpha virt. eigenvalues --    1.22000   1.25008   1.29671   1.30878   1.33000
 Alpha virt. eigenvalues --    1.35929   1.36941   1.38063   1.43134   1.46559
 Alpha virt. eigenvalues --    1.49318   1.53349   1.57242   1.62108   1.66775
 Alpha virt. eigenvalues --    1.68884   1.70571   1.74700   1.79851   1.82920
 Alpha virt. eigenvalues --    1.85216   1.90934   2.02223   2.07758   2.16475
 Alpha virt. eigenvalues --    2.22420   2.28041   2.39644   2.41526   2.50785
 Alpha virt. eigenvalues --    2.58494   2.63203   2.64004   2.69046   2.70246
 Alpha virt. eigenvalues --    2.70569   2.71335   2.72040   2.72927   2.73666
 Alpha virt. eigenvalues --    2.78097   2.82434   2.83952   2.87792   2.90470
 Alpha virt. eigenvalues --    2.91800   2.94426   2.97664   3.01733   3.02939
 Alpha virt. eigenvalues --    3.05104   3.06585   3.13105   3.19314   3.25165
 Alpha virt. eigenvalues --    3.27270   3.34270   3.41373   3.48743   3.50053
 Alpha virt. eigenvalues --    3.68133   3.71900   3.82124   3.85237
          Condensed to atoms (all electrons):
               1          2          3          4          5          6
     1  N    5.836906   0.313509   0.226712   0.394810  -0.015283  -0.017004
     2  O    0.313509   8.216915  -0.106947  -0.078290   0.003631   0.005241
     3  O    0.226712  -0.106947   8.345676  -0.089701   0.002963   0.005914
     4  C    0.394810  -0.078290  -0.089701   5.257405   0.360934   0.376507
     5  H   -0.015283   0.003631   0.002963   0.360934   0.578761  -0.021730
     6  H   -0.017004   0.005241   0.005914   0.376507  -0.021730   0.581828
     7  H    0.004032  -0.001635   0.000624   0.130210  -0.002726   0.001282
     8  O    0.001904  -0.000027  -0.044904  -0.001868  -0.000110  -0.000001
     9  H   -0.011061   0.001233   0.099221   0.002103  -0.000102  -0.000061
    10  S   -0.000184   0.000012   0.001856   0.017788   0.002281  -0.000010
    11  O   -0.000347   0.000116   0.000454  -0.114578  -0.000861   0.000605
    12  O   -0.000168  -0.000001  -0.000144  -0.009636   0.015878   0.000263
    13  O   -0.000004   0.000000  -0.000004  -0.000157   0.000121   0.000002
               7          8          9         10         11         12
     1  N    0.004032   0.001904  -0.011061  -0.000184  -0.000347  -0.000168
     2  O   -0.001635  -0.000027   0.001233   0.000012   0.000116  -0.000001
     3  O    0.000624  -0.044904   0.099221   0.001856   0.000454  -0.000144
     4  C    0.130210  -0.001868   0.002103   0.017788  -0.114578  -0.009636
     5  H   -0.002726  -0.000110  -0.000102   0.002281  -0.000861   0.015878
     6  H    0.001282  -0.000001  -0.000061  -0.000010   0.000605   0.000263
     7  H    0.370982   0.008241  -0.001514  -0.025013   0.246423   0.007553
     8  O    0.008241   8.076656   0.290005   0.294548  -0.054617  -0.056006
     9  H   -0.001514   0.290005   0.363350  -0.012598   0.008189   0.005123
    10  S   -0.025013   0.294548  -0.012598  13.281607   0.310999   0.470960
    11  O    0.246423  -0.054617   0.008189   0.310999   8.186137  -0.055790
    12  O    0.007553  -0.056006   0.005123   0.470960  -0.055790   8.224690
    13  O    0.000771  -0.050741   0.001323   0.500783  -0.048471  -0.048755
              13
     1  N   -0.000004
     2  O    0.000000
     3  O   -0.000004
     4  C   -0.000157
     5  H    0.000121
     6  H    0.000002
     7  H    0.000771
     8  O   -0.050741
     9  H    0.001323
    10  S    0.500783
    11  O   -0.048471
    12  O   -0.048755
    13  O    8.190945
 Mulliken charges:
               1
     1  N    0.266179
     2  O   -0.353759
     3  O   -0.441718
     4  C   -0.245526
     5  H    0.076242
     6  H    0.067165
     7  H    0.260769
     8  O   -0.463078
     9  H    0.254789
    10  S    1.156973
    11  O   -0.478259
    12  O   -0.553965
    13  O   -0.545813
 Sum of Mulliken charges =  -1.00000
 Mulliken charges with hydrogens summed into heavy atoms:
               1
     1  N    0.266179
     2  O   -0.353759
     3  O   -0.441718
     4  C   -0.102119
     8  O   -0.208289
    10  S    1.156973
    11  O   -0.217490
    12  O   -0.553965
    13  O   -0.545813
 APT charges:
               1
     1  N    1.847137
     2  O   -1.045346
     3  O   -1.126988
     4  C   -0.866444
     5  H    0.159471
     6  H    0.102398
     7  H    0.938067
     8  O   -1.215673
     9  H    0.766538
    10  S    3.109241
    11  O   -1.487476
    12  O   -1.088739
    13  O   -1.092186
 Sum of APT charges =  -1.00000
 APT charges with hydrogens summed into heavy atoms:
               1
     1  N    1.847137
     2  O   -1.045346
     3  O   -1.126988
     4  C   -0.604575
     8  O   -0.449135
    10  S    3.109241
    11  O   -0.549408
    12  O   -1.088739
    13  O   -1.092186
 Electronic spatial extent (au):  <R**2>=           1506.5254
 Charge=             -1.0000 electrons
 Dipole moment (field-independent basis, Debye):
    X=             -1.6894    Y=             -1.8196    Z=              0.9173  Tot=              2.6470
 Quadrupole moment (field-independent basis, Debye-Ang):
   XX=            -92.8796   YY=            -64.5176   ZZ=            -66.0934
   XY=              4.1118   XZ=             -2.0499   YZ=              0.2229
 Traceless Quadrupole moment (field-independent basis, Debye-Ang):
   XX=            -18.3828   YY=              9.9793   ZZ=              8.4035
   XY=              4.1118   XZ=             -2.0499   YZ=              0.2229
 Octapole moment (field-independent basis, Debye-Ang**2):
  XXX=             18.3767  YYY=             -2.7062  ZZZ=             -3.5401  XYY=             -0.7277
  XXY=            -10.4812  XXZ=             17.6307  XZZ=             -5.9322  YZZ=              6.2974
  YYZ=             -1.1355  XYZ=              4.4292
 Hexadecapole moment (field-independent basis, Debye-Ang**3):
 XXXX=          -1647.3897 YYYY=           -276.5626 ZZZZ=           -194.1481 XXXY=              4.1642
 XXXZ=            -16.5784 YYYX=              0.8335 YYYZ=              0.9510 ZZZX=             -3.1412
 ZZZY=              2.6878 XXYY=           -272.7099 XXZZ=           -274.7835 YYZZ=            -80.4668
 XXYZ=              7.2404 YYXZ=              2.0481 ZZXY=              3.1929
 N-N= 6.270250549843D+02 E-N=-3.498533230820D+03  KE= 9.395760394005D+02
  Exact polarizability:  95.011  -2.176  66.918   4.526  -0.998  52.686
 Approx polarizability:  90.819  -2.785  69.750   4.810   0.276  58.279
 ******************************Gaussian NBO Version 3.1******************************
             N A T U R A L   A T O M I C   O R B I T A L   A N D
          N A T U R A L   B O N D   O R B I T A L   A N A L Y S I S
 ******************************Gaussian NBO Version 3.1******************************
       /RESON  / : Allow strongly delocalized NBO set

 Analyzing the SCF density

 Job title: MeNO2+SO4-2 TS3 freq                                            

 Storage needed:     68184 in NPA,     90637 in NBO (  33553457 available)


 NATURAL POPULATIONS:  Natural atomic orbital occupancies 
                                                          
   NAO  Atom  No  lang   Type(AO)    Occupancy      Energy
 ----------------------------------------------------------
     1    N    1  S      Cor( 1S)     1.99930     -14.83087
     2    N    1  S      Val( 2S)     1.06314      -0.50075
     3    N    1  S      Ryd( 3S)     0.00579       0.82772
     4    N    1  px     Val( 2p)     1.08190      -0.27906
     5    N    1  px     Ryd( 3p)     0.01052       0.94455
     6    N    1  py     Val( 2p)     1.17468      -0.30528
     7    N    1  py     Ryd( 3p)     0.01090       1.04521
     8    N    1  pz     Val( 2p)     1.11973      -0.29749
     9    N    1  pz     Ryd( 3p)     0.00473       0.88093
    10    N    1  dxy    Ryd( 3d)     0.00418       2.69585
    11    N    1  dxz    Ryd( 3d)     0.00218       2.64278
    12    N    1  dyz    Ryd( 3d)     0.00344       2.42542
    13    N    1  dx2y2  Ryd( 3d)     0.00362       2.71457
    14    N    1  dz2    Ryd( 3d)     0.00328       2.46100

    15    O    2  S      Cor( 1S)     1.99975     -19.42147
    16    O    2  S      Val( 2S)     1.71695      -0.93215
    17    O    2  S      Ryd( 3S)     0.00312       1.27606
    18    O    2  px     Val( 2p)     1.36906      -0.28613
    19    O    2  px     Ryd( 3p)     0.00166       1.08535
    20    O    2  py     Val( 2p)     1.91327      -0.35608
    21    O    2  py     Ryd( 3p)     0.00332       1.12737
    22    O    2  pz     Val( 2p)     1.44983      -0.29493
    23    O    2  pz     Ryd( 3p)     0.00214       1.07839
    24    O    2  dxy    Ryd( 3d)     0.00119       2.94092
    25    O    2  dxz    Ryd( 3d)     0.00159       3.20235
    26    O    2  dyz    Ryd( 3d)     0.00048       2.80485
    27    O    2  dx2y2  Ryd( 3d)     0.00138       3.04830
    28    O    2  dz2    Ryd( 3d)     0.00160       2.83211

    29    O    3  S      Cor( 1S)     1.99975     -19.44443
    30    O    3  S      Val( 2S)     1.71601      -0.93615
    31    O    3  S      Ryd( 3S)     0.00344       1.34807
    32    O    3  px     Val( 2p)     1.70182      -0.33586
    33    O    3  px     Ryd( 3p)     0.00252       1.38499
    34    O    3  py     Val( 2p)     1.47042      -0.30597
    35    O    3  py     Ryd( 3p)     0.00196       1.13046
    36    O    3  pz     Val( 2p)     1.69055      -0.33513
    37    O    3  pz     Ryd( 3p)     0.00240       1.07879
    38    O    3  dxy    Ryd( 3d)     0.00142       3.05834
    39    O    3  dxz    Ryd( 3d)     0.00023       2.80043
    40    O    3  dyz    Ryd( 3d)     0.00165       2.93328
    41    O    3  dx2y2  Ryd( 3d)     0.00107       3.10554
    42    O    3  dz2    Ryd( 3d)     0.00067       2.90060

    43    C    4  S      Cor( 1S)     1.99926     -10.44006
    44    C    4  S      Val( 2S)     1.10869      -0.25028
    45    C    4  S      Ryd( 3S)     0.00448       0.82208
    46    C    4  px     Val( 2p)     1.23554      -0.10535
    47    C    4  px     Ryd( 3p)     0.00858       0.70046
    48    C    4  py     Val( 2p)     0.93934      -0.05143
    49    C    4  py     Ryd( 3p)     0.00689       0.59744
    50    C    4  pz     Val( 2p)     1.27910      -0.10717
    51    C    4  pz     Ryd( 3p)     0.00600       0.62906
    52    C    4  dxy    Ryd( 3d)     0.00121       2.37773
    53    C    4  dxz    Ryd( 3d)     0.00023       2.31605
    54    C    4  dyz    Ryd( 3d)     0.00072       2.11630
    55    C    4  dx2y2  Ryd( 3d)     0.00034       2.27852
    56    C    4  dz2    Ryd( 3d)     0.00065       2.29703

    57    H    5  S      Val( 1S)     0.76033       0.09508
    58    H    5  S      Ryd( 2S)     0.00240       0.41040
    59    H    5  px     Ryd( 2p)     0.00035       1.94926
    60    H    5  py     Ryd( 2p)     0.00008       1.80351
    61    H    5  pz     Ryd( 2p)     0.00068       2.27495

    62    H    6  S      Val( 1S)     0.77224       0.10151
    63    H    6  S      Ryd( 2S)     0.00151       0.36090
    64    H    6  px     Ryd( 2p)     0.00034       1.99322
    65    H    6  py     Ryd( 2p)     0.00052       2.18046
    66    H    6  pz     Ryd( 2p)     0.00010       1.80523

    67    H    7  S      Val( 1S)     0.51892       0.09615
    68    H    7  S      Ryd( 2S)     0.00330       0.52058
    69    H    7  px     Ryd( 2p)     0.00177       2.25038
    70    H    7  py     Ryd( 2p)     0.00075       1.74013
    71    H    7  pz     Ryd( 2p)     0.00080       1.92593

    72    O    8  S      Cor( 1S)     1.99974     -19.46557
    73    O    8  S      Val( 2S)     1.74402      -1.03335
    74    O    8  S      Ryd( 3S)     0.00187       1.50386
    75    O    8  px     Val( 2p)     1.65081      -0.40195
    76    O    8  px     Ryd( 3p)     0.00112       1.31358
    77    O    8  py     Val( 2p)     1.66327      -0.41949
    78    O    8  py     Ryd( 3p)     0.00092       1.13402
    79    O    8  pz     Val( 2p)     1.91284      -0.40838
    80    O    8  pz     Ryd( 3p)     0.00039       1.10043
    81    O    8  dxy    Ryd( 3d)     0.00116       3.02940
    82    O    8  dxz    Ryd( 3d)     0.00016       2.87568
    83    O    8  dyz    Ryd( 3d)     0.00117       2.76992
    84    O    8  dx2y2  Ryd( 3d)     0.00109       3.19952
    85    O    8  dz2    Ryd( 3d)     0.00064       3.01164

    86    H    9  S      Val( 1S)     0.45943       0.14489
    87    H    9  S      Ryd( 2S)     0.00452       0.49743
    88    H    9  px     Ryd( 2p)     0.00223       2.58654
    89    H    9  py     Ryd( 2p)     0.00091       1.83056
    90    H    9  pz     Ryd( 2p)     0.00105       1.74088

    91    S   10  S      Cor( 1S)     1.99999     -89.23234
    92    S   10  S      Cor( 2S)     1.99939      -9.21680
    93    S   10  S      Val( 3S)     0.92896      -0.48884
    94    S   10  S      Ryd( 4S)     0.00276       0.50813
    95    S   10  px     Cor( 2p)     1.99991      -6.39808
    96    S   10  px     Val( 3p)     0.73685      -0.13552
    97    S   10  px     Ryd( 4p)     0.01443       0.81752
    98    S   10  py     Cor( 2p)     1.99989      -6.40001
    99    S   10  py     Val( 3p)     0.75189      -0.14835
   100    S   10  py     Ryd( 4p)     0.01369       0.78041
   101    S   10  pz     Cor( 2p)     1.99993      -6.39732
   102    S   10  pz     Val( 3p)     0.72566      -0.11885
   103    S   10  pz     Ryd( 4p)     0.01998       0.77628
   104    S   10  dxy    Ryd( 3d)     0.04148       0.89534
   105    S   10  dxz    Ryd( 3d)     0.04377       0.92808
   106    S   10  dyz    Ryd( 3d)     0.03498       0.92054
   107    S   10  dx2y2  Ryd( 3d)     0.02881       0.89213
   108    S   10  dz2    Ryd( 3d)     0.03881       0.93693

   109    O   11  S      Cor( 1S)     1.99976     -19.45185
   110    O   11  S      Val( 2S)     1.76041      -1.03902
   111    O   11  S      Ryd( 3S)     0.00206       1.49534
   112    O   11  px     Val( 2p)     1.65960      -0.39822
   113    O   11  px     Ryd( 3p)     0.00093       1.32394
   114    O   11  py     Val( 2p)     1.79851      -0.40219
   115    O   11  py     Ryd( 3p)     0.00061       1.15641
   116    O   11  pz     Val( 2p)     1.76894      -0.41477
   117    O   11  pz     Ryd( 3p)     0.00039       1.13813
   118    O   11  dxy    Ryd( 3d)     0.00027       2.94285
   119    O   11  dxz    Ryd( 3d)     0.00112       3.12535
   120    O   11  dyz    Ryd( 3d)     0.00105       2.91374
   121    O   11  dx2y2  Ryd( 3d)     0.00041       2.97553
   122    O   11  dz2    Ryd( 3d)     0.00119       2.81591

   123    O   12  S      Cor( 1S)     1.99977     -19.39166
   124    O   12  S      Val( 2S)     1.80794      -1.05020
   125    O   12  S      Ryd( 3S)     0.00191       1.67049
   126    O   12  px     Val( 2p)     1.81048      -0.34865
   127    O   12  px     Ryd( 3p)     0.00036       1.17382
   128    O   12  py     Val( 2p)     1.76434      -0.35963
   129    O   12  py     Ryd( 3p)     0.00037       1.12659
   130    O   12  pz     Val( 2p)     1.60432      -0.39194
   131    O   12  pz     Ryd( 3p)     0.00022       1.06948
   132    O   12  dxy    Ryd( 3d)     0.00034       2.75338
   133    O   12  dxz    Ryd( 3d)     0.00139       2.85911
   134    O   12  dyz    Ryd( 3d)     0.00151       3.03247
   135    O   12  dx2y2  Ryd( 3d)     0.00031       2.75779
   136    O   12  dz2    Ryd( 3d)     0.00171       3.07640

   137    O   13  S      Cor( 1S)     1.99977     -19.39075
   138    O   13  S      Val( 2S)     1.80242      -1.05020
   139    O   13  S      Ryd( 3S)     0.00224       1.62119
   140    O   13  px     Val( 2p)     1.60409      -0.39192
   141    O   13  px     Ryd( 3p)     0.00021       1.06060
   142    O   13  py     Val( 2p)     1.79704      -0.35139
   143    O   13  py     Ryd( 3p)     0.00056       1.12992
   144    O   13  pz     Val( 2p)     1.76748      -0.36009
   145    O   13  pz     Ryd( 3p)     0.00030       1.12140
   146    O   13  dxy    Ryd( 3d)     0.00135       2.87123
   147    O   13  dxz    Ryd( 3d)     0.00144       3.03843
   148    O   13  dyz    Ryd( 3d)     0.00035       2.75704
   149    O   13  dx2y2  Ryd( 3d)     0.00135       2.99807
   150    O   13  dz2    Ryd( 3d)     0.00091       2.82191


 Summary of Natural Population Analysis:                  
                                                          
                                       Natural Population 
                Natural  -----------------------------------------------
    Atom  No    Charge         Core      Valence    Rydberg      Total
 -----------------------------------------------------------------------
      N    1    0.51260      1.99930     4.43945    0.04864     6.48740
      O    2   -0.46533      1.99975     6.44911    0.01648     8.46533
      O    3   -0.59393      1.99975     6.57880    0.01537     8.59393
      C    4   -0.59103      1.99926     4.56267    0.02910     6.59103
      H    5    0.23616      0.00000     0.76033    0.00351     0.76384
      H    6    0.22529      0.00000     0.77224    0.00246     0.77471
      H    7    0.47446      0.00000     0.51892    0.00662     0.52554
      O    8   -0.97919      1.99974     6.97094    0.00851     8.97919
      H    9    0.53186      0.00000     0.45943    0.00871     0.46814
      S   10    2.61882      9.99912     3.14336    0.23870    13.38118
      O   11   -0.99526      1.99976     6.98746    0.00804     8.99526
      O   12   -0.99497      1.99977     6.98708    0.00811     8.99497
      O   13   -0.97949      1.99977     6.97102    0.00870     8.97949
 =======================================================================
   * Total *   -1.00000     25.99621    55.60083    0.40296    82.00000

                                 Natural Population      
 --------------------------------------------------------
   Core                      25.99621 ( 99.9854% of  26)
   Valence                   55.60083 ( 99.2872% of  56)
   Natural Minimal Basis     81.59704 ( 99.5086% of  82)
   Natural Rydberg Basis      0.40296 (  0.4914% of  82)
 --------------------------------------------------------

    Atom  No          Natural Electron Configuration
 ----------------------------------------------------------------------------
      N    1      [core]2S( 1.06)2p( 3.38)3S( 0.01)3p( 0.03)3d( 0.02)
      O    2      [core]2S( 1.72)2p( 4.73)3p( 0.01)3d( 0.01)
      O    3      [core]2S( 1.72)2p( 4.86)3p( 0.01)3d( 0.01)
      C    4      [core]2S( 1.11)2p( 3.45)3p( 0.02)
      H    5            1S( 0.76)
      H    6            1S( 0.77)
      H    7            1S( 0.52)
      O    8      [core]2S( 1.74)2p( 5.23)
      H    9            1S( 0.46)
      S   10      [core]3S( 0.93)3p( 2.21)3d( 0.19)4p( 0.05)
      O   11      [core]2S( 1.76)2p( 5.23)
      O   12      [core]2S( 1.81)2p( 5.18)3d( 0.01)
      O   13      [core]2S( 1.80)2p( 5.17)3d( 0.01)


 NATURAL BOND ORBITAL ANALYSIS:

                       Occupancies       Lewis Structure    Low   High
           Occ.    -------------------  -----------------   occ   occ
  Cycle   Thresh.   Lewis   Non-Lewis     CR  BD  3C  LP    (L)   (NL)   Dev
 =============================================================================
   1(1)    1.90    78.68838   3.31162     13  16   0  12     8     13    0.87
   2(2)    1.90    78.98478   3.01522     13  17   0  11     9     13    0.54
   3(3)    1.90    79.20937   2.79063     13  15   0  13     9     11    0.31
   4(4)    1.90    79.20937   2.79063     13  15   0  13     9     11    0.31
   5(1)    1.80    79.57336   2.42664     13  12   0  16     2      7    0.31
   6(2)    1.80    79.49703   2.50297     13  14   0  14     1      7    0.47
   7(3)    1.80    79.57336   2.42664     13  12   0  16     2      7    0.31
   8(1)    1.70    79.37569   2.62431     13  13   0  15     2      7    0.42
   9(2)    1.70    79.57336   2.42664     13  12   0  16     2      7    0.31
  10(3)    1.70    79.37569   2.62431     13  13   0  15     2      7    0.42
  11(4)    1.70    79.49703   2.50297     13  14   0  14     1      7    0.47
  12(5)    1.70    79.57336   2.42664     13  12   0  16     2      7    0.31
  13(1)    1.60    79.22730   2.77270     13  11   0  17     0      7    0.54
  14(2)    1.60    79.22730   2.77270     13  11   0  17     0      7    0.54
  15(1)    1.50    78.87300   3.12700     13  10   0  18     0      7    0.54
  16(2)    1.50    78.87300   3.12700     13  10   0  18     0      7    0.54
  17(1)    1.80    79.57336   2.42664     13  12   0  16     2      7    0.31
 -----------------------------------------------------------------------------

 Structure accepted: RESONANCE keyword permits strongly delocalized structure

 --------------------------------------------------------
   Core                     25.99620 ( 99.985% of  26)
   Valence Lewis            53.57716 ( 95.674% of  56)
  ==================       ============================
   Total Lewis              79.57336 ( 97.041% of  82)
  -----------------------------------------------------
   Valence non-Lewis         2.03610 (  2.483% of  82)
   Rydberg non-Lewis         0.39054 (  0.476% of  82)
  ==================       ============================
   Total non-Lewis           2.42664 (  2.959% of  82)
 --------------------------------------------------------


       (Occupancy)   Bond orbital/ Coefficients/ Hybrids
 ---------------------------------------------------------------------------------
     1. (1.99620) BD ( 1) N   1 - O   2  
                ( 48.28%)   0.6949* N   1 s( 30.38%)p 2.29( 69.48%)d 0.00(  0.14%)
                                            0.0000 -0.5500 -0.0361  0.7090 -0.0455
                                           -0.0559  0.0145  0.4313 -0.0277  0.0036
                                           -0.0287  0.0015 -0.0229  0.0022
                ( 51.72%)   0.7192* O   2 s( 28.74%)p 2.47( 71.11%)d 0.01(  0.15%)
                                            0.0000 -0.5341  0.0457 -0.7043  0.0244
                                            0.0220  0.0043 -0.4623  0.0164  0.0010
                                           -0.0302  0.0005 -0.0252  0.0013
     2. (1.99181) BD ( 2) N   1 - O   2  
                ( 36.45%)   0.6038* N   1 s(  0.09%)p99.99( 99.56%)d 3.85(  0.35%)
                                            0.0000  0.0297  0.0054 -0.4993 -0.0188
                                            0.0328 -0.0026  0.8628  0.0218 -0.0012
                                           -0.0244  0.0030  0.0258 -0.0472
                ( 63.55%)   0.7972* O   2 s(  0.01%)p 1.00( 99.80%)d 0.00(  0.19%)
                                            0.0000 -0.0088 -0.0002 -0.5431  0.0053
                                            0.0169  0.0014  0.8383 -0.0087  0.0012
                                            0.0183 -0.0011 -0.0203  0.0345
     3. (1.99453) BD ( 1) N   1 - O   3  
                ( 47.25%)   0.6874* N   1 s( 28.08%)p 2.56( 71.77%)d 0.01(  0.15%)
                                            0.0000  0.5293  0.0241  0.3690 -0.0045
                                            0.7427 -0.0451  0.1664 -0.0103  0.0276
                                            0.0034  0.0095 -0.0155 -0.0210
                ( 52.75%)   0.7263* O   3 s( 26.03%)p 2.84( 73.82%)d 0.01(  0.15%)
                                            0.0000  0.5087  0.0387 -0.2361 -0.0192
                                           -0.7107 -0.0220 -0.4199 -0.0121  0.0190
                                            0.0073  0.0238 -0.0206 -0.0106
     4. (1.99444) BD ( 1) N   1 - C   4  
                ( 65.59%)   0.8098* N   1 s( 41.34%)p 1.42( 58.64%)d 0.00(  0.02%)
                                            0.0000 -0.6418  0.0390 -0.3280 -0.0189
                                            0.6636  0.0263 -0.1933 -0.0087  0.0102
                                           -0.0020  0.0049  0.0070  0.0055
                ( 34.41%)   0.5866* C   4 s( 24.03%)p 3.15( 75.81%)d 0.01(  0.16%)
                                           -0.0002 -0.4885 -0.0418  0.4372  0.0449
                                           -0.7358 -0.0681  0.1367  0.0156  0.0294
                                           -0.0056  0.0079  0.0166  0.0193
     5. (1.96693) BD ( 1) C   4 - H   5  
                ( 61.67%)   0.7853* C   4 s( 33.44%)p 1.99( 66.52%)d 0.00(  0.04%)
                                           -0.0004  0.5783 -0.0048  0.4656 -0.0035
                                            0.0203 -0.0250  0.6684  0.0260  0.0030
                                            0.0103  0.0080  0.0025  0.0131
                ( 38.33%)   0.6191* H   5 s( 99.90%)p 0.00(  0.10%)
                                            0.9995 -0.0028 -0.0148  0.0009 -0.0280
     6. (1.98194) BD ( 1) C   4 - H   6  
                ( 61.22%)   0.7824* C   4 s( 33.18%)p 2.01( 66.78%)d 0.00(  0.03%)
                                           -0.0003  0.5759  0.0123 -0.4317 -0.0042
                                           -0.6702 -0.0234 -0.1781  0.0030  0.0155
                                            0.0037  0.0023  0.0029 -0.0089
                ( 38.78%)   0.6227* H   6 s( 99.90%)p 0.00(  0.10%)
                                            0.9995 -0.0013  0.0174  0.0251  0.0043
     7. (1.96318) BD ( 1) H   7 - O  11  
                ( 16.26%)   0.4033* H   7 s( 99.50%)p 0.01(  0.50%)
                                           -0.9974 -0.0147 -0.0643 -0.0243  0.0174
                ( 83.74%)   0.9151* O  11 s( 29.56%)p 2.38( 70.39%)d 0.00(  0.05%)
                                           -0.0003 -0.5437  0.0025  0.7495  0.0061
                                            0.1752  0.0078 -0.3336  0.0097  0.0012
                                            0.0186 -0.0022 -0.0081 -0.0080
     8. (1.97880) BD ( 1) O   8 - H   9  
                ( 81.18%)   0.9010* O   8 s( 31.42%)p 2.18( 68.52%)d 0.00(  0.06%)
                                           -0.0002 -0.5605 -0.0068  0.8052  0.0176
                                            0.0709 -0.0156 -0.1769 -0.0032 -0.0164
                                            0.0075  0.0041 -0.0095  0.0114
                ( 18.82%)   0.4339* H   9 s( 99.55%)p 0.00(  0.45%)
                                           -0.9971  0.0346 -0.0652  0.0055  0.0152
     9. (1.98180) BD ( 1) O   8 - S  10  
                ( 69.89%)   0.8360* O   8 s( 24.20%)p 3.13( 75.72%)d 0.00(  0.08%)
                                            0.0000 -0.4919  0.0014 -0.3992 -0.0115
                                            0.7716 -0.0008  0.0486  0.0020  0.0118
                                            0.0005 -0.0004  0.0199  0.0150
                ( 30.11%)   0.5487* S  10 s( 21.31%)p 3.59( 76.48%)d 0.10(  2.21%)
                                            0.0000  0.0000 -0.4610 -0.0240  0.0000
                                            0.4171  0.0071  0.0000 -0.7629 -0.0525
                                            0.0000 -0.0775 -0.0012  0.1164  0.0071
                                           -0.0153  0.0528  0.0743
    10. (1.98184) BD ( 1) S  10 - O  11  
                ( 30.78%)   0.5548* S  10 s( 22.59%)p 3.33( 75.32%)d 0.09(  2.09%)
                                            0.0000  0.0000  0.4748  0.0221  0.0000
                                           -0.4799 -0.0145  0.0000 -0.4808 -0.0305
                                            0.0000 -0.5371 -0.0454  0.0766  0.0935
                                            0.0775  0.0161  0.0048
                ( 69.22%)   0.8320* O  11 s( 24.03%)p 3.16( 75.89%)d 0.00(  0.08%)
                                            0.0000  0.4902  0.0036  0.4909  0.0124
                                            0.4649  0.0048  0.5492  0.0001  0.0109
                                            0.0147  0.0191 -0.0016  0.0089
    11. (1.98394) BD ( 1) S  10 - O  12  
                ( 32.91%)   0.5736* S  10 s( 27.88%)p 2.53( 70.66%)d 0.05(  1.46%)
                                            0.0000  0.0000  0.5279 -0.0104  0.0000
                                            0.0299  0.0051  0.0000 -0.3673 -0.0314
                                            0.0000  0.7518  0.0683  0.0058 -0.0108
                                           -0.0799 -0.0208  0.0872
                ( 67.09%)   0.8191* O  12 s( 28.88%)p 2.46( 70.99%)d 0.00(  0.13%)
                                            0.0000  0.5368  0.0271  0.0073  0.0019
                                            0.3664  0.0016 -0.7586 -0.0032 -0.0003
                                            0.0006 -0.0242 -0.0059  0.0255
    12. (1.98559) BD ( 1) S  10 - O  13  
                ( 33.30%)   0.5770* S  10 s( 28.33%)p 2.48( 70.37%)d 0.05(  1.29%)
                                            0.0000 -0.0003  0.5316 -0.0278 -0.0001
                                            0.7547  0.0585  0.0000  0.1339  0.0114
                                            0.0000 -0.3344 -0.0288  0.0366 -0.0796
                                           -0.0164  0.0675 -0.0206
                ( 66.70%)   0.8167* O  13 s( 29.39%)p 2.40( 70.48%)d 0.00(  0.13%)
                                            0.0000  0.5414  0.0289 -0.7485 -0.0027
                                           -0.1485 -0.0017  0.3499  0.0032  0.0096
                                           -0.0229 -0.0043  0.0241 -0.0090
    13. (1.99930) CR ( 1) N   1           s(100.00%)
                                            1.0000  0.0000  0.0000  0.0000  0.0000
                                            0.0000  0.0000  0.0000  0.0000  0.0000
                                            0.0000  0.0000  0.0000  0.0000
    14. (1.99974) CR ( 1) O   2           s(100.00%)p 0.00(  0.00%)
                                            1.0000 -0.0004  0.0000  0.0002  0.0000
                                            0.0001  0.0000  0.0001  0.0000  0.0000
                                            0.0000  0.0000  0.0000  0.0000
    15. (1.99975) CR ( 1) O   3           s(100.00%)p 0.00(  0.00%)
                                            1.0000 -0.0001  0.0000  0.0000  0.0000
                                           -0.0001  0.0000  0.0000  0.0000  0.0000
                                            0.0000  0.0000  0.0000  0.0000
    16. (1.99926) CR ( 1) C   4           s(100.00%)p 0.00(  0.00%)
                                            1.0000  0.0003  0.0000  0.0001  0.0000
                                           -0.0003  0.0000  0.0002  0.0000  0.0000
                                            0.0000  0.0000  0.0000  0.0000
    17. (1.99974) CR ( 1) O   8           s(100.00%)p 0.00(  0.00%)
                                            1.0000 -0.0002  0.0000  0.0001  0.0000
                                            0.0000  0.0000  0.0000  0.0000  0.0000
                                            0.0000  0.0000  0.0000  0.0000
    18. (1.99999) CR ( 1) S  10           s(100.00%)
                                            1.0000  0.0000  0.0000  0.0000  0.0000
                                            0.0000  0.0000  0.0000  0.0000  0.0000
                                            0.0000  0.0000  0.0000  0.0000  0.0000
                                            0.0000  0.0000  0.0000
    19. (1.99939) CR ( 2) S  10           s(100.00%)p 0.00(  0.00%)
                                            0.0000  1.0000  0.0002  0.0000  0.0000
                                            0.0002  0.0000  0.0000  0.0000  0.0000
                                            0.0000 -0.0001  0.0000  0.0000  0.0000
                                            0.0000  0.0000  0.0000
    20. (1.99991) CR ( 3) S  10           s(  0.00%)p 1.00(100.00%)
                                            0.0000  0.0000  0.0001  0.0000  1.0000
                                            0.0001  0.0000  0.0000  0.0000  0.0000
                                            0.0000  0.0000  0.0000  0.0000  0.0000
                                            0.0000  0.0000  0.0000
    21. (1.99989) CR ( 4) S  10           s(  0.00%)p 1.00(100.00%)
                                            0.0000  0.0000  0.0000  0.0000  0.0000
                                            0.0000  0.0000  1.0000  0.0001  0.0000
                                            0.0000  0.0000  0.0000  0.0000  0.0000
                                            0.0000  0.0000  0.0000
    22. (1.99993) CR ( 5) S  10           s(  0.00%)p 1.00(100.00%)
                                            0.0000  0.0000  0.0000  0.0000  0.0000
                                            0.0000  0.0000  0.0000  0.0000  0.0000
                                            1.0000  0.0000  0.0000  0.0000  0.0000
                                            0.0000  0.0000  0.0000
    23. (1.99976) CR ( 1) O  11           s(100.00%)p 0.00(  0.00%)
                                            1.0000 -0.0003  0.0000  0.0002  0.0000
                                            0.0000  0.0000  0.0000  0.0000  0.0000
                                            0.0000  0.0000  0.0000  0.0000
    24. (1.99977) CR ( 1) O  12           s(100.00%)p 0.00(  0.00%)
                                            1.0000 -0.0003  0.0000  0.0001  0.0000
                                            0.0001  0.0000 -0.0002  0.0000  0.0000
                                            0.0000  0.0000  0.0000  0.0000
    25. (1.99977) CR ( 1) O  13           s(100.00%)p 0.00(  0.00%)
                                            1.0000 -0.0003  0.0000 -0.0002  0.0000
                                           -0.0001  0.0000  0.0002  0.0000  0.0000
                                            0.0000  0.0000  0.0000  0.0000
    26. (1.98238) LP ( 1) O   2           s( 71.40%)p 0.40( 28.59%)d 0.00(  0.01%)
                                            0.0005  0.8449  0.0140 -0.4515  0.0036
                                            0.0346  0.0000 -0.2843  0.0023  0.0006
                                           -0.0078  0.0005 -0.0049  0.0015
    27. (1.91543) LP ( 2) O   2           s(  0.03%)p99.99( 99.89%)d 2.66(  0.08%)
                                            0.0001  0.0173  0.0005 -0.0405 -0.0013
                                           -0.9986 -0.0088 -0.0059 -0.0005 -0.0239
                                           -0.0009 -0.0150 -0.0021 -0.0002
    28. (1.96538) LP ( 1) O   3           s( 48.13%)p 1.08( 51.84%)d 0.00(  0.03%)
                                            0.0002  0.6937 -0.0044 -0.2879  0.0064
                                            0.6519  0.0047 -0.1026  0.0025  0.0068
                                            0.0031 -0.0003  0.0142  0.0057
    29. (1.88360) LP ( 2) O   3           s( 25.91%)p 2.86( 74.05%)d 0.00(  0.04%)
                                            0.0001  0.5089 -0.0124  0.6613 -0.0070
                                           -0.1666  0.0092  0.5247  0.0014 -0.0099
                                           -0.0080 -0.0091 -0.0058 -0.0095
    30. (1.64028) LP ( 3) O   3           s(  0.09%)p99.99( 99.81%)d 1.09(  0.10%)
                                            0.0000  0.0247  0.0179 -0.6498  0.0061
                                           -0.1979 -0.0080  0.7325 -0.0080  0.0206
                                            0.0003 -0.0201 -0.0025 -0.0134
    31. (1.43295) LP ( 1) C   4           s(  9.42%)p 9.61( 90.53%)d 0.01(  0.05%)
                                            0.0000  0.3044 -0.0394  0.6317 -0.0533
                                            0.0429 -0.0115 -0.7071  0.0385  0.0092
                                            0.0011 -0.0190 -0.0046  0.0029
    32. (1.96088) LP ( 1) O   8           s( 44.27%)p 1.26( 55.68%)d 0.00(  0.04%)
                                            0.0001  0.6654  0.0012  0.3737 -0.0043
                                            0.6270 -0.0043 -0.1552  0.0012 -0.0145
                                            0.0006  0.0056  0.0125  0.0060
    33. (1.92387) LP ( 2) O   8           s(  0.08%)p99.99( 99.86%)d 0.70(  0.06%)
                                            0.0000  0.0288  0.0009  0.2267 -0.0035
                                            0.0745 -0.0005  0.9704 -0.0061 -0.0057
                                           -0.0034 -0.0228  0.0009  0.0033
    34. (1.95434) LP ( 1) O  11           s( 46.08%)p 1.17( 53.88%)d 0.00(  0.04%)
                                            0.0002  0.6788  0.0054  0.2133 -0.0054
                                           -0.1239 -0.0016 -0.6913  0.0013  0.0053
                                            0.0051 -0.0073  0.0028 -0.0165
    35. (1.90774) LP ( 2) O  11           s(  0.32%)p99.99( 99.62%)d 0.18(  0.06%)
                                            0.0000  0.0566  0.0006  0.3883 -0.0027
                                           -0.8585  0.0021  0.3293 -0.0001  0.0017
                                            0.0097 -0.0146  0.0110  0.0127
    36. (1.97843) LP ( 1) O  12           s( 71.16%)p 0.41( 28.84%)d 0.00(  0.01%)
                                            0.0004  0.8435 -0.0104  0.0137 -0.0001
                                           -0.2318 -0.0024  0.4842  0.0049  0.0003
                                           -0.0007  0.0052  0.0013 -0.0056
    37. (1.81635) LP ( 2) O  12           s(  0.01%)p 1.00( 99.90%)d 0.00(  0.09%)
                                            0.0000  0.0092  0.0001 -0.5077  0.0017
                                           -0.7759  0.0014 -0.3732  0.0003 -0.0072
                                            0.0132  0.0156  0.0103  0.0176
    38. (1.81061) LP ( 3) O  12           s(  0.02%)p99.99( 99.90%)d 5.63(  0.09%)
                                            0.0001  0.0125  0.0005 -0.8609  0.0030
                                            0.4569 -0.0005  0.2214 -0.0006 -0.0109
                                            0.0232 -0.0103 -0.0053 -0.0099
    39. (1.98052) LP ( 1) O  13           s( 70.68%)p 0.41( 29.32%)d 0.00(  0.01%)
                                            0.0004  0.8406 -0.0114  0.4872  0.0038
                                            0.0888  0.0012 -0.2187 -0.0027 -0.0020
                                            0.0049  0.0009 -0.0057  0.0022
    40. (1.81964) LP ( 2) O  13           s(  0.01%)p 1.00( 99.90%)d 0.00(  0.09%)
                                            0.0001  0.0088  0.0011 -0.4452  0.0011
                                            0.4386 -0.0009 -0.7800  0.0016 -0.0091
                                            0.0147  0.0091  0.0152 -0.0169
    41. (1.80374) LP ( 3) O  13           s(  0.00%)p 1.00( 99.91%)d 0.00(  0.09%)
                                            0.0000  0.0023  0.0000  0.0461  0.0000
                                            0.8813 -0.0027  0.4692 -0.0010 -0.0237
                                           -0.0119  0.0092  0.0039  0.0109
    42. (0.01281) RY*( 1) N   1           s(  3.53%)p25.89( 91.31%)d 1.46(  5.17%)
                                            0.0000 -0.0235  0.1863  0.0456  0.7684
                                            0.0170  0.2524  0.0331  0.5054 -0.1077
                                            0.1014 -0.0226  0.1483  0.0852
    43. (0.01102) RY*( 2) N   1           s( 13.78%)p 4.74( 65.27%)d 1.52( 20.95%)
                                            0.0000 -0.0517  0.3676  0.0052  0.1761
                                           -0.0394 -0.7870  0.0047  0.0261  0.3569
                                            0.0828  0.2545  0.1013  0.0168
    44. (0.00759) RY*( 3) N   1           s(  0.02%)p57.90(  0.89%)d99.99( 99.09%)
                                            0.0000 -0.0082  0.0094  0.0284  0.0093
                                           -0.0072 -0.0135 -0.0506  0.0725  0.0801
                                           -0.4186 -0.1830  0.4644 -0.7484
    45. (0.00327) RY*( 4) N   1           s(  4.86%)p 3.24( 15.72%)d16.36( 79.42%)
                                            0.0000 -0.0165  0.2197 -0.0064  0.1338
                                            0.0029 -0.3664  0.0013 -0.0712 -0.6023
                                           -0.2082 -0.4545 -0.4161 -0.0912
    46. (0.00274) RY*( 5) N   1           s(  0.04%)p99.99(  5.21%)d99.99( 94.76%)
                                            0.0000  0.0034  0.0188  0.0142 -0.1646
                                            0.0076 -0.0694 -0.0143  0.1403 -0.6357
                                           -0.0858  0.7020  0.2016 -0.0522
    47. (0.00198) RY*( 6) N   1           s(  0.66%)p 9.33(  6.12%)d99.99( 93.22%)
                                            0.0000  0.0001  0.0810  0.0208 -0.1382
                                            0.0080 -0.1125  0.0178 -0.1692 -0.2735
                                            0.3994 -0.3905  0.6924  0.2570
    48. (0.00026) RY*( 7) N   1           s( 20.02%)p 3.74( 74.90%)d 0.25(  5.09%)
                                            0.0000  0.0110  0.4473  0.0214 -0.5544
                                           -0.0191  0.0800 -0.0117  0.6590  0.0842
                                           -0.0407 -0.1695 -0.0637  0.0965
    49. (0.00014) RY*( 8) N   1           s( 54.61%)p 0.68( 36.95%)d 0.15(  8.44%)
                                            0.0000  0.0138  0.7389  0.0162  0.0193
                                           -0.0374  0.3875  0.0138 -0.4660  0.0065
                                            0.1459  0.1432 -0.0617 -0.1969
    50. (0.00002) RY*( 9) N   1           s(  2.62%)p 1.59(  4.17%)d35.61( 93.21%)
    51. (0.00339) RY*( 1) O   2           s(  0.02%)p99.99( 96.33%)d99.99(  3.65%)
                                            0.0000  0.0030  0.0139  0.0109  0.3679
                                           -0.0033  0.7918 -0.0073 -0.4481 -0.1243
                                            0.0484 -0.0839 -0.0699  0.0824
    52. (0.00310) RY*( 2) O   2           s(  1.52%)p62.59( 95.13%)d 2.20(  3.35%)
                                            0.0000 -0.0004  0.1233  0.0094  0.4340
                                            0.0019 -0.5778 -0.0104 -0.6549  0.0853
                                            0.0843  0.0442 -0.0332  0.1268
    53. (0.00121) RY*( 3) O   2           s( 70.80%)p 0.34( 24.41%)d 0.07(  4.79%)
                                            0.0000  0.0139  0.8413  0.0360  0.3390
                                           -0.0001  0.0241  0.0272  0.3557 -0.0635
                                            0.0845 -0.0393  0.1869  0.0172
    54. (0.00007) RY*( 4) O   2           s(  5.94%)p 8.54( 50.73%)d 7.30( 43.33%)
    55. (0.00001) RY*( 5) O   2           s(  0.25%)p 9.99(  2.51%)d99.99( 97.24%)
    56. (0.00001) RY*( 6) O   2           s(  4.81%)p 2.08( 10.01%)d17.73( 85.18%)
    57. (0.00001) RY*( 7) O   2           s(  0.22%)p 4.67(  1.04%)d99.99( 98.74%)
    58. (0.00001) RY*( 8) O   2           s( 16.05%)p 1.13( 18.07%)d 4.11( 65.88%)
    59. (0.00000) RY*( 9) O   2           s(  0.22%)p10.94(  2.39%)d99.99( 97.40%)
    60. (0.00279) RY*( 1) O   3           s(  1.75%)p54.38( 94.89%)d 1.93(  3.36%)
                                            0.0000  0.0044  0.1320  0.0070  0.4887
                                           -0.0010 -0.5244 -0.0026  0.6596 -0.0617
                                           -0.0746 -0.1070 -0.0953 -0.0608
    61. (0.00225) RY*( 2) O   3           s( 28.28%)p 2.41( 68.07%)d 0.13(  3.65%)
                                            0.0000 -0.0039  0.5318  0.0234  0.4327
                                            0.0196 -0.2867  0.0069 -0.6405 -0.1396
                                            0.0593  0.0636  0.0123  0.0966
    62. (0.00176) RY*( 3) O   3           s( 47.37%)p 0.99( 47.03%)d 0.12(  5.61%)
                                            0.0000 -0.0115  0.6881  0.0174 -0.6308
                                            0.0280 -0.1658  0.0087  0.2089  0.0157
                                            0.0333 -0.1269  0.1956 -0.0191
    63. (0.00053) RY*( 4) O   3           s( 18.30%)p 4.22( 77.24%)d 0.24(  4.46%)
                                            0.0000  0.0011  0.4277  0.0058  0.3924
                                           -0.0105  0.7505 -0.0079  0.2344  0.1754
                                           -0.0046 -0.0657  0.0883 -0.0417
    64. (0.00005) RY*( 5) O   3           s(  0.82%)p 3.07(  2.53%)d99.99( 96.65%)
    65. (0.00001) RY*( 6) O   3           s(  0.15%)p 7.90(  1.19%)d99.99( 98.66%)
    66. (0.00002) RY*( 7) O   3           s(  0.98%)p 3.47(  3.40%)d97.38( 95.61%)
    67. (0.00001) RY*( 8) O   3           s(  2.20%)p 2.15(  4.73%)d42.32( 93.07%)
    68. (0.00001) RY*( 9) O   3           s(  0.00%)p 1.00(  1.39%)d71.11( 98.61%)
    69. (0.00458) RY*( 1) C   4           s(  1.02%)p96.14( 98.39%)d 0.57(  0.59%)
                                            0.0000 -0.0188  0.0994  0.0029 -0.7067
                                           -0.0048 -0.4133  0.0178 -0.5597 -0.0280
                                            0.0124 -0.0139  0.0685 -0.0066
    70. (0.00220) RY*( 2) C   4           s(  1.67%)p57.39( 96.07%)d 1.35(  2.25%)
                                            0.0000  0.0416  0.1225  0.0335  0.6703
                                            0.0279 -0.2041 -0.0378 -0.6829  0.1091
                                            0.0294 -0.0779 -0.0228  0.0565
    71. (0.00197) RY*( 3) C   4           s( 22.84%)p 3.35( 76.51%)d 0.03(  0.65%)
                                            0.0000 -0.0087  0.4778  0.0671 -0.1552
                                           -0.0735  0.7980  0.0079 -0.3069 -0.0490
                                            0.0316 -0.0429 -0.0344 -0.0083
    72. (0.00053) RY*( 4) C   4           s( 66.70%)p 0.31( 20.37%)d 0.19( 12.93%)
                                            0.0000 -0.0106  0.8166  0.0143  0.0623
                                            0.0208 -0.3225 -0.0231  0.3076  0.2097
                                           -0.0640  0.2239  0.1745  0.0248
    73. (0.00013) RY*( 5) C   4           s(  0.12%)p11.22(  1.34%)d99.99( 98.54%)
                                            0.0000 -0.0083  0.0336 -0.0223 -0.0490
                                            0.0066 -0.0134 -0.0007  0.1016  0.1359
                                            0.6343 -0.3777  0.1201  0.6383
    74. (0.00009) RY*( 6) C   4           s(  0.44%)p 3.65(  1.61%)d99.99( 97.95%)
    75. (0.00004) RY*( 7) C   4           s(  5.53%)p 0.75(  4.14%)d16.34( 90.33%)
    76. (0.00003) RY*( 8) C   4           s(  1.19%)p 1.07(  1.27%)d81.89( 97.54%)
    77. (0.00001) RY*( 9) C   4           s(  0.40%)p 1.67(  0.66%)d99.99( 98.94%)
    78. (0.00243) RY*( 1) H   5           s( 98.96%)p 0.01(  1.04%)
                                            0.0036  0.9948  0.0704  0.0732 -0.0064
    79. (0.00020) RY*( 2) H   5           s(  0.16%)p99.99( 99.84%)
                                            0.0030  0.0396 -0.7984  0.2766  0.5333
    80. (0.00009) RY*( 3) H   5           s(  0.76%)p99.99( 99.24%)
    81. (0.00003) RY*( 4) H   5           s(  0.21%)p99.99( 99.79%)
    82. (0.00152) RY*( 1) H   6           s( 99.63%)p 0.00(  0.37%)
                                            0.0014  0.9982 -0.0144  0.0151 -0.0571
    83. (0.00012) RY*( 2) H   6           s(  0.03%)p99.99( 99.97%)
                                            0.0116  0.0145 -0.8701  0.0574  0.4892
    84. (0.00007) RY*( 3) H   6           s(  0.30%)p99.99( 99.70%)
    85. (0.00002) RY*( 4) H   6           s(  0.13%)p99.99( 99.87%)
    86. (0.00397) RY*( 1) H   7           s( 75.58%)p 0.32( 24.42%)
                                           -0.0476  0.8681  0.4564  0.1808 -0.0564
    87. (0.00196) RY*( 2) H   7           s( 20.51%)p 3.87( 79.49%)
                                            0.0522  0.4499 -0.7753 -0.0529  0.4370
    88. (0.00068) RY*( 3) H   7           s(  0.11%)p99.99( 99.89%)
                                           -0.0020  0.0327 -0.3965  0.6377 -0.6596
    89. (0.00050) RY*( 4) H   7           s(  4.30%)p22.26( 95.70%)
                                            0.0155  0.2067 -0.1711 -0.7465 -0.6087
    90. (0.00217) RY*( 1) O   8           s( 79.71%)p 0.23( 18.18%)d 0.03(  2.11%)
                                            0.0000 -0.0010  0.8928 -0.0069  0.2286
                                            0.0010 -0.3542  0.0011 -0.0635 -0.1221
                                           -0.0293  0.0289 -0.0214 -0.0637
    91. (0.00042) RY*( 2) O   8           s( 10.14%)p 8.27( 83.81%)d 0.60(  6.06%)
                                            0.0000 -0.0100  0.3182  0.0228 -0.8880
                                           -0.0133  0.2079 -0.0057  0.0751  0.0334
                                           -0.1504  0.0737  0.1762  0.0190
    92. (0.00036) RY*( 3) O   8           s(  3.00%)p28.82( 86.34%)d 3.56( 10.66%)
                                            0.0000 -0.0043  0.1730  0.0066  0.2427
                                           -0.0013  0.4633  0.0023  0.7680 -0.0938
                                            0.1638 -0.0952  0.2399 -0.0658
    93. (0.00023) RY*( 4) O   8           s(  2.10%)p37.05( 77.65%)d 9.66( 20.25%)
                                            0.0000 -0.0031  0.1447  0.0012  0.2469
                                           -0.0028  0.6607  0.0015 -0.5282 -0.1749
                                           -0.1197  0.2567  0.2300  0.1971
    94. (0.00010) RY*( 5) O   8           s(  4.14%)p 3.90( 16.13%)d19.28( 79.73%)
    95. (0.00005) RY*( 6) O   8           s(  0.88%)p 4.95(  4.35%)d99.99( 94.77%)
    96. (0.00002) RY*( 7) O   8           s(  0.06%)p64.41(  3.81%)d99.99( 96.14%)
    97. (0.00001) RY*( 8) O   8           s(  0.00%)p 1.00(  5.68%)d16.61( 94.32%)
    98. (0.00001) RY*( 9) O   8           s(  0.01%)p 1.00(  4.26%)d22.46( 95.73%)
    99. (0.00643) RY*( 1) H   9           s( 77.28%)p 0.29( 22.72%)
                                            0.0624  0.8769 -0.4626  0.0793  0.0830
   100. (0.00108) RY*( 2) H   9           s(  4.07%)p23.55( 95.93%)
                                           -0.0223  0.2006  0.5244  0.8267  0.0302
   101. (0.00100) RY*( 3) H   9           s(  0.05%)p99.99( 99.95%)
                                            0.0023  0.0220  0.1883 -0.1601  0.9687
   102. (0.00032) RY*( 4) H   9           s( 19.05%)p 4.25( 80.95%)
                                           -0.0363  0.4349  0.6865 -0.5335 -0.2314
   103. (0.07642) RY*( 1) S  10           s(  0.19%)p99.99( 20.58%)d99.99( 79.23%)
                                            0.0000  0.0000  0.0080  0.0423  0.0000
                                            0.0393 -0.0753  0.0000 -0.1748  0.3877
                                            0.0000 -0.0548  0.1216 -0.7504 -0.1531
                                           -0.0682 -0.2596 -0.3656
   104. (0.07536) RY*( 2) S  10           s(  0.72%)p27.33( 19.80%)d99.99( 79.47%)
                                            0.0000  0.0000  0.0148  0.0838  0.0000
                                            0.1177 -0.2494  0.0000 -0.0037  0.0222
                                            0.0000  0.1248 -0.3254 -0.0368  0.6215
                                            0.5220  0.0708 -0.3600
   105. (0.05721) RY*( 3) S  10           s(  0.05%)p99.99( 29.29%)d99.99( 70.66%)
                                            0.0000  0.0000  0.0122  0.0179  0.0000
                                            0.0849 -0.3123  0.0000  0.0571 -0.2028
                                            0.0000 -0.0988  0.3661 -0.2034  0.5481
                                           -0.2253 -0.3427  0.4434
   106. (0.03854) RY*( 4) S  10           s(  0.00%)p 1.00(  0.08%)d99.99( 99.92%)
                                            0.0000  0.0000  0.0004  0.0062  0.0000
                                           -0.0003 -0.0007  0.0000  0.0025 -0.0203
                                            0.0000  0.0023 -0.0196 -0.4231 -0.2045
                                            0.5694  0.3133  0.5966
   107. (0.02643) RY*( 5) S  10           s(  0.31%)p13.93(  4.28%)d99.99( 95.41%)
                                            0.0000  0.0000  0.0098  0.0546  0.0000
                                            0.0415 -0.1875  0.0000 -0.0027  0.0230
                                            0.0000  0.0064 -0.0729  0.2773 -0.3293
                                            0.4180 -0.7661  0.0847
   108. (0.00992) RY*( 6) S  10           s(  0.24%)p99.99( 70.13%)d99.99( 29.63%)
                                            0.0000  0.0000  0.0075  0.0481  0.0000
                                           -0.0006 -0.3708  0.0000  0.0019 -0.3162
                                            0.0000 -0.0067  0.6810  0.0971 -0.2152
                                            0.2423  0.2408 -0.3519
   109. (0.00563) RY*( 7) S  10           s( 15.99%)p 4.02( 64.24%)d 1.24( 19.78%)
                                            0.0000  0.0000  0.0103  0.3997  0.0000
                                           -0.0010 -0.7038  0.0000  0.0011  0.0215
                                            0.0000 -0.0035 -0.3828  0.0057 -0.2407
                                           -0.3080  0.1865  0.1007
   110. (0.00363) RY*( 8) S  10           s(  2.61%)p30.47( 79.50%)d 6.86( 17.89%)
                                            0.0000  0.0000  0.0004  0.1615  0.0000
                                            0.0031 -0.0775  0.0000  0.0141  0.8225
                                            0.0000  0.0045  0.3351  0.3267  0.1325
                                            0.0724  0.1430  0.1701
   111. (0.00059) RY*( 9) S  10           s( 79.78%)p 0.24( 19.27%)d 0.01(  0.95%)
                                            0.0000  0.0000 -0.0091  0.8932  0.0000
                                            0.0297  0.3961  0.0000 -0.0042 -0.1596
                                            0.0000  0.0031  0.0970 -0.0353  0.0501
                                            0.0372 -0.0623 -0.0218
   112. (0.00219) RY*( 1) O  11           s( 90.60%)p 0.08(  7.49%)d 0.02(  1.91%)
                                            0.0000 -0.0040  0.9518 -0.0105  0.0832
                                           -0.0037  0.1745  0.0024  0.1934  0.1066
                                            0.0452  0.0432  0.0325 -0.0530
   113. (0.00086) RY*( 2) O  11           s(  3.10%)p29.24( 90.66%)d 2.01(  6.24%)
                                            0.0000 -0.0034  0.1760  0.0143 -0.8225
                                            0.0118 -0.4707  0.0122 -0.0893  0.0049
                                           -0.1264 -0.1233  0.0772 -0.1588
   114. (0.00039) RY*( 3) O  11           s(  1.28%)p70.91( 90.71%)d 6.26(  8.01%)
                                            0.0000 -0.0032  0.1131 -0.0008  0.5133
                                            0.0006 -0.7961 -0.0003 -0.0994 -0.0472
                                            0.1659 -0.1089  0.1794 -0.0794
   115. (0.00018) RY*( 4) O  11           s(  0.44%)p99.99( 65.55%)d76.57( 34.00%)
                                            0.0000 -0.0048  0.0665  0.0001  0.0905
                                           -0.0012  0.1993  0.0083 -0.7794  0.2852
                                            0.0178 -0.1742 -0.1020 -0.4665
   116. (0.00008) RY*( 5) O  11           s(  4.36%)p 5.86( 25.57%)d16.06( 70.07%)
   117. (0.00004) RY*( 6) O  11           s(  0.11%)p55.63(  6.20%)d99.99( 93.69%)
   118. (0.00001) RY*( 7) O  11           s(  0.02%)p99.99(  6.39%)d99.99( 93.59%)
   119. (0.00001) RY*( 8) O  11           s(  0.03%)p99.99(  4.28%)d99.99( 95.69%)
   120. (0.00001) RY*( 9) O  11           s(  0.06%)p52.64(  3.36%)d99.99( 96.57%)
   121. (0.00107) RY*( 1) O  12           s( 88.20%)p 0.00(  0.33%)d 0.13( 11.47%)
                                            0.0000 -0.0094  0.9391  0.0039 -0.0388
                                           -0.0167  0.0071  0.0340 -0.0184 -0.0478
                                            0.1022 -0.2237 -0.0414  0.2240
   122. (0.00045) RY*( 2) O  12           s(  0.13%)p99.99( 88.91%)d86.49( 10.96%)
                                            0.0000 -0.0005  0.0356 -0.0022  0.3304
                                            0.0069 -0.8304  0.0035 -0.3006 -0.0023
                                           -0.1201  0.2150  0.1005  0.1971
   123. (0.00038) RY*( 3) O  12           s(  0.73%)p99.99( 87.87%)d15.71( 11.40%)
                                            0.0000 -0.0016  0.0852 -0.0063  0.8469
                                           -0.0034  0.2144  0.0001  0.3399  0.1646
                                           -0.2644 -0.0364 -0.0901 -0.0869
   124. (0.00014) RY*( 4) O  12           s(  1.00%)p68.16( 68.06%)d30.98( 30.94%)
                                            0.0000  0.0022  0.0999  0.0108 -0.0883
                                            0.0060 -0.3485 -0.0141  0.7423 -0.1658
                                            0.3562  0.2468  0.0738 -0.2977
   125. (0.00006) RY*( 5) O  12           s(  4.43%)p 3.25( 14.39%)d18.31( 81.17%)
   126. (0.00003) RY*( 6) O  12           s(  2.71%)p 4.99( 13.52%)d30.94( 83.77%)
   127. (0.00002) RY*( 7) O  12           s(  2.63%)p 7.53( 19.80%)d29.49( 77.57%)
   128. (0.00000) RY*( 8) O  12           s(  0.11%)p41.76(  4.67%)d99.99( 95.22%)
   129. (0.00001) RY*( 9) O  12           s(  0.00%)p 1.00(  2.81%)d34.56( 97.19%)
   130. (0.00122) RY*( 1) O  13           s( 89.76%)p 0.02(  2.11%)d 0.09(  8.13%)
                                            0.0000 -0.0094  0.9474  0.0356  0.0484
                                            0.0063 -0.0369 -0.0150  0.1259  0.0799
                                           -0.1769 -0.0488  0.1946 -0.0581
   131. (0.00064) RY*( 2) O  13           s(  0.00%)p 1.00( 91.24%)d 0.10(  8.76%)
                                            0.0000  0.0000  0.0059 -0.0003  0.0612
                                            0.0058 -0.9049  0.0021 -0.2995  0.2193
                                            0.0878 -0.1171 -0.0908 -0.0992
   132. (0.00034) RY*( 3) O  13           s(  0.30%)p99.99( 76.20%)d77.68( 23.50%)
                                            0.0000 -0.0028  0.0549  0.0129 -0.5172
                                           -0.0009  0.1919  0.0060 -0.6764 -0.0150
                                            0.1135  0.0216  0.3559 -0.3078
   133. (0.00013) RY*( 4) O  13           s(  1.08%)p63.52( 68.47%)d28.25( 30.45%)
                                            0.0000  0.0016  0.1038 -0.0043  0.7431
                                           -0.0073  0.1508  0.0161 -0.3309 -0.2045
                                            0.4440  0.1664  0.0266 -0.1926
   134. (0.00005) RY*( 5) O  13           s(  5.15%)p 4.53( 23.35%)d13.88( 71.50%)
   135. (0.00002) RY*( 6) O  13           s(  2.50%)p 9.29( 23.21%)d29.72( 74.29%)
   136. (0.00002) RY*( 7) O  13           s(  1.11%)p11.39( 12.68%)d77.40( 86.20%)
   137. (0.00001) RY*( 8) O  13           s(  0.01%)p 1.00(  2.60%)d37.42( 97.39%)
   138. (0.00001) RY*( 9) O  13           s(  0.01%)p 1.00(  0.52%)d99.99( 99.47%)
   139. (0.04506) BD*( 1) N   1 - O   2  
                ( 51.72%)   0.7192* N   1 s( 30.38%)p 2.29( 69.48%)d 0.00(  0.14%)
                                            0.0000 -0.5500 -0.0361  0.7090 -0.0455
                                           -0.0559  0.0145  0.4313 -0.0277  0.0036
                                           -0.0287  0.0015 -0.0229  0.0022
                ( 48.28%)  -0.6949* O   2 s( 28.74%)p 2.47( 71.11%)d 0.01(  0.15%)
                                            0.0000 -0.5341  0.0457 -0.7043  0.0244
                                            0.0220  0.0043 -0.4623  0.0164  0.0010
                                           -0.0302  0.0005 -0.0252  0.0013
   140. (0.65854) BD*( 2) N   1 - O   2  
                ( 63.55%)   0.7972* N   1 s(  0.09%)p99.99( 99.56%)d 3.85(  0.35%)
[...]
 Total V=0       0.126681D+17         16.102712         37.077865
 Vib (Bot)       0.806638D-32        -32.093321        -73.897603
 Vib (Bot)    1  0.431154D+01          0.634633          1.461296
 Vib (Bot)    2  0.236988D+01          0.374727          0.862840
 Vib (Bot)    3  0.217870D+01          0.338197          0.778728
 Vib (Bot)    4  0.137405D+01          0.138004          0.317765
 Vib (Bot)    5  0.773800D+00         -0.111371         -0.256442
 Vib (Bot)    6  0.556784D+00         -0.254313         -0.585578
 Vib (Bot)    7  0.424228D+00         -0.372401         -0.857484
 Vib (Bot)    8  0.343126D+00         -0.464547         -1.069659
 Vib (Bot)    9  0.285879D+00         -0.543817         -1.252186
 Vib (Bot)   10  0.279984D+00         -0.552866         -1.273021
 Vib (Bot)   11  0.271861D+00         -0.565654         -1.302466
 Vib (V=0)       0.260475D+03          2.415766          5.562507
 Vib (V=0)    1  0.484044D+01          0.684885          1.577005
 Vib (V=0)    2  0.292205D+01          0.465688          1.072287
 Vib (V=0)    3  0.273534D+01          0.437011          1.006255
 Vib (V=0)    4  0.196220D+01          0.292743          0.674065
 Vib (V=0)    5  0.142129D+01          0.152681          0.351562
 Vib (V=0)    6  0.124834D+01          0.096332          0.221812
 Vib (V=0)    7  0.115572D+01          0.062853          0.144724
 Vib (V=0)    8  0.110641D+01          0.043917          0.101122
 Vib (V=0)    9  0.107596D+01          0.031795          0.073211
 Vib (V=0)   10  0.107305D+01          0.030622          0.070509
 Vib (V=0)   11  0.106913D+01          0.029030          0.066845
 Electronic      0.100000D+01          0.000000          0.000000
 Translational   0.780444D+08          7.892342         18.172788
 Rotational      0.623167D+06          5.794605         13.342570
 ***** Axes restored to original set *****
 -------------------------------------------------------------------
 Center     Atomic                   Forces (Hartrees/Bohr)
 Number     Number              X              Y              Z
 -------------------------------------------------------------------
      1        7           0.000000041   -0.000004378    0.000002599
      2        8           0.000000024    0.000001141    0.000000192
      3        8          -0.000000512   -0.000001270    0.000006891
      4        6          -0.000000227   -0.000002391   -0.000006486
      5        1           0.000000739   -0.000008348   -0.000005672
      6        1           0.000002319   -0.000002286   -0.000011519
      7        1           0.000001988    0.000004790   -0.000005062
      8        8           0.000001473   -0.000000113    0.000010287
      9        1          -0.000005675   -0.000000705    0.000009151
     10       16          -0.000000403    0.000002051    0.000002362
     11        8          -0.000000341    0.000006305   -0.000004012
     12        8          -0.000000107   -0.000003892   -0.000001839
     13        8           0.000000680    0.000009098    0.000003108
 -------------------------------------------------------------------
 Cartesian Forces:  Max     0.000011519 RMS     0.000004598

 GradGradGradGradGradGradGradGradGradGradGradGradGradGradGradGradGradGrad
 Berny optimization.
 Search for a local minimum.
 Step number   1 out of a maximum of    2
 All quantities printed in internal units (Hartrees-Bohrs-Radians)
 Second derivative matrix not updated -- analytic derivatives used.
 ITU=  0
     Eigenvalues ---   -0.05551   0.00090   0.00305   0.00406   0.00780
     Eigenvalues ---    0.02014   0.02294   0.02585   0.03496   0.04555
     Eigenvalues ---    0.04752   0.06464   0.07196   0.08353   0.09368
     Eigenvalues ---    0.10916   0.16200   0.20465   0.20799   0.23972
     Eigenvalues ---    0.26627   0.34089   0.38332   0.48327   0.50225
     Eigenvalues ---    0.66048   0.77436   0.79791   0.97256   1.12958
     Eigenvalues ---    1.18168   1.46090   1.64625
 Eigenvalue     1 is  -5.55D-02 should be greater than     0.000000 Eigenvector:
                          X7        Z7        X4        Z4        X9
   1                    0.66928  -0.36199  -0.35244   0.27243  -0.24203
                          X3        X5        Y10       Y1        Z2
   1                    0.18337   0.16343   0.12115  -0.11259  -0.10066
 Angle between quadratic step and forces=  78.59 degrees.
 Linear search not attempted -- first point.
 TrRot= -0.000010  0.000101  0.000176 -0.000004  0.000042 -0.000004
 MatCor failed.
 Variable       Old X    -DE/DX   Delta X   Delta X   Delta X     New X
                                 (Linear)    (Quad)   (Total)
    X1       -4.27712   0.00000   0.00000   0.00009   0.00008  -4.27703
    Y1        0.06534   0.00000   0.00000   0.00004   0.00018   0.06551
    Z1        0.11244   0.00000   0.00000   0.00054   0.00089   0.11334
    X2       -6.21846   0.00000   0.00000   0.00001  -0.00005  -6.21850
    Y2        0.12767   0.00000   0.00000   0.00097   0.00112   0.12878
    Z2       -1.11953   0.00000   0.00000   0.00069   0.00112  -1.11841
    X3       -3.26521   0.00000   0.00000   0.00023   0.00027  -3.26494
    Y3        2.11004   0.00000   0.00000  -0.00045  -0.00033   2.10972
    Z3        0.81616   0.00001   0.00000   0.00186   0.00217   0.81833
    X4       -3.05779   0.00000   0.00000  -0.00012  -0.00012  -3.05791
    Y4       -2.18839   0.00000   0.00000  -0.00040  -0.00027  -2.18866
    Z4        0.64734  -0.00001   0.00000  -0.00100  -0.00069   0.64665
    X5       -2.03445   0.00000   0.00000  -0.00011  -0.00003  -2.03449
    Y5       -2.09778  -0.00001   0.00000  -0.00183  -0.00171  -2.09949
    Z5        2.43718  -0.00001   0.00000  -0.00095  -0.00069   2.43649
    X6       -4.26465   0.00000   0.00000  -0.00014  -0.00017  -4.26482
    Y6       -3.81900   0.00000   0.00000  -0.00008   0.00005  -3.81895
    Z6        0.29398  -0.00001   0.00000  -0.00240  -0.00204   0.29194
    X7       -0.66996   0.00000   0.00000   0.00031   0.00024  -0.66971
    Y7       -2.02526   0.00000   0.00000  -0.00024  -0.00014  -2.02540
    Z7       -0.98823  -0.00001   0.00000  -0.00043  -0.00023  -0.98846
    X8        1.44610   0.00000   0.00000  -0.00033  -0.00031   1.44578
    Y8        2.56430   0.00000   0.00000   0.00014   0.00023   2.56452
    Z8        0.14656   0.00001   0.00000  -0.00207  -0.00195   0.14461
    X9       -0.44385  -0.00001   0.00000   0.00004   0.00007  -0.44378
    Y9        2.33388   0.00000   0.00000   0.00016   0.00026   2.33414
    Z9        0.55396   0.00001   0.00000  -0.00033  -0.00014   0.55383
   X10        2.85521   0.00000   0.00000  -0.00006  -0.00007   2.85514
   Y10       -0.05363   0.00000   0.00000   0.00014   0.00022  -0.05341
   Z10       -0.03254   0.00000   0.00000  -0.00004   0.00001  -0.03252
   X11        1.19535   0.00000   0.00000   0.00076   0.00066   1.19601
   Y11       -1.60307   0.00001   0.00000  -0.00113  -0.00104  -1.60410
   Z11       -1.89726   0.00000   0.00000   0.00027   0.00040  -1.89686
   X12        2.81672   0.00000   0.00000  -0.00087  -0.00079   2.81593
   Y12       -1.24787   0.00000   0.00000   0.00166   0.00174  -1.24613
   Z12        2.44323   0.00000   0.00000   0.00068   0.00074   2.44397
   X13        5.27750   0.00000   0.00000   0.00027   0.00021   5.27772
   Y13        0.44133   0.00001   0.00000  -0.00037  -0.00031   0.44102
   Z13       -1.19509   0.00000   0.00000   0.00044   0.00040  -1.19469
         Item               Value     Threshold  Converged?
 Maximum Force            0.000012     0.000450     YES
 RMS     Force            0.000005     0.000300     YES
 Maximum Displacement     0.002173     0.001800     NO 
 RMS     Displacement     0.000829     0.001200     YES
 Predicted change in Energy=-1.129432D-08
 GradGradGradGradGradGradGradGradGradGradGradGradGradGradGradGradGradGrad

 1\1\GINC-DC1S8B1A\Freq\RM062X\def2SVP\C1H4N1O6S1(1-)\CHMBNN\07-Nov-202
 0\0\\# freq scrf=(cpcm,solvent=nitromethane) pop=nbo def2svp m062x\\Me
 NO2+SO4-2 TS3 freq\\-1,1\N,-2.263352,0.034574,0.059503\O,-3.290665,0.0
 67558,-0.59243\O,-1.727875,1.116587,0.431894\C,-1.618112,-1.158045,0.3
 42558\H,-1.076587,-1.110095,1.289698\H,-2.256756,-2.020928,0.155566\H,
 -0.354525,-1.071722,-0.52295\O,0.765242,1.356967,0.077554\H,-0.234875,
 1.235035,0.293145\S,1.510914,-0.028378,-0.017218\O,0.632551,-0.848306,
 -1.003987\O,1.490544,-0.660347,1.292901\O,2.792735,0.233542,-0.632412\
 \Version=ES64L-G09RevD.01\State=1-A\HF=-944.0011282\RMSD=9.889e-09\RMS
 F=4.598e-06\ZeroPoint=0.0750251\Thermal=0.0835361\Dipole=-0.6646454,-0
 .7158946,0.3608831\DipoleDeriv=2.2994582,-0.2795724,0.7831653,-0.65951
 39,2.4466506,0.1591037,1.23766,-0.0600408,0.7953035,-1.786539,0.223903
 5,-0.5197729,0.1436178,-0.6861256,0.0621488,-1.0058973,0.2069865,-0.66
 33749,-1.1457442,-0.503527,-0.2218635,-0.3161471,-1.6359173,-0.3022064
 ,-0.1065297,-0.280962,-0.5993028,-1.4726017,0.7042158,0.1821584,0.7646
 928,-0.7625022,0.095758,0.6319388,-0.1074393,-0.3642273,0.3872238,-0.1
 337385,-0.0283227,-0.0305585,0.0246852,-0.0642457,-0.2207118,0.0671263
 ,0.0665025,0.0989501,-0.166836,-0.0713728,-0.0299381,0.0642602,0.02155
 74,-0.146293,0.1134465,0.1439851,2.2220913,-0.1471797,-0.3895729,0.336
 6769,0.1769329,-0.0448825,-0.986092,0.0961734,0.4151773,-1.7032825,0.2
 251671,0.0485644,0.2787495,-1.1903879,-0.0308407,0.0880508,-0.0262627,
 -0.7533501,1.605057,0.3039303,-0.0238215,0.1731887,0.3272631,0.0032464
 ,-0.1637662,0.0156604,0.3672942,3.6700976,-0.0201517,-0.0343824,0.2247
 965,2.7402998,-0.1527188,0.4714228,-0.1862546,2.9173245,-2.5870188,-0.
 1165462,0.0199768,-0.6836121,-0.8293179,-0.1232298,0.1163977,-0.238676
 1,-1.0460899,-0.9948411,-0.0052613,0.0025482,0.0248796,-0.9131534,0.26
 85861,-0.1827539,0.299221,-1.3582239,-1.5928509,-0.084404,0.2526955,-0
 .2268319,-0.7626875,0.1077234,0.2665737,0.1010213,-0.9210183\Polar=95.
 0105833,-2.1757838,66.9175359,4.5257776,-0.9984325,52.6855409\PG=C01 [
 X(C1H4N1O6S1)]\NImag=1\\0.75685814,0.01334787,0.73878406,0.29811631,-0
 .00071934,0.47832309,-0.43938565,0.02065501,-0.22262600,0.53726270,0.0
 3671005,-0.14586363,0.02173046,-0.01244192,0.14102575,-0.21848345,0.01
 300284,-0.23844661,0.31455796,-0.00520265,0.23639505,-0.16598859,-0.06
 182156,-0.03679194,-0.05533710,-0.07949042,-0.05430841,0.22242809,-0.0
 9288888,-0.34203140,-0.06422664,-0.05124557,0.00345719,-0.03068787,0.1
 3654363,0.43594337,-0.04656603,-0.05073043,-0.11652084,-0.04998146,-0.
 04703735,-0.00524191,0.08575500,0.10966934,0.10014779,-0.10199356,-0.0
 0244018,-0.01873977,-0.06511785,0.04748567,-0.05238369,0.03957238,0.01
 070103,0.00884209,0.39828219,0.05144445,-0.22205051,0.02511991,0.03866
 461,0.00269900,0.02404280,-0.00507514,-0.08616306,-0.01283598,0.104007
 79,0.60332326,-0.05228147,0.07066587,-0.11604473,-0.02921940,0.0264720
 8,0.01296550,-0.01004369,-0.02874084,0.01441182,0.25568462,-0.01438613
 ,0.41762477,-0.02209208,0.01601050,-0.01790205,0.00725182,0.00363368,0
 .00097438,-0.00477408,-0.00919933,0.00076728,-0.08481939,-0.01919783,-
 0.13052153,0.11000844,0.01420676,0.00017482,0.03091458,0.00443439,-0.0
 0370330,-0.00039249,0.00128547,-0.00067961,-0.00070152,-0.01905289,-0.
 05318449,-0.02253482,0.00682619,0.05330820,0.00605688,-0.01480589,-0.0
 0547012,-0.00330968,0.00147729,0.00173512,0.00406595,0.00271350,0.0029
 4879,-0.15750012,-0.00202739,-0.26656351,0.14787048,0.01105589,0.27504
 083,0.00250797,0.02534168,0.00144517,0.00337729,0.00105859,0.00384991,
 0.00022849,0.00150821,-0.00289554,-0.14778129,-0.16606046,-0.05097813,
 -0.00551781,-0.00697507,0.00467559,0.14961992,-0.02154009,-0.02720140,
 -0.00412726,-0.00093368,0.00292956,-0.00292489,0.00406555,-0.00393937,
 0.00209266,-0.13483917,-0.22851314,-0.03586329,0.00316656,0.00427361,0
 .00052592,0.14892156,0.25150744,0.01226902,-0.00513274,-0.00170989,-0.
 00340713,0.00170760,-0.00406479,0.00009335,0.00535636,0.00683636,-0.04
 674931,-0.02717172,-0.04296231,-0.00882795,-0.01887097,0.00031191,0.04
 573299,0.03991032,0.04163606,-0.04133350,0.07240216,-0.01028448,0.0246
 0474,-0.00821732,0.01641796,-0.01620161,-0.03116464,-0.00814607,0.0536
 7236,-0.03056869,-0.03019518,-0.00494365,-0.00003715,0.00337722,-0.002
 50059,0.00095469,0.00296426,0.04532221,0.00685936,0.01435901,-0.011853
 19,0.00317514,-0.00207037,0.00397696,-0.00515704,-0.00903242,-0.000920
 46,0.01132678,-0.03239670,-0.00404058,-0.00123197,0.00047121,0.0007523
 4,-0.00585009,0.00143964,0.00608786,0.01231687,0.06269902,0.01438290,-
 0.03620467,0.00923682,-0.01365517,0.00548242,-0.01056603,0.00839017,0.
 01533570,0.00395962,-0.03411108,0.01453437,-0.00783842,0.01134343,-0.0
 0045642,-0.01032736,-0.00301377,0.00050159,0.00130528,0.01453888,0.010
 03498,0.05856780,0.00579108,0.04431572,0.01363519,-0.00761899,-0.00776
 989,-0.00803713,-0.07523081,-0.03624502,0.00318680,0.00984671,-0.00832
 296,-0.00430784,-0.00215086,-0.00021194,0.00102652,-0.00053830,-0.0003
 3164,0.00139006,-0.01191815,0.00008231,0.00677141,0.45679679,0.0039777
 8,-0.01275902,-0.00092224,-0.00091430,0.00209641,-0.00015210,0.0084875
 9,0.01604074,0.00076500,-0.00788735,0.00488240,0.00396529,0.00174519,0
 .00011424,-0.00124819,0.00013964,0.00003707,-0.00059250,0.01679950,0.0
 0358094,-0.00683199,-0.05485076,0.33191400,0.00171868,-0.00892601,0.00
 011337,0.00042674,0.00193406,0.00022947,0.01148290,0.00655070,0.005295
 05,-0.00411979,0.00255460,0.00152552,-0.00004300,-0.00026104,-0.000055
 77,0.00016784,-0.00000215,-0.00020882,0.00860379,0.00167588,-0.0047847
 3,-0.07877669,-0.00050890,0.08701770,-0.01238923,-0.06539150,-0.019246
 89,0.01169323,0.01091642,0.01094731,0.03454323,0.04875753,0.00454906,-
 0.01486729,0.01500400,0.00764612,0.00328818,0.00031145,-0.00167626,0.0
 0105570,0.00065440,-0.00249876,0.02170950,0.00499821,-0.01027419,-0.23
 995509,-0.05464512,0.05123049,0.22816740,-0.01459780,-0.00885323,-0.00
 282304,0.00236641,0.00065090,0.00224946,0.01792812,-0.00898416,-0.0023
 0144,-0.00029841,0.00021513,-0.00052373,-0.00036393,-0.00021342,0.0009
 0644,0.00049358,0.00017412,-0.00031325,0.00062102,-0.00223255,-0.00145
 283,-0.05403464,-0.05231357,0.01310931,0.01228239,0.07477378,-0.005422
 21,0.00490602,-0.00242439,-0.00195823,-0.00301178,-0.00045927,-0.00109
 620,-0.00604751,-0.00929669,0.00104818,-0.00074203,-0.00008459,-0.0000
 5614,0.00050415,-0.00020237,-0.00001230,-0.00020371,-0.00004451,-0.003
 05294,-0.00193672,0.00170328,0.05369591,0.01101893,-0.02990242,-0.0494
 5015,-0.00100298,0.04109916,-0.01880721,0.00888955,-0.00942566,0.01133
 306,-0.00105559,0.00864749,0.01017218,-0.00195083,-0.00082173,0.016913
 15,-0.00580319,-0.00612219,-0.00378520,-0.00035687,0.00367039,0.001181
 78,0.00000074,-0.00011776,-0.05491866,-0.02615803,-0.00514996,-0.13139
 083,0.06820049,0.01225126,-0.03415441,0.03730939,0.00539654,0.92830731
 ,-0.00533237,0.04680049,0.00194057,0.00387536,-0.00715968,0.00167846,-
 0.03953976,-0.02696159,-0.00083908,0.02899164,-0.01319798,-0.01308278,
 -0.00591791,-0.00021898,0.00420815,0.00020187,-0.00021763,0.00158257,-
 0.05733179,-0.01572508,0.01638803,0.05711785,-0.23093009,-0.00022635,0
 .06982723,0.00249042,-0.01094298,0.07640579,0.64210307,-0.01067666,0.0
 2550813,-0.00652091,0.00796750,-0.00224606,0.00701001,-0.00883648,-0.0
 0988592,-0.00300329,0.02945308,-0.01351654,-0.01324648,0.00221829,0.00
 142720,-0.00081646,-0.00143345,0.00073384,-0.00014321,-0.05739998,-0.0
 0853381,0.03714940,0.00680862,0.00067779,-0.06831816,0.01311620,-0.007
 40441,-0.00096611,-0.15334627,-0.16321800,0.90603854,0.02776407,-0.062
 93332,0.01634829,-0.02078600,0.00777684,-0.01659301,0.01653531,0.02438
 385,0.00435833,-0.09051364,0.02222056,0.04438842,0.00613783,-0.0005038
 5,-0.00475551,-0.00065145,-0.00040010,0.00007092,-0.03790139,-0.003958
 73,0.02151861,0.02637633,-0.00478131,-0.00274701,-0.01736254,-0.003794
 04,-0.00009995,-0.13998859,-0.03978359,-0.04301452,0.27031571,0.006596
 75,-0.02600306,0.00593567,-0.00649481,0.00336420,-0.00523381,0.0101925
 4,0.01310693,0.00272578,-0.02906130,0.01999940,0.01368610,0.00222260,-
 0.00025245,-0.00188486,0.00147309,-0.00061574,-0.00186946,0.01138718,-
 0.02393655,-0.00923495,-0.00359165,-0.04004223,-0.03417668,-0.01904318
 ,0.00030611,0.00420864,-0.06118107,-0.12210109,-0.06679472,0.10513771,
 0.16413076,-0.00354304,0.00993317,-0.00336671,0.00414968,-0.00172328,0
 .00321665,-0.00042801,-0.00274129,-0.00072787,0.02786892,-0.00030352,-
 0.00403194,-0.00351324,0.00005685,0.00263736,0.00177302,-0.00032172,-0
 .00121955,0.04070919,0.00107210,-0.06532877,-0.00448578,-0.01545197,0.
 00203670,-0.00426629,0.00062504,0.00023663,-0.07258896,-0.07957606,-0.
 18577621,0.02975637,0.09929870,0.27308899,0.00306432,-0.00372128,0.001
 24805,-0.00259474,0.00101766,-0.00178817,-0.00072573,0.00113626,0.0001
 7973,-0.00395269,0.00032150,0.00123152,0.00007653,-0.00001845,-0.00243
 193,-0.00082859,0.00034514,-0.00075288,0.00553317,0.00185597,0.0010653
 8,0.00964022,0.01943052,-0.01629283,0.00425514,-0.00326746,0.00092901,
 -0.09311229,-0.00432293,0.00915945,0.00544297,0.00082287,-0.02685471,0
 .07395340,-0.00093819,-0.00612009,-0.00134357,0.00025032,0.00119581,0.
 00044669,0.00591982,0.00394161,-0.00009267,-0.00216063,0.00162168,0.00
 091621,0.00116763,-0.00017887,-0.00095623,-0.00019798,0.00010166,-0.00
 040972,0.00228082,-0.00034424,0.00018269,0.01929766,-0.02632449,0.0331
 2679,-0.01336471,-0.00112906,0.00267984,-0.00643939,-0.17673351,0.1954
 3721,-0.00776509,0.01364015,-0.01607436,0.00396068,0.17994206,0.004053
 94,-0.00342453,0.00268366,-0.00268679,0.00000519,-0.00241236,-0.001948
 98,0.00027939,0.00084117,-0.00609668,0.00262658,0.00282580,-0.00164656
 ,-0.00054794,0.00033924,0.00035245,-0.00018749,0.00024540,0.01730351,0
 .00421417,-0.00854424,-0.00592039,0.01049596,0.00153035,0.00637174,0.0
 0071625,-0.00269247,0.01351744,0.19616166,-0.48693006,-0.02418300,0.00
 337751,-0.03487319,-0.00367449,-0.22936966,0.54389116,0.00600424,-0.00
 465465,0.00422379,-0.00468251,0.00037624,-0.00380116,-0.00522175,-0.00
 033624,0.00077254,-0.00924109,0.00336536,0.00471875,0.00132029,0.00009
 197,-0.00106950,-0.00015313,-0.00006397,-0.00016682,0.01887557,0.00174
 123,-0.01180661,-0.03964812,0.00429815,0.01609760,0.01401619,0.0053553
 8,0.00007849,-0.49175029,-0.08419141,0.20598421,-0.04536861,-0.0184607
 1,0.01142285,-0.00075172,-0.00201095,0.00455781,0.55660093,0.00215431,
 -0.00923604,0.00037409,-0.00139097,0.00137815,-0.00080340,0.00666120,0
 .00530177,0.00020615,-0.00677298,0.00276501,0.00346662,0.00113863,0.00
 008905,-0.00071696,-0.00005462,0.00002418,-0.00028434,0.01055735,0.003
 18809,-0.00827892,0.04454498,0.00370361,-0.01485021,-0.01030712,-0.004
 88446,0.00057014,-0.08786098,-0.09814835,0.04781529,-0.03559894,-0.001
 59643,0.00520637,-0.01756047,0.01038729,0.01565290,0.09448960,0.087028
 14,0.00037513,-0.00407243,0.00014727,-0.00025800,0.00041202,-0.0003608
 5,0.00366634,0.00242509,0.00034999,-0.00319646,0.00210506,0.00141859,-
 0.00066340,-0.00019348,0.00042235,0.00033621,-0.00013380,0.00001809,0.
 00516384,-0.00052952,-0.00453266,0.01501333,-0.00121508,0.00552174,-0.
 00644839,-0.00178480,0.00303375,0.20408941,0.04592581,-0.18447705,-0.0
 2504794,-0.01003793,0.01410792,0.03798187,0.01545676,-0.01690445,-0.23
 101194,-0.04835771,0.18125530\\-0.00000004,0.00000438,-0.00000260,-0.0
 0000002,-0.00000114,-0.00000019,0.00000051,0.00000127,-0.00000689,0.00
 000023,0.00000239,0.00000649,-0.00000074,0.00000835,0.00000567,-0.0000
 0232,0.00000229,0.00001152,-0.00000199,-0.00000479,0.00000506,-0.00000
 147,0.00000011,-0.00001029,0.00000567,0.00000070,-0.00000915,0.0000004
 0,-0.00000205,-0.00000236,0.00000034,-0.00000630,0.00000401,0.00000011
 ,0.00000389,0.00000184,-0.00000068,-0.00000910,-0.00000311\\\@


 A MAN IS EXACTLY AS GREAT AS THE TIDE SURGING
 BENEATH HIM.      - BISMARCK
 Job cpu time:       0 days  0 hours  9 minutes 46.5 seconds.
 File lengths (MBytes):  RWF=     64 Int=      0 D2E=      0 Chk=      6 Scr=      1
 Normal termination of Gaussian 09 at Sat Nov  7 15:08:03 2020.
