 Entering Gaussian System, Link 0=g09
 Input=MeNO2_Na2SO4_TS3_product_opt_2.com
 Output=MeNO2_Na2SO4_TS3_product_opt_2.log
 Initial command:
 /apps/applications/gaussian/G09.D01/2/default/g09/l1.exe "/nobackup/chmbnn/Gau-141094.inp" -scrdir="/nobackup/chmbnn/"
 Entering Link 1 = /apps/applications/gaussian/G09.D01/2/default/g09/l1.exe PID=    141095.
  
 Copyright (c) 1988,1990,1992,1993,1995,1998,2003,2009,2013,
            Gaussian, Inc.  All Rights Reserved.
  
 This is part of the Gaussian(R) 09 program.  It is based on
 the Gaussian(R) 03 system (copyright 2003, Gaussian, Inc.),
 the Gaussian(R) 98 system (copyright 1998, Gaussian, Inc.),
 the Gaussian(R) 94 system (copyright 1995, Gaussian, Inc.),
 the Gaussian 92(TM) system (copyright 1992, Gaussian, Inc.),
 the Gaussian 90(TM) system (copyright 1990, Gaussian, Inc.),
 the Gaussian 88(TM) system (copyright 1988, Gaussian, Inc.),
 the Gaussian 86(TM) system (copyright 1986, Carnegie Mellon
 University), and the Gaussian 82(TM) system (copyright 1983,
 Carnegie Mellon University). Gaussian is a federally registered
 trademark of Gaussian, Inc.
  
 This software contains proprietary and confidential information,
 including trade secrets, belonging to Gaussian, Inc.
  
 This software is provided under written license and may be
 used, copied, transmitted, or stored only in accord with that
 written license.
  
 The following legend is applicable only to US Government
 contracts under FAR:
  
                    RESTRICTED RIGHTS LEGEND
  
 Use, reproduction and disclosure by the US Government is
 subject to restrictions as set forth in subparagraphs (a)
 and (c) of the Commercial Computer Software - Restricted
 Rights clause in FAR 52.227-19.
  
 Gaussian, Inc.
 340 Quinnipiac St., Bldg. 40, Wallingford CT 06492
  
  
 ---------------------------------------------------------------
 Warning -- This program may not be used in any manner that
 competes with the business of Gaussian, Inc. or will provide
 assistance to any competitor of Gaussian, Inc.  The licensee
 of this program is prohibited from giving any competitor of
 Gaussian, Inc. access to this program.  By using this program,
 the user acknowledges that Gaussian, Inc. is engaged in the
 business of creating and licensing software in the field of
 computational chemistry and represents and warrants to the
 licensee that it is not a competitor of Gaussian, Inc. and that
 it will not use this program in any manner prohibited above.
 ---------------------------------------------------------------
  

 Cite this work as:
 Gaussian 09, Revision D.01,
 M. J. Frisch, G. W. Trucks, H. B. Schlegel, G. E. Scuseria, 
 M. A. Robb, J. R. Cheeseman, G. Scalmani, V. Barone, B. Mennucci, 
 G. A. Petersson, H. Nakatsuji, M. Caricato, X. Li, H. P. Hratchian, 
 A. F. Izmaylov, J. Bloino, G. Zheng, J. L. Sonnenberg, M. Hada, 
 M. Ehara, K. Toyota, R. Fukuda, J. Hasegawa, M. Ishida, T. Nakajima, 
 Y. Honda, O. Kitao, H. Nakai, T. Vreven, J. A. Montgomery, Jr., 
 J. E. Peralta, F. Ogliaro, M. Bearpark, J. J. Heyd, E. Brothers, 
 K. N. Kudin, V. N. Staroverov, T. Keith, R. Kobayashi, J. Normand, 
 K. Raghavachari, A. Rendell, J. C. Burant, S. S. Iyengar, J. Tomasi, 
 M. Cossi, N. Rega, J. M. Millam, M. Klene, J. E. Knox, J. B. Cross, 
 V. Bakken, C. Adamo, J. Jaramillo, R. Gomperts, R. E. Stratmann, 
 O. Yazyev, A. J. Austin, R. Cammi, C. Pomelli, J. W. Ochterski, 
 R. L. Martin, K. Morokuma, V. G. Zakrzewski, G. A. Voth, 
 P. Salvador, J. J. Dannenberg, S. Dapprich, A. D. Daniels, 
 O. Farkas, J. B. Foresman, J. V. Ortiz, J. Cioslowski, 
 and D. J. Fox, Gaussian, Inc., Wallingford CT, 2013.
 
 ******************************************
 Gaussian 09:  ES64L-G09RevD.01 24-Apr-2013
                 8-Nov-2020 
 ******************************************
 %nprocshared=4
 Will use up to    4 processors via shared memory.
 %chk=MeNO2_Na2SO4_TS3_product_opt_2.chk
 ----------------------------------------------------------------------
 # opt freq int=(grid=ultrafine) scrf=(cpcm,solvent=nitromethane) def2s
 vp m062x
 ----------------------------------------------------------------------
 1/14=-1,18=20,19=15,26=4,38=1/1,3;
 2/9=110,12=2,17=6,18=5,40=1/2;
 3/5=43,7=101,11=2,16=1,25=1,30=1,70=2101,71=1,72=15,74=-55,75=-5/1,2,3;
 4//1;
 5/5=2,38=5,53=15/2;
 6/7=2,8=2,9=2,10=2,28=1/1;
 7//1,2,3,16;
 1/14=-1,18=20,19=15,26=4/3(2);
 2/9=110/2;
 99//99;
 2/9=110/2;
 3/5=43,7=101,11=2,16=1,25=1,30=1,70=2105,71=1,72=15,74=-55,75=-5/1,2,3;
 4/5=5,16=3,69=1/1;
 5/5=2,38=5,53=15/2;
 7//1,2,3,16;
 1/14=-1,18=20,19=15,26=4/3(-5);
 2/9=110/2;
 6/7=2,8=2,9=2,10=2,19=2,28=1/1;
 99/9=1/99;
 ---------------------------
 MeNO2+SO4-2 TS3 product opt
 ---------------------------
 Symbolic Z-matrix:
 Charge = -1 Multiplicity = 1
 N                    -2.38404  -0.02057   0.04133 
 O                    -3.37216  -0.17622  -0.58187 
 O                    -1.96299   1.19902   0.22505 
 C                    -1.64402  -0.98346   0.57315 
 H                    -0.77083  -0.76401   1.20306 
 H                    -2.02744  -1.98826   0.39193 
 H                     0.26961  -1.40256  -0.952 
 O                     0.52278   1.17176   0.0098 
 H                    -0.96185   1.16904   0.2369 
 S                     1.55226   0.0691    0.03051 
 O                     1.13606  -0.98929  -1.1517 
 O                     1.4676   -0.73624   1.2264 
 O                     2.85956   0.52158  -0.36472 
 
 Add virtual bond connecting atoms H9         and O8         Dist= 2.84D+00.

 GradGradGradGradGradGradGradGradGradGradGradGradGradGradGradGradGradGrad
 Berny optimization.
 Initialization pass.
                           ----------------------------
                           !    Initial Parameters    !
                           ! (Angstroms and Degrees)  !
 --------------------------                            --------------------------
 ! Name  Definition              Value          Derivative Info.                !
 --------------------------------------------------------------------------------
 ! R1    R(1,2)                  1.1786         estimate D2E/DX2                !
 ! R2    R(1,3)                  1.3032         estimate D2E/DX2                !
 ! R3    R(1,4)                  1.3258         estimate D2E/DX2                !
 ! R4    R(3,9)                  1.0017         estimate D2E/DX2                !
 ! R5    R(4,5)                  1.0988         estimate D2E/DX2                !
 ! R6    R(4,6)                  1.0906         estimate D2E/DX2                !
 ! R7    R(7,11)                 0.9805         estimate D2E/DX2                !
 ! R8    R(8,9)                  1.5019         estimate D2E/DX2                !
 ! R9    R(8,10)                 1.5087         estimate D2E/DX2                !
 ! R10   R(10,11)                1.6404         estimate D2E/DX2                !
 ! R11   R(10,12)                1.4443         estimate D2E/DX2                !
 ! R12   R(10,13)                1.4387         estimate D2E/DX2                !
 ! A1    A(2,1,3)              117.9705         estimate D2E/DX2                !
 ! A2    A(2,1,4)              125.7457         estimate D2E/DX2                !
 ! A3    A(3,1,4)              116.282          estimate D2E/DX2                !
 ! A4    A(1,3,9)              107.2519         estimate D2E/DX2                !
 ! A5    A(1,4,5)              121.9026         estimate D2E/DX2                !
 ! A6    A(1,4,6)              113.9693         estimate D2E/DX2                !
 ! A7    A(5,4,6)              123.9607         estimate D2E/DX2                !
 ! A8    A(9,8,10)             132.1535         estimate D2E/DX2                !
 ! A9    A(8,10,11)            106.7703         estimate D2E/DX2                !
 ! A10   A(8,10,12)            112.2666         estimate D2E/DX2                !
 ! A11   A(8,10,13)            112.7306         estimate D2E/DX2                !
 ! A12   A(11,10,12)           102.8319         estimate D2E/DX2                !
 ! A13   A(11,10,13)           103.6198         estimate D2E/DX2                !
 ! A14   A(12,10,13)           117.1352         estimate D2E/DX2                !
 ! A15   A(7,11,10)            110.4481         estimate D2E/DX2                !
 ! A16   L(3,9,8,4,-1)         183.0376         estimate D2E/DX2                !
 ! A17   L(3,9,8,4,-2)         170.5257         estimate D2E/DX2                !
 ! D1    D(2,1,3,9)           -146.2358         estimate D2E/DX2                !
 ! D2    D(4,1,3,9)             33.2986         estimate D2E/DX2                !
 ! D3    D(2,1,4,5)           -175.6491         estimate D2E/DX2                !
 ! D4    D(2,1,4,6)             -0.1762         estimate D2E/DX2                !
 ! D5    D(3,1,4,5)              4.8576         estimate D2E/DX2                !
 ! D6    D(3,1,4,6)           -179.6695         estimate D2E/DX2                !
 ! D7    D(1,3,8,10)           -15.8875         estimate D2E/DX2                !
 ! D8    D(9,8,10,11)           61.6891         estimate D2E/DX2                !
 ! D9    D(9,8,10,12)          -50.2756         estimate D2E/DX2                !
 ! D10   D(9,8,10,13)          174.8239         estimate D2E/DX2                !
 ! D11   D(8,10,11,7)          -64.0244         estimate D2E/DX2                !
 ! D12   D(12,10,11,7)          54.3041         estimate D2E/DX2                !
 ! D13   D(13,10,11,7)         176.7496         estimate D2E/DX2                !
 --------------------------------------------------------------------------------
 Trust Radius=3.00D-01 FncErr=1.00D-07 GrdErr=1.00D-06
 Number of steps in this run=     52 maximum allowed number of steps=    100.
 GradGradGradGradGradGradGradGradGradGradGradGradGradGradGradGradGradGrad

                          Input orientation:                          
 ---------------------------------------------------------------------
 Center     Atomic      Atomic             Coordinates (Angstroms)
 Number     Number       Type             X           Y           Z
 ---------------------------------------------------------------------
      1          7           0       -2.384038   -0.020565    0.041333
      2          8           0       -3.372163   -0.176221   -0.581865
      3          8           0       -1.962988    1.199015    0.225052
      4          6           0       -1.644015   -0.983462    0.573153
      5          1           0       -0.770825   -0.764010    1.203061
      6          1           0       -2.027438   -1.988264    0.391929
      7          1           0        0.269614   -1.402560   -0.951997
      8          8           0        0.522780    1.171763    0.009798
      9          1           0       -0.961846    1.169036    0.236903
     10         16           0        1.552257    0.069102    0.030507
     11          8           0        1.136056   -0.989286   -1.151699
     12          8           0        1.467597   -0.736244    1.226397
     13          8           0        2.859560    0.521584   -0.364716
 ---------------------------------------------------------------------
                    Distance matrix (angstroms):
                    1          2          3          4          5
     1  N    0.000000
     2  O    1.178557   0.000000
     3  O    1.303231   2.127948   0.000000
     4  C    1.325759   2.229843   2.232963   0.000000
     5  H    2.122446   3.209115   2.496241   1.098819   0.000000
     6  H    2.030251   2.457653   3.192295   1.090634   1.932824
     7  H    3.152536   3.860498   3.624658   2.482680   2.476799
     8  O    3.142011   4.163857   2.495219   3.107630   2.616201
     9  H    1.864411   2.879188   1.001661   2.282907   2.169474
    10  S    3.937331   4.968410   3.697499   3.408594   2.732338
    11  O    3.840938   4.616256   4.035862   3.271688   3.038394
    12  O    4.092880   5.196798   4.064091   3.189040   2.238716
    13  O    5.287166   6.274429   4.905477   4.840139   4.158169
                    6          7          8          9         10
     6  H    0.000000
     7  H    2.725002   0.000000
     8  O    4.078653   2.759761   0.000000
     9  H    3.335875   3.089188   1.501898   0.000000
    10  S    4.144586   2.185469   1.508679   2.751939   0.000000
    11  O    3.659022   0.980509   2.528896   3.314779   1.640433
    12  O    3.805149   2.573818   2.452200   3.242126   1.444265
    13  O    5.545683   3.279489   2.454289   3.922280   1.438743
                   11         12         13
    11  O    0.000000
    12  O    2.414392   0.000000
    13  O    2.423332   2.459946   0.000000
 Stoichiometry    CH4NO6S(1-)
 Framework group  C1[X(CH4NO6S)]
 Deg. of freedom    33
 Full point group                 C1      NOp   1
 Largest Abelian subgroup         C1      NOp   1
 Largest concise Abelian subgroup C1      NOp   1
                         Standard orientation:                         
 ---------------------------------------------------------------------
 Center     Atomic      Atomic             Coordinates (Angstroms)
 Number     Number       Type             X           Y           Z
 ---------------------------------------------------------------------
      1          7           0       -2.384038   -0.020565    0.041333
      2          8           0       -3.372163   -0.176221   -0.581865
      3          8           0       -1.962988    1.199015    0.225052
      4          6           0       -1.644015   -0.983462    0.573153
      5          1           0       -0.770825   -0.764010    1.203061
      6          1           0       -2.027438   -1.988264    0.391929
      7          1           0        0.269614   -1.402560   -0.951997
      8          8           0        0.522780    1.171763    0.009798
      9          1           0       -0.961846    1.169036    0.236903
     10         16           0        1.552257    0.069102    0.030507
     11          8           0        1.136056   -0.989286   -1.151699
     12          8           0        1.467597   -0.736244    1.226397
     13          8           0        2.859560    0.521584   -0.364716
 ---------------------------------------------------------------------
 Rotational constants (GHZ):      3.2828442      0.7337852      0.6996917
 Standard basis: def2SVP (5D, 7F)
 There are   159 symmetry adapted cartesian basis functions of A   symmetry.
 There are   150 symmetry adapted basis functions of A   symmetry.
   150 basis functions,   265 primitive gaussians,   159 cartesian basis functions
    41 alpha electrons       41 beta electrons
       nuclear repulsion energy       619.7396580144 Hartrees.
 NAtoms=   13 NActive=   13 NUniq=   13 SFac= 1.00D+00 NAtFMM=   60 NAOKFM=F Big=F
 Integral buffers will be    131072 words long.
 Raffenetti 2 integral format.
 Two-electron integral symmetry is turned on.
 ------------------------------------------------------------------------------
 Polarizable Continuum Model (PCM)
 =================================
 Model                : C-PCM.
 Atomic radii         : UFF (Universal Force Field).
 Polarization charges : Total charges.
 Charge compensation  : None.
 Solution method      : On-the-fly selection.
 Cavity type          : Scaled VdW (van der Waals Surface) (Alpha=1.100).
 Cavity algorithm     : GePol (No added spheres)
                        Default sphere list used, NSphG=   13.
                        Lebedev-Laikov grids with approx.  5.0 points / Ang**2.
                        Smoothing algorithm: Karplus/York (Gamma=1.0000).
                        Polarization charges: spherical gaussians, with
                                              point-specific exponents (IZeta= 3).
                        Self-potential: point-specific (ISelfS= 7).
                        Self-field    : sphere-specific E.n sum rule (ISelfD= 2).
 1st derivatives      : Analytical E(r).r(x)/FMM algorithm (CHGder, D1EAlg=3).
                        Cavity 1st derivative terms included.
 Solvent              : NitroMethane, Eps=  36.562000 Eps(inf)=   1.909095
 ------------------------------------------------------------------------------
 Spheres list:
 ISph  on   Nord     Re0    Alpha      Xe            Ye            Ze
    1   N      1    1.8300  1.100     -2.384038     -0.020565      0.041333
    2   O      2    1.7500  1.100     -3.372163     -0.176221     -0.581865
    3   O      3    1.7500  1.100     -1.962988      1.199015      0.225052
    4   C      4    1.9255  1.100     -1.644015     -0.983462      0.573153
    5   H      5    1.4430  1.100     -0.770825     -0.764010      1.203061
    6   H      6    1.4430  1.100     -2.027438     -1.988264      0.391929
    7   H      7    1.4430  1.100      0.269614     -1.402560     -0.951997
    8   O      8    1.7500  1.100      0.522780      1.171763      0.009798
    9   H      9    1.4430  1.100     -0.961846      1.169036      0.236903
   10   S     10    2.0175  1.100      1.552257      0.069102      0.030507
   11   O     11    1.7500  1.100      1.136056     -0.989286     -1.151699
   12   O     12    1.7500  1.100      1.467597     -0.736244      1.226397
   13   O     13    1.7500  1.100      2.859560      0.521584     -0.364716
 ------------------------------------------------------------------------------
 One-electron integrals computed using PRISM.
   1 Symmetry operations used in ECPInt.
 ECPInt:  NShTT=    2346 NPrTT=    9184 LenC2=    2262 LenP2D=    6666.
 LDataN:  DoStor=T MaxTD1= 4 Len=   56
 NBasis=   150 RedAO= T EigKep=  4.86D-03  NBF=   150
 NBsUse=   150 1.00D-06 EigRej= -1.00D+00 NBFU=   150
 ExpMin= 1.22D-01 ExpMax= 9.18D+03 ExpMxC= 1.38D+03 IAcc=3 IRadAn=         5 AccDes= 0.00D+00
 Harris functional with IExCor= 1009 and IRadAn=       5 diagonalized for initial guess.
 HarFok:  IExCor= 1009 AccDes= 0.00D+00 IRadAn=         5 IDoV= 1 UseB2=F ITyADJ=14
 ICtDFT=  3500011 ScaDFX=  1.000000  1.000000  1.000000  1.000000
 FoFCou: FMM=F IPFlag=           0 FMFlag=      100000 FMFlg1=           0
         NFxFlg=           0 DoJE=T BraDBF=F KetDBF=T FulRan=T
         wScrn=  0.000000 ICntrl=     500 IOpCl=  0 I1Cent=   200000004 NGrid=           0
         NMat0=    1 NMatS0=      1 NMatT0=    0 NMatD0=    1 NMtDS0=    0 NMtDT0=    0
 Petite list used in FoFCou.
 Requested convergence on RMS density matrix=1.00D-08 within 128 cycles.
 Requested convergence on MAX density matrix=1.00D-06.
 Requested convergence on             energy=1.00D-06.
 No special actions if energy rises.
 Inv3:  Mode=1 IEnd=     5540643.
 Iteration    1 A*A^-1 deviation from unit magnitude is 3.33D-15 for   1355.
 Iteration    1 A*A^-1 deviation from orthogonality  is 2.17D-15 for   1332    712.
 Iteration    1 A^-1*A deviation from unit magnitude is 3.33D-15 for   1355.
 Iteration    1 A^-1*A deviation from orthogonality  is 2.63D-15 for   1328    336.
 Error on total polarization charges =  0.00394
 SCF Done:  E(RM062X) =  -944.005734575     A.U. after   13 cycles
            NFock= 13  Conv=0.53D-08     -V/T= 2.0045

 **********************************************************************

            Population analysis using the SCF density.

 **********************************************************************

 Orbital symmetries:
       Occupied  (A) (A) (A) (A) (A) (A) (A) (A) (A) (A) (A) (A)
                 (A) (A) (A) (A) (A) (A) (A) (A) (A) (A) (A) (A)
                 (A) (A) (A) (A) (A) (A) (A) (A) (A) (A) (A) (A)
                 (A) (A) (A) (A) (A)
       Virtual   (A) (A) (A) (A) (A) (A) (A) (A) (A) (A) (A) (A)
                 (A) (A) (A) (A) (A) (A) (A) (A) (A) (A) (A) (A)
                 (A) (A) (A) (A) (A) (A) (A) (A) (A) (A) (A) (A)
                 (A) (A) (A) (A) (A) (A) (A) (A) (A) (A) (A) (A)
                 (A) (A) (A) (A) (A) (A) (A) (A) (A) (A) (A) (A)
                 (A) (A) (A) (A) (A) (A) (A) (A) (A) (A) (A) (A)
                 (A) (A) (A) (A) (A) (A) (A) (A) (A) (A) (A) (A)
                 (A) (A) (A) (A) (A) (A) (A) (A) (A) (A) (A) (A)
                 (A) (A) (A) (A) (A) (A) (A) (A) (A) (A) (A) (A)
                 (A)
 The electronic state is 1-A.
 Alpha  occ. eigenvalues --  -90.14337 -19.65977 -19.64810 -19.62031 -19.60598
 Alpha  occ. eigenvalues --  -19.59954 -19.59481 -14.96638 -10.56653  -8.46955
 Alpha  occ. eigenvalues --   -6.39511  -6.39374  -6.39370  -1.34170  -1.25999
 Alpha  occ. eigenvalues --   -1.16420  -1.11232  -1.09442  -1.07975  -0.91517
 Alpha  occ. eigenvalues --   -0.74444  -0.69580  -0.62822  -0.61057  -0.60345
 Alpha  occ. eigenvalues --   -0.58538  -0.55339  -0.55059  -0.50944  -0.49568
 Alpha  occ. eigenvalues --   -0.45718  -0.43661  -0.41413  -0.41000  -0.40371
 Alpha  occ. eigenvalues --   -0.40136  -0.36527  -0.36240  -0.35060  -0.33292
 Alpha  occ. eigenvalues --   -0.27474
 Alpha virt. eigenvalues --    0.03042   0.12551   0.16418   0.17934   0.19201
 Alpha virt. eigenvalues --    0.19947   0.23621   0.25503   0.26324   0.27382
 Alpha virt. eigenvalues --    0.36175   0.40226   0.42953   0.50425   0.56629
 Alpha virt. eigenvalues --    0.58979   0.62097   0.64274   0.66696   0.71124
 Alpha virt. eigenvalues --    0.72029   0.72618   0.73202   0.74683   0.75322
 Alpha virt. eigenvalues --    0.76560   0.81846   0.87111   0.92248   0.93846
 Alpha virt. eigenvalues --    0.96522   0.98785   0.99694   1.00530   1.01669
 Alpha virt. eigenvalues --    1.04089   1.07114   1.08552   1.10515   1.11392
 Alpha virt. eigenvalues --    1.12850   1.14694   1.16054   1.17818   1.18451
 Alpha virt. eigenvalues --    1.22921   1.26490   1.28049   1.31657   1.33379
 Alpha virt. eigenvalues --    1.35699   1.36004   1.39235   1.41784   1.45362
 Alpha virt. eigenvalues --    1.50738   1.52914   1.54547   1.57995   1.59514
 Alpha virt. eigenvalues --    1.68122   1.71672   1.76998   1.77525   1.79928
 Alpha virt. eigenvalues --    1.91067   1.96964   2.00825   2.06340   2.21675
 Alpha virt. eigenvalues --    2.25732   2.28605   2.32612   2.38207   2.46708
 Alpha virt. eigenvalues --    2.56164   2.65738   2.67477   2.68874   2.70834
 Alpha virt. eigenvalues --    2.71252   2.71782   2.71984   2.72912   2.73689
 Alpha virt. eigenvalues --    2.78994   2.79654   2.86578   2.90544   2.93336
 Alpha virt. eigenvalues --    2.95529   2.98257   3.00998   3.02900   3.03613
 Alpha virt. eigenvalues --    3.08812   3.12291   3.14730   3.21239   3.31495
 Alpha virt. eigenvalues --    3.31952   3.36094   3.47270   3.49858   3.51978
 Alpha virt. eigenvalues --    3.64759   3.73639   3.86014   3.96542
          Condensed to atoms (all electrons):
               1          2          3          4          5          6
     1  N    5.772099   0.320248   0.191902   0.534394  -0.011151  -0.017029
     2  O    0.320248   8.247633  -0.103399  -0.095730   0.004253   0.003363
     3  O    0.191902  -0.103399   7.970891  -0.097395   0.002255   0.005659
     4  C    0.534394  -0.095730  -0.097395   5.080641   0.342490   0.384397
     5  H   -0.011151   0.004253   0.002255   0.342490   0.563636  -0.026145
     6  H   -0.017029   0.003363   0.005659   0.384397  -0.026145   0.576844
     7  H    0.001312  -0.000424  -0.000049   0.020937  -0.002426   0.000965
     8  O   -0.002856  -0.000070  -0.044455   0.004326   0.000403   0.000355
     9  H   -0.014672   0.003560   0.315408   0.004230   0.000225  -0.000973
    10  S    0.000215  -0.000010   0.001056   0.008038  -0.001003  -0.000119
    11  O   -0.000477   0.000008  -0.000036  -0.005268  -0.000031  -0.000201
    12  O    0.000242  -0.000001  -0.000008  -0.020265   0.039093   0.000097
    13  O   -0.000001   0.000000  -0.000004  -0.000039   0.000463   0.000001
               7          8          9         10         11         12
     1  N    0.001312  -0.002856  -0.014672   0.000215  -0.000477   0.000242
     2  O   -0.000424  -0.000070   0.003560  -0.000010   0.000008  -0.000001
     3  O   -0.000049  -0.044455   0.315408   0.001056  -0.000036  -0.000008
     4  C    0.020937   0.004326   0.004230   0.008038  -0.005268  -0.020265
     5  H   -0.002426   0.000403   0.000225  -0.001003  -0.000031   0.039093
     6  H    0.000965   0.000355  -0.000973  -0.000119  -0.000201   0.000097
     7  H    0.437224   0.002860  -0.000301  -0.010320   0.316692   0.005619
     8  O    0.002860   8.355666   0.091816   0.393216  -0.047812  -0.059184
     9  H   -0.000301   0.091816   0.378673  -0.008313   0.001731   0.001304
    10  S   -0.010320   0.393216  -0.008313  13.216452   0.256994   0.470204
    11  O    0.316692  -0.047812   0.001731   0.256994   8.037694  -0.063333
    12  O    0.005619  -0.059184   0.001304   0.470204  -0.063333   8.250437
    13  O    0.002494  -0.052091   0.000375   0.503403  -0.048004  -0.050698
              13
     1  N   -0.000001
     2  O    0.000000
     3  O   -0.000004
     4  C   -0.000039
     5  H    0.000463
     6  H    0.000001
     7  H    0.002494
     8  O   -0.052091
     9  H    0.000375
    10  S    0.503403
    11  O   -0.048004
    12  O   -0.050698
    13  O    8.207492
 Mulliken charges:
               1
     1  N    0.225774
     2  O   -0.379431
     3  O   -0.241825
     4  C   -0.160757
     5  H    0.087939
     6  H    0.072786
     7  H    0.225418
     8  O   -0.642174
     9  H    0.226936
    10  S    1.170187
    11  O   -0.447957
    12  O   -0.573508
    13  O   -0.563389
 Sum of Mulliken charges =  -1.00000
 Mulliken charges with hydrogens summed into heavy atoms:
               1
     1  N    0.225774
     2  O   -0.379431
     3  O   -0.014889
     4  C   -0.000031
     8  O   -0.642174
    10  S    1.170187
    11  O   -0.222538
    12  O   -0.573508
    13  O   -0.563389
 Electronic spatial extent (au):  <R**2>=           1594.6285
 Charge=             -1.0000 electrons
 Dipole moment (field-independent basis, Debye):
    X=             -2.5204    Y=             -2.5602    Z=              0.4744  Tot=              3.6238
 Quadrupole moment (field-independent basis, Debye-Ang):
   XX=            -98.3030   YY=            -62.8183   ZZ=            -65.1797
   XY=              2.3784   XZ=             -2.5384   YZ=              2.1304
 Traceless Quadrupole moment (field-independent basis, Debye-Ang):
   XX=            -22.8694   YY=             12.6154   ZZ=             10.2540
   XY=              2.3784   XZ=             -2.5384   YZ=              2.1304
 Octapole moment (field-independent basis, Debye-Ang**2):
  XXX=             22.4906  YYY=             -7.5742  ZZZ=             -5.4706  XYY=             -4.2567
  XXY=             -7.1288  XXZ=             17.6039  XZZ=             -4.7489  YZZ=              6.6383
  YYZ=             -2.5638  XYZ=              3.5185
 Hexadecapole moment (field-independent basis, Debye-Ang**3):
 XXXX=          -1823.2980 YYYY=           -262.1065 ZZZZ=           -196.4421 XXXY=            -27.8875
 XXXZ=            -28.7315 YYYX=              6.3506 YYYZ=              6.4490 ZZZX=              2.8979
 ZZZY=              6.2133 XXYY=           -298.0626 XXZZ=           -292.2807 YYZZ=            -78.8684
 XXYZ=              4.8886 YYXZ=              3.1205 ZZXY=              4.4097
 N-N= 6.197396580144D+02 E-N=-3.484425310962D+03  KE= 9.398027572195D+02
   1 Symmetry operations used in ECPInt.
 ECPInt:  NShTT=    2346 NPrTT=    9184 LenC2=    2262 LenP2D=    6666.
 LDataN:  DoStor=T MaxTD1= 5 Len=  102
 D1PCM: C-PCM CHGder 1st derivatives, ID1Alg=3 FixD1E=F DoIter=F DoCFld=F I1PDM=0.
 Calling FoFJK, ICntrl=      2127 FMM=F ISym2X=0 I1Cent= 0 IOpClX= 0 NMat=1 NMatS=1 NMatT=0.
 ***** Axes restored to original set *****
 -------------------------------------------------------------------
 Center     Atomic                   Forces (Hartrees/Bohr)
 Number     Number              X              Y              Z
 -------------------------------------------------------------------
      1        7           0.068432283   -0.046839815    0.043638701
      2        8          -0.069466125   -0.001706142   -0.041301008
      3        8          -0.005295355    0.046690199    0.001853440
      4        6          -0.003810742   -0.005083548   -0.000499437
      5        1          -0.008970305    0.001276460   -0.005389474
      6        1           0.002466044    0.001810115    0.001294295
      7        1           0.006397101    0.006213857    0.002247381
      8        8           0.014304907   -0.013777407   -0.003459204
      9        1           0.013548235    0.001929376   -0.000711919
     10       16          -0.029012763    0.005651058   -0.012749908
     11        8          -0.004321747    0.006504083   -0.004746286
     12        8           0.001477851   -0.008435640    0.026492547
     13        8           0.014250616    0.005767404   -0.006669128
 -------------------------------------------------------------------
 Cartesian Forces:  Max     0.069466125 RMS     0.022951618

 GradGradGradGradGradGradGradGradGradGradGradGradGradGradGradGradGradGrad
 Berny optimization.
 FormGI is forming the generalized inverse of G from B-inverse, IUseBI=4.
 Internal  Forces:  Max     0.080304917 RMS     0.017299929
 Search for a local minimum.
 Step number   1 out of a maximum of   52
 All quantities printed in internal units (Hartrees-Bohrs-Radians)
 Mixed Optimization -- RFO/linear search
 Second derivative matrix not updated -- first step.
 ITU=  0
     Eigenvalues ---    0.00230   0.00230   0.00230   0.02084   0.02575
     Eigenvalues ---    0.02645   0.02674   0.02698   0.03827   0.11284
     Eigenvalues ---    0.14509   0.14728   0.16000   0.16000   0.16000
     Eigenvalues ---    0.16000   0.16000   0.18547   0.22094   0.25000
     Eigenvalues ---    0.25000   0.25000   0.33813   0.34739   0.44132
     Eigenvalues ---    0.47398   0.51286   0.60519   0.66304   0.73873
     Eigenvalues ---    0.98546   1.01146   1.16381
 RFO step:  Lambda=-2.14847687D-02 EMin= 2.30000000D-03
 Linear search not attempted -- first point.
 Maximum step size (   0.300) exceeded in Quadratic search.
    -- Step size scaled by   0.850
 Iteration  1 RMS(Cart)=  0.29486137 RMS(Int)=  0.01836431
 Iteration  2 RMS(Cart)=  0.10185567 RMS(Int)=  0.00159593
 Iteration  3 RMS(Cart)=  0.00379478 RMS(Int)=  0.00027234
 Iteration  4 RMS(Cart)=  0.00000301 RMS(Int)=  0.00027234
 Iteration  5 RMS(Cart)=  0.00000000 RMS(Int)=  0.00027234
 Variable       Old X    -DE/DX   Delta X   Delta X   Delta X     New X
                                 (Linear)    (Quad)   (Total)
    R1        2.22715   0.08030   0.00000   0.05756   0.05756   2.28471
    R2        2.46275   0.05137   0.00000   0.06377   0.06377   2.52652
    R3        2.50532  -0.00624   0.00000  -0.00846  -0.00846   2.49686
    R4        1.89286   0.01664   0.00000   0.02854   0.02854   1.92141
    R5        2.07647  -0.00996   0.00000  -0.02354  -0.02354   2.05293
    R6        2.06100  -0.00275   0.00000  -0.00632  -0.00632   2.05467
    R7        1.85289  -0.00782   0.00000  -0.01243  -0.01243   1.84046
    R8        2.83818   0.00283   0.00000   0.01793   0.01793   2.85610
    R9        2.85099  -0.01907   0.00000  -0.02132  -0.02132   2.82967
   R10        3.09997  -0.00693   0.00000  -0.01272  -0.01272   3.08724
   R11        2.72927   0.02655   0.00000   0.02240   0.02240   2.75167
   R12        2.71883   0.01660   0.00000   0.01365   0.01365   2.73248
    A1        2.05897  -0.01769   0.00000  -0.05527  -0.05556   2.00341
    A2        2.19468   0.00202   0.00000   0.00643   0.00612   2.20080
    A3        2.02950   0.01569   0.00000   0.04919   0.04889   2.07840
    A4        1.87190   0.01539   0.00000   0.07205   0.07205   1.94395
    A5        2.12760  -0.00590   0.00000  -0.02786  -0.02789   2.09971
    A6        1.98914   0.00484   0.00000   0.02241   0.02239   2.01153
    A7        2.16352   0.00101   0.00000   0.00451   0.00448   2.16800
    A8        2.30651   0.00229   0.00000   0.01071   0.01071   2.31722
    A9        1.86349  -0.01466   0.00000  -0.04672  -0.04688   1.81661
   A10        1.95942  -0.00035   0.00000   0.00230   0.00272   1.96215
   A11        1.96752   0.00013   0.00000  -0.00929  -0.00983   1.95770
   A12        1.79476   0.01630   0.00000   0.06290   0.06294   1.85770
   A13        1.80851  -0.00036   0.00000  -0.00851  -0.00919   1.79932
   A14        2.04439  -0.00119   0.00000  -0.00021  -0.00045   2.04395
   A15        1.92768  -0.00894   0.00000  -0.04184  -0.04184   1.88585
   A16        3.19461   0.00674   0.00000   0.24076   0.24076   3.43537
   A17        2.97624   0.00088   0.00000   0.03138   0.03138   3.00761
    D1       -2.55230  -0.00139   0.00000  -0.02419  -0.02369  -2.57599
    D2        0.58117   0.00111   0.00000   0.01916   0.01866   0.59983
    D3       -3.06566   0.00211   0.00000   0.03756   0.03777  -3.02788
    D4       -0.00308   0.00141   0.00000   0.02522   0.02543   0.02236
    D5        0.08478  -0.00051   0.00000  -0.00931  -0.00953   0.07525
    D6       -3.13582  -0.00121   0.00000  -0.02165  -0.02187   3.12549
    D7       -0.27729  -0.00354   0.00000  -0.12655  -0.12655  -0.40384
    D8        1.07668   0.00498   0.00000   0.00738   0.00703   1.08371
    D9       -0.87748  -0.00592   0.00000  -0.04208  -0.04211  -0.91958
   D10        3.05125  -0.00395   0.00000  -0.03482  -0.03445   3.01681
   D11       -1.11744  -0.00224   0.00000  -0.01017  -0.00944  -1.12687
   D12        0.94779  -0.00123   0.00000   0.00200   0.00140   0.94919
   D13        3.08486   0.00433   0.00000   0.02532   0.02519   3.11005
         Item               Value     Threshold  Converged?
 Maximum Force            0.080305     0.000450     NO 
 RMS     Force            0.017300     0.000300     NO 
 Maximum Displacement     1.191466     0.001800     NO 
 RMS     Displacement     0.384850     0.001200     NO 
 Predicted change in Energy=-1.170854D-02
 GradGradGradGradGradGradGradGradGradGradGradGradGradGradGradGradGradGrad

                          Input orientation:                          
 ---------------------------------------------------------------------
 Center     Atomic      Atomic             Coordinates (Angstroms)
 Number     Number       Type             X           Y           Z
 ---------------------------------------------------------------------
      1          7           0       -2.539273   -0.024371    0.077541
      2          8           0       -3.598732    0.088787   -0.493829
      3          8           0       -1.855853    1.115596    0.222149
      4          6           0       -2.044083   -1.138952    0.585752
      5          1           0       -1.130447   -1.115100    1.173019
      6          1           0       -2.657935   -2.025387    0.445708
      7          1           0        0.637696   -1.425412   -0.839441
      8          8           0        0.624215    1.127411   -0.075237
      9          1           0       -0.852655    0.952454    0.194078
     10         16           0        1.787515    0.186627   -0.013114
     11          8           0        1.437718   -0.952482   -1.130721
     12          8           0        1.875530   -0.504124    1.265715
     13          8           0        3.000855    0.784841   -0.523765
 ---------------------------------------------------------------------
                    Distance matrix (angstroms):
                    1          2          3          4          5
     1  N    0.000000
     2  O    1.209018   0.000000
     3  O    1.336974   2.145831   0.000000
     4  C    1.321281   2.256053   2.291425   0.000000
     5  H    2.091543   3.212500   2.531081   1.086362   0.000000
     6  H    2.038061   2.497511   3.249475   1.087287   1.921151
     7  H    3.591226   4.512158   3.715035   3.050438   2.696779
     8  O    3.370104   4.368895   2.497862   3.562741   3.108993
     9  H    1.952549   2.959743   1.016765   2.438625   2.304403
    10  S    4.332878   5.408542   3.767289   4.098408   3.408212
    11  O    4.258843   5.182249   4.117623   3.886385   3.453858
    12  O    4.596999   5.780578   4.199493   4.028489   3.068840
    13  O    5.631111   6.636260   4.924775   5.512115   4.853505
                    6          7          8          9         10
     6  H    0.000000
     7  H    3.587863   0.000000
     8  O    4.580833   2.664788   0.000000
     9  H    3.491402   2.990577   1.511385   0.000000
    10  S    4.986537   2.145593   1.497398   2.756795   0.000000
    11  O    4.517811   0.973931   2.470180   3.260319   1.633700
    12  O    4.851696   2.610112   2.454761   3.273075   1.456121
    13  O    6.392117   3.251060   2.442734   3.923383   1.445966
                   11         12         13
    11  O    0.000000
    12  O    2.477017   0.000000
    13  O    2.414558   2.475890   0.000000
 Stoichiometry    CH4NO6S(1-)
 Framework group  C1[X(CH4NO6S)]
 Deg. of freedom    33
 Full point group                 C1      NOp   1
 Largest Abelian subgroup         C1      NOp   1
 Largest concise Abelian subgroup C1      NOp   1
                         Standard orientation:                         
 ---------------------------------------------------------------------
 Center     Atomic      Atomic             Coordinates (Angstroms)
 Number     Number       Type             X           Y           Z
 ---------------------------------------------------------------------
      1          7           0       -2.621714   -0.011047    0.027554
      2          8           0       -3.663049    0.239059   -0.533508
      3          8           0       -1.903984    1.060195    0.380830
      4          6           0       -2.176321   -1.214653    0.341782
      5          1           0       -1.276459   -1.327277    0.939901
      6          1           0       -2.816134   -2.039784    0.038481
      7          1           0        0.527091   -1.348354   -1.064940
      8          8           0        0.581388    1.031362    0.133015
      9          1           0       -0.906448    0.867248    0.342052
     10         16           0        1.710654    0.051534    0.049987
     11          8           0        1.349170   -0.862040   -1.255267
     12          8           0        1.745331   -0.853892    1.189851
     13          8           0        2.955070    0.683925   -0.327277
 ---------------------------------------------------------------------
 Rotational constants (GHZ):      3.2924808      0.6214689      0.5973776
 Standard basis: def2SVP (5D, 7F)
 There are   159 symmetry adapted cartesian basis functions of A   symmetry.
 There are   150 symmetry adapted basis functions of A   symmetry.
   150 basis functions,   265 primitive gaussians,   159 cartesian basis functions
    41 alpha electrons       41 beta electrons
       nuclear repulsion energy       599.3266931563 Hartrees.
 NAtoms=   13 NActive=   13 NUniq=   13 SFac= 1.00D+00 NAtFMM=   60 NAOKFM=F Big=F
 Integral buffers will be    131072 words long.
 Raffenetti 2 integral format.
 Two-electron integral symmetry is turned on.
 ------------------------------------------------------------------------------
 Polarizable Continuum Model (PCM)
 =================================
 Model                : C-PCM.
 Atomic radii         : UFF (Universal Force Field).
 Polarization charges : Total charges.
 Charge compensation  : None.
 Solution method      : On-the-fly selection.
 Cavity type          : Scaled VdW (van der Waals Surface) (Alpha=1.100).
 Cavity algorithm     : GePol (No added spheres)
                        Default sphere list used, NSphG=   13.
                        Lebedev-Laikov grids with approx.  5.0 points / Ang**2.
                        Smoothing algorithm: Karplus/York (Gamma=1.0000).
                        Polarization charges: spherical gaussians, with
                                              point-specific exponents (IZeta= 3).
                        Self-potential: point-specific (ISelfS= 7).
                        Self-field    : sphere-specific E.n sum rule (ISelfD= 2).
 1st derivatives      : Analytical E(r).r(x)/FMM algorithm (CHGder, D1EAlg=3).
                        Cavity 1st derivative terms included.
 Solvent              : NitroMethane, Eps=  36.562000 Eps(inf)=   1.909095
 ------------------------------------------------------------------------------
 Spheres list:
 ISph  on   Nord     Re0    Alpha      Xe            Ye            Ze
    1   N      1    1.8300  1.100     -2.621714     -0.011047      0.027554
    2   O      2    1.7500  1.100     -3.663049      0.239059     -0.533508
    3   O      3    1.7500  1.100     -1.903984      1.060195      0.380830
    4   C      4    1.9255  1.100     -2.176321     -1.214653      0.341782
    5   H      5    1.4430  1.100     -1.276459     -1.327277      0.939901
    6   H      6    1.4430  1.100     -2.816134     -2.039784      0.038481
    7   H      7    1.4430  1.100      0.527091     -1.348354     -1.064940
    8   O      8    1.7500  1.100      0.581388      1.031362      0.133015
    9   H      9    1.4430  1.100     -0.906448      0.867248      0.342052
   10   S     10    2.0175  1.100      1.710654      0.051534      0.049987
   11   O     11    1.7500  1.100      1.349170     -0.862040     -1.255267
   12   O     12    1.7500  1.100      1.745331     -0.853892      1.189851
   13   O     13    1.7500  1.100      2.955070      0.683925     -0.327277
 ------------------------------------------------------------------------------
 One-electron integrals computed using PRISM.
   1 Symmetry operations used in ECPInt.
 ECPInt:  NShTT=    2346 NPrTT=    9184 LenC2=    2233 LenP2D=    6473.
 LDataN:  DoStor=T MaxTD1= 4 Len=   56
 NBasis=   150 RedAO= T EigKep=  5.81D-03  NBF=   150
 NBsUse=   150 1.00D-06 EigRej= -1.00D+00 NBFU=   150
 Initial guess from the checkpoint file:  "MeNO2_Na2SO4_TS3_product_opt_2.chk"
 B after Tr=     0.000000    0.000000    0.000000
         Rot=    0.996750   -0.080024    0.001389    0.009144 Ang=  -9.24 deg.
 ExpMin= 1.22D-01 ExpMax= 9.18D+03 ExpMxC= 1.38D+03 IAcc=2 IRadAn=         4 AccDes= 0.00D+00
 Harris functional with IExCor= 1009 and IRadAn=       4 diagonalized for initial guess.
 HarFok:  IExCor= 1009 AccDes= 0.00D+00 IRadAn=         4 IDoV= 1 UseB2=F ITyADJ=14
 ICtDFT=  3500011 ScaDFX=  1.000000  1.000000  1.000000  1.000000
 FoFCou: FMM=F IPFlag=           0 FMFlag=      100000 FMFlg1=           0
         NFxFlg=           0 DoJE=T BraDBF=F KetDBF=T FulRan=T
         wScrn=  0.000000 ICntrl=     500 IOpCl=  0 I1Cent=   200000004 NGrid=           0
         NMat0=    1 NMatS0=      1 NMatT0=    0 NMatD0=    1 NMtDS0=    0 NMtDT0=    0
 Petite list used in FoFCou.
 Requested convergence on RMS density matrix=1.00D-08 within 128 cycles.
 Requested convergence on MAX density matrix=1.00D-06.
 Requested convergence on             energy=1.00D-06.
 No special actions if energy rises.
 Inv3:  Mode=1 IEnd=     6108987.
 Iteration    1 A*A^-1 deviation from unit magnitude is 6.00D-15 for   1405.
 Iteration    1 A*A^-1 deviation from orthogonality  is 3.27D-15 for   1412    261.
 Iteration    1 A^-1*A deviation from unit magnitude is 6.00D-15 for   1405.
 Iteration    1 A^-1*A deviation from orthogonality  is 2.40D-15 for   1414    988.
 Error on total polarization charges =  0.00401
 SCF Done:  E(RM062X) =  -944.008920260     A.U. after   14 cycles
            NFock= 14  Conv=0.80D-08     -V/T= 2.0047
   1 Symmetry operations used in ECPInt.
 ECPInt:  NShTT=    2346 NPrTT=    9184 LenC2=    2233 LenP2D=    6473.
 LDataN:  DoStor=T MaxTD1= 5 Len=  102
 D1PCM: C-PCM CHGder 1st derivatives, ID1Alg=3 FixD1E=F DoIter=F DoCFld=F I1PDM=0.
 Calling FoFJK, ICntrl=      2127 FMM=F ISym2X=0 I1Cent= 0 IOpClX= 0 NMat=1 NMatS=1 NMatT=0.
 ***** Axes restored to original set *****
 -------------------------------------------------------------------
 Center     Atomic                   Forces (Hartrees/Bohr)
 Number     Number              X              Y              Z
 -------------------------------------------------------------------
      1        7           0.024109903   -0.025996822    0.019634244
      2        8          -0.025966269    0.003078967   -0.014440769
      3        8           0.004133437    0.011569693    0.002048987
      4        6          -0.004625292    0.009611167   -0.005499837
      5        1           0.001137651    0.002977314   -0.001111766
      6        1           0.002017090    0.000414073   -0.000223528
      7        1           0.002545623    0.000870939   -0.001795326
      8        8           0.004219255   -0.006709044    0.001403119
      9        1           0.001955915    0.001582836   -0.001397558
     10       16          -0.015331685    0.006901186   -0.003045535
     11        8          -0.002460441   -0.001649450    0.002720779
     12        8          -0.000471015   -0.004364967    0.004402168
     13        8           0.008735829    0.001714108   -0.002694979
 -------------------------------------------------------------------
 Cartesian Forces:  Max     0.025996822 RMS     0.009290977

 GradGradGradGradGradGradGradGradGradGradGradGradGradGradGradGradGradGrad
 Berny optimization.
 Using GEDIIS/GDIIS optimizer.
 FormGI is forming the generalized inverse of G from B-inverse, IUseBI=4.
 Internal  Forces:  Max     0.029865485 RMS     0.007878431
 Search for a local minimum.
 Step number   2 out of a maximum of   52
 All quantities printed in internal units (Hartrees-Bohrs-Radians)
 Mixed Optimization -- RFO/linear search
 Update second derivatives using D2CorX and points    1    2
 DE= -3.19D-03 DEPred=-1.17D-02 R= 2.72D-01
 Trust test= 2.72D-01 RLast= 3.36D-01 DXMaxT set to 3.00D-01
 ITU=  0  0
 Use linear search instead of GDIIS.
     Eigenvalues ---    0.00224   0.00230   0.00419   0.02085   0.02558
     Eigenvalues ---    0.02672   0.02697   0.02757   0.03889   0.11328
     Eigenvalues ---    0.14460   0.14813   0.15474   0.16000   0.16000
     Eigenvalues ---    0.16000   0.17591   0.19329   0.21842   0.24387
     Eigenvalues ---    0.24997   0.31405   0.34406   0.34712   0.44009
     Eigenvalues ---    0.46590   0.50478   0.54395   0.63583   0.73048
     Eigenvalues ---    0.92299   1.00274   1.04630
 RFO step:  Lambda=-2.89861062D-02 EMin= 2.24365157D-03
 Quartic linear search produced a step of -0.42995.
 Maximum step size (   0.300) exceeded in Quadratic search.
    -- Step size scaled by   0.382
 Iteration  1 RMS(Cart)=  0.23387306 RMS(Int)=  0.03054424
 Iteration  2 RMS(Cart)=  0.19858485 RMS(Int)=  0.00517222
 Iteration  3 RMS(Cart)=  0.00977463 RMS(Int)=  0.00011923
 Iteration  4 RMS(Cart)=  0.00001577 RMS(Int)=  0.00011899
 Iteration  5 RMS(Cart)=  0.00000000 RMS(Int)=  0.00011899
 Variable       Old X    -DE/DX   Delta X   Delta X   Delta X     New X
                                 (Linear)    (Quad)   (Total)
    R1        2.28471   0.02987  -0.02475   0.05214   0.02739   2.31210
    R2        2.52652   0.01026  -0.02742   0.05251   0.02510   2.55161
    R3        2.49686  -0.01413   0.00364  -0.01281  -0.00917   2.48769
    R4        1.92141  -0.00053  -0.01227   0.02067   0.00840   1.92981
    R5        2.05293   0.00042   0.01012  -0.01630  -0.00618   2.04675
    R6        2.05467  -0.00145   0.00272  -0.00560  -0.00288   2.05179
    R7        1.84046  -0.00305   0.00534  -0.01084  -0.00549   1.83497
    R8        2.85610  -0.00321  -0.00771   0.00310  -0.00461   2.85149
    R9        2.82967  -0.00762   0.00917  -0.01911  -0.00994   2.81973
   R10        3.08724  -0.00010   0.00547  -0.00935  -0.00388   3.08337
   R11        2.75167   0.00591  -0.00963   0.01903   0.00939   2.76106
   R12        2.73248   0.00899  -0.00587   0.01308   0.00721   2.73969
    A1        2.00341   0.00499   0.02389  -0.03204  -0.00813   1.99528
    A2        2.20080   0.00589  -0.00263   0.01041   0.00780   2.20860
    A3        2.07840  -0.01082  -0.02102   0.02185   0.00086   2.07925
    A4        1.94395  -0.02068  -0.03098   0.01203  -0.01895   1.92500
    A5        2.09971  -0.00498   0.01199  -0.02420  -0.01223   2.08748
    A6        2.01153   0.00363  -0.00963   0.01949   0.00985   2.02137
    A7        2.16800   0.00151  -0.00193   0.00538   0.00343   2.17144
    A8        2.31722  -0.01121  -0.00460  -0.01068  -0.01528   2.30194
    A9        1.81661   0.00046   0.02016  -0.03127  -0.01104   1.80557
   A10        1.96215  -0.00055  -0.00117   0.00009  -0.00125   1.96089
   A11        1.95770   0.00382   0.00422   0.00081   0.00525   1.96294
   A12        1.85770  -0.00249  -0.02706   0.03608   0.00901   1.86670
   A13        1.79932  -0.00143   0.00395  -0.00632  -0.00208   1.79724
   A14        2.04395  -0.00034   0.00019  -0.00138  -0.00109   2.04286
   A15        1.88585   0.00198   0.01799  -0.02235  -0.00436   1.88149
   A16        3.43537  -0.01864  -0.10352  -0.27617  -0.37969   3.05569
   A17        3.00761   0.00387  -0.01349   0.02231   0.00882   3.01643
    D1       -2.57599  -0.00216   0.01019  -0.01396  -0.00405  -2.58004
    D2        0.59983  -0.00431  -0.00802  -0.02081  -0.02855   0.57128
    D3       -3.02788  -0.00210  -0.01624  -0.00656  -0.02293  -3.05081
    D4        0.02236  -0.00026  -0.01094   0.00148  -0.00958   0.01278
    D5        0.07525   0.00025   0.00410   0.00027   0.00449   0.07975
    D6        3.12549   0.00208   0.00940   0.00831   0.01784  -3.13985
    D7       -0.40384   0.00223   0.05441   0.07510   0.12951  -0.27433
    D8        1.08371   0.00015  -0.00302   0.01583   0.01296   1.09668
    D9       -0.91958   0.00308   0.01810  -0.00889   0.00922  -0.91036
   D10        3.01681   0.00036   0.01481  -0.00776   0.00688   3.02369
   D11       -1.12687   0.00179   0.00406  -0.00489  -0.00112  -1.12799
   D12        0.94919   0.00027  -0.00060  -0.00343  -0.00380   0.94539
   D13        3.11005  -0.00204  -0.01083   0.00899  -0.00180   3.10826
         Item               Value     Threshold  Converged?
 Maximum Force            0.029865     0.000450     NO 
 RMS     Force            0.007878     0.000300     NO 
 Maximum Displacement     1.288367     0.001800     NO 
 RMS     Displacement     0.432810     0.001200     NO 
 Predicted change in Energy=-7.611939D-03
 GradGradGradGradGradGradGradGradGradGradGradGradGradGradGradGradGradGrad

                          Input orientation:                          
 ---------------------------------------------------------------------
 Center     Atomic      Atomic             Coordinates (Angstroms)
 Number     Number       Type             X           Y           Z
 ---------------------------------------------------------------------
      1          7           0       -2.344446   -0.069178    0.049810
      2          8           0       -3.410630   -0.197775   -0.536443
      3          8           0       -1.938097    1.210757    0.190639
      4          6           0       -1.599578   -1.036023    0.543134
      5          1           0       -0.714481   -0.789920    1.116831
      6          1           0       -1.976160   -2.043993    0.398010
      7          1           0        0.152986   -1.264686   -0.913667
      8          8           0        0.576678    1.186449   -0.018207
      9          1           0       -0.918404    1.262845    0.171029
     10         16           0        1.534060    0.044758    0.061985
     11          8           0        1.043098   -0.947225   -1.136848
     12          8           0        1.405739   -0.701240    1.311710
     13          8           0        2.873786    0.415120   -0.350127
 ---------------------------------------------------------------------
                    Distance matrix (angstroms):
                    1          2          3          4          5
     1  N    0.000000
     2  O    1.223510   0.000000
     3  O    1.350255   2.163554   0.000000
     4  C    1.316429   2.268932   2.299319   0.000000
     5  H    2.077207   3.217634   2.521463   1.083093   0.000000
     6  H    2.038817   2.517822   3.261572   1.085763   1.918655
     7  H    2.931671   3.738978   3.423440   2.290423   2.258500
     8  O    3.180282   4.252443   2.523549   3.160787   2.619434
     9  H    1.955141   2.974074   1.021211   2.426366   2.269354
    10  S    3.880199   4.986672   3.664966   3.349519   2.620176
    11  O    3.695210   4.556079   3.912369   3.132724   2.862324
    12  O    4.006967   5.183295   4.011704   3.120051   2.131003
    13  O    5.255896   6.316980   4.907105   4.786932   4.059525
                    6          7          8          9         10
     6  H    0.000000
     7  H    2.619367   0.000000
     8  O    4.138355   2.643752   0.000000
     9  H    3.479303   2.951754   1.508945   0.000000
    10  S    4.098468   2.138670   1.492136   2.740475   0.000000
    11  O    3.560142   0.971025   2.453869   3.231477   1.631648
    12  O    3.751676   2.615179   2.453444   3.249680   1.461092
    13  O    5.488983   3.246857   2.445777   3.920580   1.449783
                   11         12         13
    11  O    0.000000
    12  O    2.487459   0.000000
    13  O    2.413781   2.482564   0.000000
 Stoichiometry    CH4NO6S(1-)
 Framework group  C1[X(CH4NO6S)]
 Deg. of freedom    33
 Full point group                 C1      NOp   1
 Largest Abelian subgroup         C1      NOp   1
 Largest concise Abelian subgroup C1      NOp   1
                         Standard orientation:                         
 ---------------------------------------------------------------------
 Center     Atomic      Atomic             Coordinates (Angstroms)
 Number     Number       Type             X           Y           Z
 ---------------------------------------------------------------------
      1          7           0       -2.337924   -0.047654    0.054268
      2          8           0       -3.409724   -0.137991   -0.528881
      3          8           0       -1.924236    1.220397    0.264261
      4          6           0       -1.593485   -1.044275    0.485013
      5          1           0       -0.702307   -0.835129    1.063935
      6          1           0       -1.976138   -2.040690    0.285980
      7          1           0        0.145347   -1.196952   -0.997955
      8          8           0        0.588501    1.197231    0.032060
      9          1           0       -0.904511    1.269132    0.238605
     10         16           0        1.541045    0.048716    0.038503
     11          8           0        1.035017   -0.871102   -1.210555
     12          8           0        1.419914   -0.766838    1.244732
     13          8           0        2.878935    0.436230   -0.363686
 ---------------------------------------------------------------------
 Rotational constants (GHZ):      3.2845702      0.7410457      0.7082313
 Standard basis: def2SVP (5D, 7F)
 There are   159 symmetry adapted cartesian basis functions of A   symmetry.
 There are   150 symmetry adapted basis functions of A   symmetry.
   150 basis functions,   265 primitive gaussians,   159 cartesian basis functions
    41 alpha electrons       41 beta electrons
       nuclear repulsion energy       619.3176465868 Hartrees.
 NAtoms=   13 NActive=   13 NUniq=   13 SFac= 1.00D+00 NAtFMM=   60 NAOKFM=F Big=F
 Integral buffers will be    131072 words long.
 Raffenetti 2 integral format.
 Two-electron integral symmetry is turned on.
 ------------------------------------------------------------------------------
 Polarizable Continuum Model (PCM)
 =================================
 Model                : C-PCM.
 Atomic radii         : UFF (Universal Force Field).
 Polarization charges : Total charges.
 Charge compensation  : None.
 Solution method      : On-the-fly selection.
 Cavity type          : Scaled VdW (van der Waals Surface) (Alpha=1.100).
 Cavity algorithm     : GePol (No added spheres)
                        Default sphere list used, NSphG=   13.
                        Lebedev-Laikov grids with approx.  5.0 points / Ang**2.
                        Smoothing algorithm: Karplus/York (Gamma=1.0000).
                        Polarization charges: spherical gaussians, with
                                              point-specific exponents (IZeta= 3).
                        Self-potential: point-specific (ISelfS= 7).
                        Self-field    : sphere-specific E.n sum rule (ISelfD= 2).
 1st derivatives      : Analytical E(r).r(x)/FMM algorithm (CHGder, D1EAlg=3).
                        Cavity 1st derivative terms included.
 Solvent              : NitroMethane, Eps=  36.562000 Eps(inf)=   1.909095
 ------------------------------------------------------------------------------
 Spheres list:
 ISph  on   Nord     Re0    Alpha      Xe            Ye            Ze
    1   N      1    1.8300  1.100     -2.337924     -0.047654      0.054268
    2   O      2    1.7500  1.100     -3.409724     -0.137991     -0.528881
    3   O      3    1.7500  1.100     -1.924236      1.220397      0.264261
    4   C      4    1.9255  1.100     -1.593485     -1.044275      0.485013
    5   H      5    1.4430  1.100     -0.702307     -0.835129      1.063935
    6   H      6    1.4430  1.100     -1.976138     -2.040690      0.285980
    7   H      7    1.4430  1.100      0.145347     -1.196952     -0.997955
    8   O      8    1.7500  1.100      0.588501      1.197231      0.032060
    9   H      9    1.4430  1.100     -0.904511      1.269132      0.238605
   10   S     10    2.0175  1.100      1.541045      0.048716      0.038503
   11   O     11    1.7500  1.100      1.035017     -0.871102     -1.210555
   12   O     12    1.7500  1.100      1.419914     -0.766838      1.244732
   13   O     13    1.7500  1.100      2.878935      0.436230     -0.363686
 ------------------------------------------------------------------------------
 One-electron integrals computed using PRISM.
   1 Symmetry operations used in ECPInt.
 ECPInt:  NShTT=    2346 NPrTT=    9184 LenC2=    2263 LenP2D=    6692.
 LDataN:  DoStor=T MaxTD1= 4 Len=   56
 NBasis=   150 RedAO= T EigKep=  5.74D-03  NBF=   150
 NBsUse=   150 1.00D-06 EigRej= -1.00D+00 NBFU=   150
 Initial guess from the checkpoint file:  "MeNO2_Na2SO4_TS3_product_opt_2.chk"
 B after Tr=     0.000000    0.000000    0.000000
         Rot=    0.998351    0.057011   -0.004055   -0.005276 Ang=   6.58 deg.
 ExpMin= 1.22D-01 ExpMax= 9.18D+03 ExpMxC= 1.38D+03 IAcc=2 IRadAn=         4 AccDes= 0.00D+00
 Harris functional with IExCor= 1009 and IRadAn=       4 diagonalized for initial guess.
 HarFok:  IExCor= 1009 AccDes= 0.00D+00 IRadAn=         4 IDoV= 1 UseB2=F ITyADJ=14
 ICtDFT=  3500011 ScaDFX=  1.000000  1.000000  1.000000  1.000000
 FoFCou: FMM=F IPFlag=           0 FMFlag=      100000 FMFlg1=           0
         NFxFlg=           0 DoJE=T BraDBF=F KetDBF=T FulRan=T
         wScrn=  0.000000 ICntrl=     500 IOpCl=  0 I1Cent=   200000004 NGrid=           0
         NMat0=    1 NMatS0=      1 NMatT0=    0 NMatD0=    1 NMtDS0=    0 NMtDT0=    0
 Petite list used in FoFCou.
 Requested convergence on RMS density matrix=1.00D-08 within 128 cycles.
 Requested convergence on MAX density matrix=1.00D-06.
 Requested convergence on             energy=1.00D-06.
 No special actions if energy rises.
 Inv3:  Mode=1 IEnd=     5451312.
 Iteration    1 A*A^-1 deviation from unit magnitude is 4.33D-15 for   1338.
 Iteration    1 A*A^-1 deviation from orthogonality  is 2.28D-15 for    985    122.
 Iteration    1 A^-1*A deviation from unit magnitude is 4.33D-15 for   1338.
 Iteration    1 A^-1*A deviation from orthogonality  is 1.65D-15 for    637    379.
 Error on total polarization charges =  0.00376
 SCF Done:  E(RM062X) =  -944.014033624     A.U. after   14 cycles
            NFock= 14  Conv=0.74D-08     -V/T= 2.0047
   1 Symmetry operations used in ECPInt.
 ECPInt:  NShTT=    2346 NPrTT=    9184 LenC2=    2263 LenP2D=    6692.
 LDataN:  DoStor=T MaxTD1= 5 Len=  102
 D1PCM: C-PCM CHGder 1st derivatives, ID1Alg=3 FixD1E=F DoIter=F DoCFld=F I1PDM=0.
 Calling FoFJK, ICntrl=      2127 FMM=F ISym2X=0 I1Cent= 0 IOpClX= 0 NMat=1 NMatS=1 NMatT=0.
 ***** Axes restored to original set *****
 -------------------------------------------------------------------
 Center     Atomic                   Forces (Hartrees/Bohr)
 Number     Number              X              Y              Z
 -------------------------------------------------------------------
      1        7           0.011038944   -0.008256526    0.003550929
      2        8          -0.006205373   -0.000805280   -0.002257869
      3        8          -0.000962240    0.007807670    0.001596870
      4        6          -0.008118130    0.007128181   -0.004309583
      5        1          -0.000089634    0.000712639    0.002855866
      6        1          -0.000684284   -0.000277375   -0.000119373
      7        1          -0.002473010   -0.000910865   -0.000399863
      8        8           0.001565442    0.000738756    0.002789916
      9        1          -0.000698328   -0.009447489   -0.000151930
     10       16          -0.003937591    0.008124483   -0.009420127
     11        8           0.004268213   -0.001236051    0.002700472
     12        8           0.002236858   -0.002457114    0.002056071
     13        8           0.004059133   -0.001121030    0.001108623
 -------------------------------------------------------------------
 Cartesian Forces:  Max     0.011038944 RMS     0.004514977

 GradGradGradGradGradGradGradGradGradGradGradGradGradGradGradGradGradGrad
 Berny optimization.
 Using GEDIIS/GDIIS optimizer.
 FormGI is forming the generalized inverse of G from B-inverse, IUseBI=4.
 Internal  Forces:  Max     0.027307129 RMS     0.006288934
 Search for a local minimum.
 Step number   3 out of a maximum of   52
 All quantities printed in internal units (Hartrees-Bohrs-Radians)
 Mixed Optimization -- RFO/linear search
 Update second derivatives using D2CorX and points    1    2    3
 DE= -5.11D-03 DEPred=-7.61D-03 R= 6.72D-01
 TightC=F SS=  1.41D+00  RLast= 4.08D-01 DXNew= 5.0454D-01 1.2232D+00
 Trust test= 6.72D-01 RLast= 4.08D-01 DXMaxT set to 5.05D-01
 ITU=  1  0  0
 Use linear search instead of GDIIS.
     Eigenvalues ---    0.00220   0.00229   0.02036   0.02095   0.02617
     Eigenvalues ---    0.02669   0.02691   0.03719   0.04931   0.10780
     Eigenvalues ---    0.12023   0.14854   0.15453   0.16000   0.16000
     Eigenvalues ---    0.16670   0.18051   0.18914   0.22391   0.23298
     Eigenvalues ---    0.25207   0.29766   0.33782   0.34965   0.36947
     Eigenvalues ---    0.44404   0.50013   0.51828   0.62860   0.73027
     Eigenvalues ---    0.86566   1.00204   1.03382
 RFO step:  Lambda=-7.73413707D-03 EMin= 2.20010570D-03
 Quartic linear search produced a step of -0.19763.
 Iteration  1 RMS(Cart)=  0.26728497 RMS(Int)=  0.07209530
 Iteration  2 RMS(Cart)=  0.15727388 RMS(Int)=  0.04076051
 Iteration  3 RMS(Cart)=  0.15020664 RMS(Int)=  0.01142226
 Iteration  4 RMS(Cart)=  0.04747428 RMS(Int)=  0.00057951
 Iteration  5 RMS(Cart)=  0.00095270 RMS(Int)=  0.00003619
 Iteration  6 RMS(Cart)=  0.00000032 RMS(Int)=  0.00003619
 Variable       Old X    -DE/DX   Delta X   Delta X   Delta X     New X
                                 (Linear)    (Quad)   (Total)
    R1        2.31210   0.00657  -0.00541   0.08957   0.08416   2.39626
    R2        2.55161   0.00289  -0.00496   0.08439   0.07943   2.63104
    R3        2.48769  -0.01139   0.00181  -0.04312  -0.04131   2.44639
    R4        1.92981   0.00474  -0.00166   0.03691   0.03525   1.96505
    R5        2.04675   0.00160   0.00122  -0.01821  -0.01699   2.02976
    R6        2.05179   0.00051   0.00057  -0.00827  -0.00770   2.04409
    R7        1.83497   0.00247   0.00109  -0.01370  -0.01261   1.82236
    R8        2.85149   0.00565   0.00091   0.02994   0.03085   2.88234
    R9        2.81973   0.00060   0.00197  -0.03064  -0.02868   2.79105
   R10        3.08337  -0.00093   0.00077  -0.01495  -0.01418   3.06919
   R11        2.76106   0.00281  -0.00186   0.03197   0.03011   2.79117
   R12        2.73969   0.00315  -0.00143   0.02483   0.02341   2.76310
    A1        1.99528  -0.00125   0.00161  -0.03933  -0.03772   1.95756
    A2        2.20860  -0.00172  -0.00154   0.01835   0.01681   2.22541
    A3        2.07925   0.00294  -0.00017   0.02112   0.02095   2.10021
    A4        1.92500   0.01331   0.00375   0.02570   0.02944   1.95444
    A5        2.08748  -0.00017   0.00242  -0.04601  -0.04363   2.04386
    A6        2.02137  -0.00052  -0.00195   0.03191   0.02992   2.05130
    A7        2.17144   0.00051  -0.00068   0.01312   0.01241   2.18385
    A8        2.30194   0.01743   0.00302   0.04300   0.04602   2.34796
    A9        1.80557   0.00688   0.00218  -0.01522  -0.01300   1.79257
   A10        1.96089   0.00049   0.00025   0.00083   0.00112   1.96201
   A11        1.96294   0.00128  -0.00104   0.01928   0.01824   1.98118
   A12        1.86670  -0.00308  -0.00178   0.03027   0.02854   1.89524
   A13        1.79724  -0.00118   0.00041  -0.01177  -0.01128   1.78596
   A14        2.04286  -0.00346   0.00021  -0.02277  -0.02249   2.02037
   A15        1.88149   0.00161   0.00086  -0.01523  -0.01437   1.86712
   A16        3.05569   0.02731   0.07504   0.04826   0.12330   3.17899
   A17        3.01643  -0.00189  -0.00174  -0.02224  -0.02398   2.99245
    D1       -2.58004   0.00303   0.00080   0.04150   0.04222  -2.53782
    D2        0.57128   0.00528   0.00564   0.02748   0.03320   0.60448
    D3       -3.05081   0.00347   0.00453   0.01798   0.02248  -3.02833
    D4        0.01278   0.00106   0.00189   0.00554   0.00740   0.02018
    D5        0.07975   0.00092  -0.00089   0.03354   0.03269   0.11243
    D6       -3.13985  -0.00149  -0.00353   0.02110   0.01761  -3.12225
    D7       -0.27433   0.00021  -0.02560   0.67972   0.65413   0.37980
    D8        1.09668  -0.00094  -0.00256   0.03381   0.03130   1.12797
    D9       -0.91036  -0.00144  -0.00182   0.00651   0.00469  -0.90568
   D10        3.02369   0.00187  -0.00136   0.02001   0.01859   3.04228
   D11       -1.12799   0.00064   0.00022   0.00458   0.00486  -1.12313
   D12        0.94539   0.00314   0.00075   0.01157   0.01234   0.95773
   D13        3.10826  -0.00294   0.00035  -0.00619  -0.00592   3.10233
         Item               Value     Threshold  Converged?
 Maximum Force            0.027307     0.000450     NO 
 RMS     Force            0.006289     0.000300     NO 
 Maximum Displacement     1.326973     0.001800     NO 
 RMS     Displacement     0.569726     0.001200     NO 
 Predicted change in Energy=-4.440432D-03
 GradGradGradGradGradGradGradGradGradGradGradGradGradGradGradGradGradGrad

                          Input orientation:                          
 ---------------------------------------------------------------------
 Center     Atomic      Atomic             Coordinates (Angstroms)
 Number     Number       Type             X           Y           Z
 ---------------------------------------------------------------------
      1          7           0       -2.439547   -0.191806    0.087689
      2          8           0       -3.394124   -0.427205   -0.713128
      3          8           0       -1.893427    1.074486   -0.103942
      4          6           0       -1.966788   -0.976058    1.002765
      5          1           0       -1.222813   -0.567412    1.660952
      6          1           0       -2.412932   -1.956623    1.100214
      7          1           0        0.593485   -0.898609   -1.600779
      8          8           0        0.656844    1.059978    0.105585
      9          1           0       -0.867706    1.085873    0.066587
     10         16           0        1.678301    0.000678   -0.020595
     11          8           0        1.475116   -0.511359   -1.548463
     12          8           0        1.429782   -1.133045    0.892924
     13          8           0        3.048360    0.510990   -0.041955
 ---------------------------------------------------------------------
                    Distance matrix (angstroms):
                    1          2          3          4          5
     1  N    0.000000
     2  O    1.268045   0.000000
     3  O    1.392288   2.208681   0.000000
     4  C    1.294571   2.298437   2.331290   0.000000
     5  H    2.024025   3.220326   2.502079   1.074104   0.000000
     6  H    2.034820   2.567112   3.302650   1.081687   1.913300
     7  H    3.542567   4.112320   3.509752   3.652320   3.748001
     8  O    3.339899   4.392305   2.558905   3.440032   2.932691
     9  H    2.025733   3.046334   1.039862   2.517135   2.324102
    10  S    4.123766   5.137331   3.730583   3.909981   3.400997
    11  O    4.254843   4.941089   3.993573   4.309456   4.193125
    12  O    4.062762   5.132999   4.112256   3.401969   2.818876
    13  O    5.534244   6.544943   4.974196   5.334272   4.722897
                    6          7          8          9         10
     6  H    0.000000
     7  H    4.177714   0.000000
     8  O    4.417317   2.598414   0.000000
     9  H    3.565514   2.975460   1.525269   0.000000
    10  S    4.671768   2.117197   1.476960   2.769007   0.000000
    11  O    4.921502   0.964350   2.423746   3.263181   1.624145
    12  O    3.935441   2.640626   2.454931   3.299224   1.477026
    13  O    6.100768   3.231612   2.458151   3.959526   1.462169
                   11         12         13
    11  O    0.000000
    12  O    2.519706   0.000000
    13  O    2.406214   2.489306   0.000000
 Stoichiometry    CH4NO6S(1-)
 Framework group  C1[X(CH4NO6S)]
 Deg. of freedom    33
 Full point group                 C1      NOp   1
 Largest Abelian subgroup         C1      NOp   1
 Largest concise Abelian subgroup C1      NOp   1
                         Standard orientation:                         
 ---------------------------------------------------------------------
 Center     Atomic      Atomic             Coordinates (Angstroms)
 Number     Number       Type             X           Y           Z
 ---------------------------------------------------------------------
      1          7           0       -2.502709   -0.062263    0.046412
      2          8           0       -3.447690    0.298575   -0.718272
      3          8           0       -1.896569    1.019894    0.678865
      4          6           0       -2.086879   -1.267511    0.270858
      5          1           0       -1.341188   -1.393850    1.033540
      6          1           0       -2.578271   -2.072678   -0.258564
      7          1           0        0.534842    0.284813   -1.743170
      8          8           0        0.644910    0.752385    0.810459
      9          1           0       -0.875649    0.872154    0.810045
     10         16           0        1.621031   -0.047818    0.043468
     11          8           0        1.431316    0.511522   -1.469474
     12          8           0        1.301020   -1.489707    0.055985
     13          8           0        3.012512    0.296776    0.331516
 ---------------------------------------------------------------------
 Rotational constants (GHZ):      3.1014175      0.6639889      0.6417488
 Standard basis: def2SVP (5D, 7F)
 There are   159 symmetry adapted cartesian basis functions of A   symmetry.
 There are   150 symmetry adapted basis functions of A   symmetry.
   150 basis functions,   265 primitive gaussians,   159 cartesian basis functions
    41 alpha electrons       41 beta electrons
       nuclear repulsion energy       601.7500161067 Hartrees.
 NAtoms=   13 NActive=   13 NUniq=   13 SFac= 1.00D+00 NAtFMM=   60 NAOKFM=F Big=F
 Integral buffers will be    131072 words long.
 Raffenetti 2 integral format.
 Two-electron integral symmetry is turned on.
 ------------------------------------------------------------------------------
 Polarizable Continuum Model (PCM)
 =================================
 Model                : C-PCM.
 Atomic radii         : UFF (Universal Force Field).
 Polarization charges : Total charges.
 Charge compensation  : None.
 Solution method      : On-the-fly selection.
 Cavity type          : Scaled VdW (van der Waals Surface) (Alpha=1.100).
 Cavity algorithm     : GePol (No added spheres)
                        Default sphere list used, NSphG=   13.
                        Lebedev-Laikov grids with approx.  5.0 points / Ang**2.
                        Smoothing algorithm: Karplus/York (Gamma=1.0000).
                        Polarization charges: spherical gaussians, with
                                              point-specific exponents (IZeta= 3).
                        Self-potential: point-specific (ISelfS= 7).
                        Self-field    : sphere-specific E.n sum rule (ISelfD= 2).
 1st derivatives      : Analytical E(r).r(x)/FMM algorithm (CHGder, D1EAlg=3).
                        Cavity 1st derivative terms included.
 Solvent              : NitroMethane, Eps=  36.562000 Eps(inf)=   1.909095
 ------------------------------------------------------------------------------
 Spheres list:
 ISph  on   Nord     Re0    Alpha      Xe            Ye            Ze
    1   N      1    1.8300  1.100     -2.502709     -0.062263      0.046412
    2   O      2    1.7500  1.100     -3.447690      0.298575     -0.718272
    3   O      3    1.7500  1.100     -1.896569      1.019894      0.678865
    4   C      4    1.9255  1.100     -2.086879     -1.267511      0.270858
    5   H      5    1.4430  1.100     -1.341188     -1.393850      1.033540
    6   H      6    1.4430  1.100     -2.578271     -2.072678     -0.258564
    7   H      7    1.4430  1.100      0.534842      0.284813     -1.743170
    8   O      8    1.7500  1.100      0.644910      0.752385      0.810459
    9   H      9    1.4430  1.100     -0.875649      0.872154      0.810045
   10   S     10    2.0175  1.100      1.621031     -0.047818      0.043468
   11   O     11    1.7500  1.100      1.431316      0.511522     -1.469474
   12   O     12    1.7500  1.100      1.301020     -1.489707      0.055985
   13   O     13    1.7500  1.100      3.012512      0.296776      0.331516
 ------------------------------------------------------------------------------
 One-electron integrals computed using PRISM.
   1 Symmetry operations used in ECPInt.
 ECPInt:  NShTT=    2346 NPrTT=    9184 LenC2=    2248 LenP2D=    6532.
 LDataN:  DoStor=T MaxTD1= 4 Len=   56
 NBasis=   150 RedAO= T EigKep=  6.97D-03  NBF=   150
 NBsUse=   150 1.00D-06 EigRej= -1.00D+00 NBFU=   150
 Initial guess from the checkpoint file:  "MeNO2_Na2SO4_TS3_product_opt_2.chk"
 B after Tr=     0.000000    0.000000    0.000000
         Rot=    0.935078   -0.353397    0.020323    0.018061 Ang= -41.52 deg.
 ExpMin= 1.22D-01 ExpMax= 9.18D+03 ExpMxC= 1.38D+03 IAcc=2 IRadAn=         4 AccDes= 0.00D+00
 Harris functional with IExCor= 1009 and IRadAn=       4 diagonalized for initial guess.
 HarFok:  IExCor= 1009 AccDes= 0.00D+00 IRadAn=         4 IDoV= 1 UseB2=F ITyADJ=14
 ICtDFT=  3500011 ScaDFX=  1.000000  1.000000  1.000000  1.000000
 FoFCou: FMM=F IPFlag=           0 FMFlag=      100000 FMFlg1=           0
         NFxFlg=           0 DoJE=T BraDBF=F KetDBF=T FulRan=T
         wScrn=  0.000000 ICntrl=     500 IOpCl=  0 I1Cent=   200000004 NGrid=           0
         NMat0=    1 NMatS0=      1 NMatT0=    0 NMatD0=    1 NMtDS0=    0 NMtDT0=    0
 Petite list used in FoFCou.
 Requested convergence on RMS density matrix=1.00D-08 within 128 cycles.
 Requested convergence on MAX density matrix=1.00D-06.
 Requested convergence on             energy=1.00D-06.
 No special actions if energy rises.
 Inv3:  Mode=1 IEnd=     6298803.
 Iteration    1 A*A^-1 deviation from unit magnitude is 5.33D-15 for    361.
 Iteration    1 A*A^-1 deviation from orthogonality  is 2.04D-15 for   1433    336.
 Iteration    1 A^-1*A deviation from unit magnitude is 5.11D-15 for    361.
 Iteration    1 A^-1*A deviation from orthogonality  is 1.60D-15 for   1439   1180.
 Error on total polarization charges =  0.00379
 SCF Done:  E(RM062X) =  -944.006658834     A.U. after   15 cycles
            NFock= 15  Conv=0.55D-08     -V/T= 2.0049
   1 Symmetry operations used in ECPInt.
 ECPInt:  NShTT=    2346 NPrTT=    9184 LenC2=    2248 LenP2D=    6532.
 LDataN:  DoStor=T MaxTD1= 5 Len=  102
 D1PCM: C-PCM CHGder 1st derivatives, ID1Alg=3 FixD1E=F DoIter=F DoCFld=F I1PDM=0.
 Calling FoFJK, ICntrl=      2127 FMM=F ISym2X=0 I1Cent= 0 IOpClX= 0 NMat=1 NMatS=1 NMatT=0.
 ***** Axes restored to original set *****
 -------------------------------------------------------------------
 Center     Atomic                   Forces (Hartrees/Bohr)
 Number     Number              X              Y              Z
 -------------------------------------------------------------------
      1        7          -0.019236911    0.013605652   -0.036207327
      2        8           0.027449477    0.003265093    0.025679038
      3        8           0.004852303   -0.013043166    0.009309327
      4        6          -0.002927714    0.008754150   -0.002171780
      5        1           0.009870555    0.000036610    0.004181561
      6        1          -0.001409652   -0.002621294   -0.000494521
      7        1          -0.005331663   -0.003555799   -0.003827972
      8        8          -0.009385965    0.012265298    0.006426224
      9        1          -0.014989295   -0.011147046   -0.002482756
     10       16           0.014259392   -0.009580881    0.012977874
     11        8           0.003884542   -0.006107552    0.000778502
     12        8           0.001781498    0.010904388   -0.015262653
     13        8          -0.008816565   -0.002775453    0.001094484
 -------------------------------------------------------------------
 Cartesian Forces:  Max     0.036207327 RMS     0.011802678

 GradGradGradGradGradGradGradGradGradGradGradGradGradGradGradGradGradGrad
 Berny optimization.
 Using GEDIIS/GDIIS optimizer.
 FormGI is forming the generalized inverse of G from B-inverse, IUseBI=4.
 Internal  Forces:  Max     0.037490301 RMS     0.010556930
 Search for a local minimum.
 Step number   4 out of a maximum of   52
 All quantities printed in internal units (Hartrees-Bohrs-Radians)
 Mixed Optimization -- RFO/linear search
 Update second derivatives using D2CorX and points    1    2    4    3
 DE=  7.37D-03 DEPred=-4.44D-03 R=-1.66D+00
 Trust test=-1.66D+00 RLast= 6.93D-01 DXMaxT set to 2.52D-01
 ITU= -1  1  0  0
 Use linear search instead of GDIIS.
 Energy rises -- skip Quadratic/GDIIS search.
 Quartic linear search produced a step of -0.85442.
 Iteration  1 RMS(Cart)=  0.24497986 RMS(Int)=  0.05763205
 Iteration  2 RMS(Cart)=  0.16051685 RMS(Int)=  0.02716929
 Iteration  3 RMS(Cart)=  0.13824055 RMS(Int)=  0.00524241
 Iteration  4 RMS(Cart)=  0.00914064 RMS(Int)=  0.00001118
 Iteration  5 RMS(Cart)=  0.00002535 RMS(Int)=  0.00000494
 Iteration  6 RMS(Cart)=  0.00000000 RMS(Int)=  0.00000494
 Variable       Old X    -DE/DX   Delta X   Delta X   Delta X     New X
                                 (Linear)    (Quad)   (Total)
    R1        2.39626  -0.03749  -0.07191   0.00000  -0.07191   2.32435
    R2        2.63104  -0.02759  -0.06787   0.00000  -0.06787   2.56318
    R3        2.44639  -0.00066   0.03529   0.00000   0.03529   2.48168
    R4        1.96505  -0.01840  -0.03011   0.00000  -0.03011   1.93494
    R5        2.02976   0.00941   0.01451   0.00000   0.01451   2.04428
    R6        2.04409   0.00292   0.00658   0.00000   0.00658   2.05067
    R7        1.82236   0.00651   0.01078   0.00000   0.01078   1.83314
    R8        2.88234  -0.00361  -0.02636   0.00000  -0.02636   2.85598
    R9        2.79105   0.01230   0.02450   0.00000   0.02450   2.81555
   R10        3.06919   0.00610   0.01211   0.00000   0.01211   3.08130
   R11        2.79117  -0.01811  -0.02573   0.00000  -0.02573   2.76545
   R12        2.76310  -0.00925  -0.02000   0.00000  -0.02000   2.74310
    A1        1.95756   0.01159   0.03223   0.00000   0.03223   1.98979
    A2        2.22541   0.00141  -0.01436   0.00000  -0.01436   2.21105
    A3        2.10021  -0.01301  -0.01790   0.00000  -0.01790   2.08231
[...]
 Vib (Bot)   10  0.278530D+00         -0.555128         -1.278230
 Vib (Bot)   11  0.276455D+00         -0.558376         -1.285708
 Vib (Bot)   12  0.261575D+00         -0.582404         -1.341034
 Vib (V=0)       0.308396D+03          2.489109          5.731385
 Vib (V=0)    1  0.512644D+01          0.709816          1.634412
 Vib (V=0)    2  0.265965D+01          0.424825          0.978196
 Vib (V=0)    3  0.260133D+01          0.415195          0.956023
 Vib (V=0)    4  0.186063D+01          0.269660          0.620914
 Vib (V=0)    5  0.155772D+01          0.192490          0.443224
 Vib (V=0)    6  0.140547D+01          0.147823          0.340374
 Vib (V=0)    7  0.116864D+01          0.067681          0.155842
 Vib (V=0)    8  0.114266D+01          0.057918          0.133362
 Vib (V=0)    9  0.107590D+01          0.031772          0.073157
 Vib (V=0)   10  0.107235D+01          0.030335          0.069848
 Vib (V=0)   11  0.107134D+01          0.029927          0.068908
 Vib (V=0)   12  0.106429D+01          0.027059          0.062307
 Electronic      0.100000D+01          0.000000          0.000000
 Translational   0.780444D+08          7.892342         18.172788
 Rotational      0.693088D+06          5.840789         13.448913
 ***** Axes restored to original set *****
 -------------------------------------------------------------------
 Center     Atomic                   Forces (Hartrees/Bohr)
 Number     Number              X              Y              Z
 -------------------------------------------------------------------
      1        7          -0.000058499    0.000004486   -0.000067307
      2        8           0.000069913   -0.000015673    0.000039408
      3        8           0.000056175   -0.000023856    0.000018164
      4        6          -0.000027095    0.000060255   -0.000003164
      5        1           0.000008471   -0.000009164   -0.000009022
      6        1           0.000004375   -0.000000678    0.000004366
      7        1           0.000001495    0.000015626   -0.000008499
      8        8          -0.000008000   -0.000080885    0.000041075
      9        1          -0.000028097    0.000036569   -0.000032775
     10       16          -0.000004116    0.000036417   -0.000007251
     11        8           0.000004825   -0.000025032    0.000028712
     12        8           0.000006819    0.000013667   -0.000009668
     13        8          -0.000026266   -0.000011731    0.000005961
 -------------------------------------------------------------------
 Cartesian Forces:  Max     0.000080885 RMS     0.000031719
 FormGI is forming the generalized inverse of G from B-inverse, IUseBI=4.

 GradGradGradGradGradGradGradGradGradGradGradGradGradGradGradGradGradGrad
 Berny optimization.
 Internal  Forces:  Max     0.000080601 RMS     0.000029105
 Search for a local minimum.
 Step number   1 out of a maximum of    2
 All quantities printed in internal units (Hartrees-Bohrs-Radians)
 Second derivative matrix not updated -- analytic derivatives used.
 ITU=  0
     Eigenvalues ---   -0.00049   0.00253   0.00603   0.01901   0.02585
     Eigenvalues ---    0.02704   0.03165   0.03641   0.06917   0.09635
     Eigenvalues ---    0.09811   0.11647   0.13270   0.14192   0.19495
     Eigenvalues ---    0.21724   0.22734   0.23993   0.25195   0.30918
     Eigenvalues ---    0.31918   0.36368   0.36975   0.38175   0.38459
     Eigenvalues ---    0.41060   0.51038   0.55347   0.58275   0.61267
     Eigenvalues ---    0.67444   0.75210   0.75633
 Eigenvalue     1 is  -4.85D-04 should be greater than     0.000000 Eigenvector:
                          D7        D8        D9        D10       D2
   1                    0.63825  -0.40486  -0.40205  -0.40197  -0.16895
                          D1        D12       D11       D13       A17
   1                   -0.16319  -0.12274  -0.12266  -0.12136   0.05843
 Angle between quadratic step and forces=  79.18 degrees.
 Linear search not attempted -- first point.
 Iteration  1 RMS(Cart)=  0.00351630 RMS(Int)=  0.00000875
 Iteration  2 RMS(Cart)=  0.00003208 RMS(Int)=  0.00000000
 Iteration  3 RMS(Cart)=  0.00000000 RMS(Int)=  0.00000000
 Variable       Old X    -DE/DX   Delta X   Delta X   Delta X     New X
                                 (Linear)    (Quad)   (Total)
    R1        2.32239  -0.00008   0.00000  -0.00017  -0.00017   2.32222
    R2        2.56310  -0.00002   0.00000  -0.00005  -0.00005   2.56305
    R3        2.46925  -0.00004   0.00000   0.00000   0.00000   2.46925
    R4        1.92222  -0.00006   0.00000  -0.00022  -0.00022   1.92200
    R5        2.05554   0.00000   0.00000  -0.00005  -0.00005   2.05549
    R6        2.05263   0.00000   0.00000  -0.00001  -0.00001   2.05262
    R7        1.83823  -0.00001   0.00000   0.00000   0.00000   1.83823
    R8        2.87438  -0.00003   0.00000  -0.00018  -0.00018   2.87420
    R9        2.81435  -0.00005   0.00000  -0.00012  -0.00012   2.81423
   R10        3.08039  -0.00001   0.00000   0.00001   0.00001   3.08040
   R11        2.76763  -0.00002   0.00000  -0.00007  -0.00007   2.76756
   R12        2.74438  -0.00003   0.00000  -0.00002  -0.00002   2.74435
    A1        1.99834   0.00005   0.00000   0.00006   0.00006   1.99840
    A2        2.21576   0.00000   0.00000  -0.00005  -0.00005   2.21571
    A3        2.06895  -0.00005   0.00000  -0.00002  -0.00002   2.06893
    A4        1.88574  -0.00007   0.00000  -0.00011  -0.00011   1.88563
    A5        2.08370   0.00001   0.00000   0.00025   0.00025   2.08395
    A6        2.02496   0.00000   0.00000   0.00003   0.00003   2.02499
    A7        2.17073  -0.00001   0.00000  -0.00026  -0.00026   2.17047
    A8        2.27793   0.00004   0.00000   0.00270   0.00270   2.28064
    A9        1.82292   0.00001   0.00000  -0.00005  -0.00005   1.82287
   A10        1.95809   0.00000   0.00000  -0.00005  -0.00005   1.95804
   A11        1.97588   0.00000   0.00000   0.00011   0.00011   1.97600
   A12        1.85032   0.00000   0.00000   0.00008   0.00008   1.85041
   A13        1.79865   0.00000   0.00000   0.00000   0.00000   1.79865
   A14        2.03204   0.00000   0.00000  -0.00008  -0.00008   2.03195
   A15        1.89359   0.00000   0.00000  -0.00002  -0.00002   1.89357
   A16        3.21234  -0.00007   0.00000  -0.00142  -0.00142   3.21092
   A17        3.04733   0.00002   0.00000   0.00140   0.00140   3.04873
    D1       -2.62144  -0.00002   0.00000  -0.00258  -0.00258  -2.62402
    D2        0.53688  -0.00002   0.00000  -0.00255  -0.00255   0.53433
    D3       -3.02621  -0.00001   0.00000  -0.00034  -0.00034  -3.02655
    D4        0.02593   0.00000   0.00000  -0.00008  -0.00008   0.02585
    D5        0.09634  -0.00002   0.00000  -0.00038  -0.00038   0.09595
    D6       -3.13471   0.00000   0.00000  -0.00012  -0.00012  -3.13483
    D7       -0.25475  -0.00001   0.00000   0.01083   0.01083  -0.24392
    D8        1.08788  -0.00001   0.00000  -0.00777  -0.00777   1.08011
    D9       -0.90841  -0.00001   0.00000  -0.00781  -0.00781  -0.91622
   D10        3.03152  -0.00001   0.00000  -0.00775  -0.00775   3.02378
   D11       -1.08711   0.00001   0.00000   0.00404   0.00404  -1.08306
   D12        0.98401   0.00001   0.00000   0.00400   0.00400   0.98801
   D13        3.12748   0.00001   0.00000   0.00394   0.00394   3.13142
         Item               Value     Threshold  Converged?
 Maximum Force            0.000081     0.000450     YES
 RMS     Force            0.000029     0.000300     YES
 Maximum Displacement     0.010329     0.001800     NO 
 RMS     Displacement     0.003511     0.001200     NO 
 Predicted change in Energy=-4.631564D-07
 GradGradGradGradGradGradGradGradGradGradGradGradGradGradGradGradGradGrad

 1\1\GINC-DC1S5B3A\Freq\RM062X\def2SVP\C1H4N1O6S1(1-)\CHMBNN\08-Nov-202
 0\0\\#N Geom=AllCheck Guess=TCheck SCRF=Check GenChk RM062X/def2SVP Fr
 eq\\MeNO2+SO4-2 TS3 product opt\\-1,1\N,-2.4086289503,-0.0710080785,0.
 0422376469\O,-3.4978605064,-0.1596660405,-0.5199422677\O,-1.9375200868
 ,1.1954991982,0.1591341516\C,-1.6981629994,-1.0495813186,0.5372344876\
 H,-0.7993581365,-0.8220286943,1.1060522107\H,-2.1104498384,-2.04703862
 42,0.4150079731\H,0.2917607051,-1.2754399961,-0.9610220682\O,0.5910684
 568,1.1816420795,-0.0104719952\H,-0.9211387249,1.1555894335,0.15127762
 22\S,1.5923599463,0.0825256823,0.0751850116\O,1.185797894,-0.933027666
 1,-1.133324416\O,1.4617712835,-0.6894778851,1.312887901\O,2.934911957,
 0.50189991,-0.2864002575\\Version=ES64L-G09RevD.01\State=1-A\HF=-944.0
 157734\RMSD=3.887e-09\RMSF=3.172e-05\ZeroPoint=0.0788727\Thermal=0.087
 7014\Dipole=-0.9039053,-1.2103068,0.1378908\DipoleDeriv=2.2165448,-0.2
 868558,0.9171223,-0.1264164,1.6995451,-0.2446309,1.0718154,-0.3723767,
 0.7802243,-1.8456445,0.4238846,-0.654082,-0.1238319,-0.5846186,-0.0067
 542,-0.7739644,0.2897855,-0.7578223,-1.1910397,-0.4957287,-0.0347439,-
 0.2719587,-1.1682031,0.0368875,-0.0566302,-0.1104063,-0.4242573,-0.746
 3422,0.3464603,-0.0526841,0.5840875,-0.4852671,0.2265447,0.0331526,0.1
 027475,-0.4680835,0.3597774,-0.0241546,-0.0203986,-0.0459045,0.035253,
 -0.018194,-0.0754619,0.0069211,0.2072706,0.1001402,-0.052056,-0.065177
 8,-0.0266069,0.1013163,0.0002619,-0.09913,0.0035473,0.1767246,0.532443
 3,-0.0204689,0.0567661,-0.0179422,0.3952849,0.0110846,-0.0813209,0.026
 233,0.3203952,-1.9170428,0.344889,0.0345849,0.4372876,-1.2540279,-0.00
 24927,0.0020818,0.061222,-0.8490409,1.6338521,0.1777084,-0.0911604,0.0
 447319,0.2545551,-0.0068244,-0.0904475,0.0363987,0.3530483,3.4869616,-
 0.0002982,0.0280368,-0.0831961,2.9788306,-0.0228547,-0.0052361,-0.0578
 865,3.0232923,-0.9598881,-0.1761982,-0.2746515,-0.1727041,-1.0886,-0.3
 846785,-0.1776701,-0.369708,-1.1289895,-1.0674232,-0.0282318,0.0284685
 ,-0.0281284,-1.0160714,0.3519896,0.0174537,0.2847782,-1.3672081,-1.602
 3391,-0.2089502,0.1279196,-0.1694177,-0.8679969,0.0596611,0.2353577,0.
 0987442,-0.8655536\Polar=86.2727556,-3.9786053,64.9753611,8.5941694,-6
 .0723076,50.0367936\PG=C01 [X(C1H4N1O6S1)]\NImag=1\\0.79229689,-0.1184
 9621,0.72467166,0.29820311,-0.12293287,0.39997199,-0.42673074,-0.01378
 455,-0.18087826,0.53136821,0.00028348,-0.12933796,0.00378541,0.0345185
 8,0.12523886,-0.17919563,-0.00485941,-0.18026648,0.25417980,0.00626047
 ,0.17187081,-0.12533973,-0.01279324,-0.01402879,-0.04679407,-0.0779380
 9,-0.02342538,0.51684430,0.01962018,-0.23511356,0.00812174,-0.04698150
 ,-0.00798317,-0.01688205,0.02329818,0.37094719,-0.01329413,0.01074121,
 -0.06808858,-0.02128965,-0.03024535,0.00841505,0.02705531,0.00554899,0
 .04818709,-0.21206708,0.13976746,-0.09492216,-0.07034492,0.03733946,-0
 .05321633,0.02092053,-0.01079006,0.00530749,0.61057407,0.12805698,-0.3
 4024607,0.09849072,0.03163100,0.01899306,0.01916939,0.00207912,-0.0732
 0067,0.01137153,0.01550340,0.78344400,-0.10365357,0.11518529,-0.141509
 85,-0.04420746,0.02146902,-0.00395757,-0.00022339,-0.00100292,0.014470
 74,0.32619709,-0.06759712,0.27992960,-0.01750441,0.00117264,-0.0072162
 0,0.00857083,0.00156998,-0.00220875,-0.00199616,-0.00422513,0.00302419
 ,-0.25101096,-0.05842081,-0.14826190,0.26431531,0.02581379,0.00658177,
 0.01532341,0.00196807,-0.00269363,0.00195576,0.00013914,0.00012676,0.0
 0015688,-0.07170296,-0.07478976,-0.03995155,0.06018506,0.06954230,-0.0
 0556662,-0.00549161,-0.00817091,-0.00287162,0.00212052,0.00848188,0.00
 201577,-0.00022085,-0.00272599,-0.15122345,-0.03044956,-0.11528135,0.1
 5273257,0.03242937,0.11932909,0.00643793,0.02019621,0.00134545,0.00007
 942,0.00105255,0.00301832,0.00175067,0.00341224,-0.00511938,-0.0964301
 8,-0.12555643,-0.03089235,0.00054333,-0.01555258,0.00280712,0.08921611
 ,-0.00929308,-0.02400940,-0.00196562,-0.00318116,0.00214237,-0.0028481
 0,0.00263345,-0.00032125,0.00296755,-0.10914608,-0.31261796,-0.0294270
 3,0.00197818,0.00336559,0.00090762,0.11648554,0.33117307,0.00657653,0.
 01443631,0.00142507,0.00130253,-0.00060091,-0.00418323,-0.00363421,0.0
 0230111,0.00711636,-0.03145501,-0.03540790,-0.03522439,-0.00016250,-0.
 01107111,0.00166047,0.02871074,0.03058644,0.03023114,-0.00681157,0.006
 88412,-0.00422539,0.00479598,-0.00020030,0.00299114,-0.00252622,-0.002
 59259,-0.00042389,0.00454943,-0.00480836,-0.00151235,0.00018477,0.0003
 5945,0.00145552,-0.00067453,-0.00023218,0.00067400,0.42954206,0.002032
 27,-0.00040046,0.00054899,-0.00105701,-0.00009374,-0.00071055,-0.00081
 021,-0.00030565,0.00008470,-0.00064889,0.00049742,0.00051075,0.0002285
 8,0.00029547,-0.00057628,-0.00044627,-0.00012724,0.00017478,0.16860585
 ,0.08232192,0.00375352,-0.00416481,0.00289486,-0.00365013,0.00024112,-
 0.00228582,0.00098754,0.00168674,0.00028023,-0.00202050,0.00287514,0.0
 0107958,0.00078711,-0.00054262,-0.00202290,0.00011168,0.00008708,-0.00
 044306,-0.07601564,-0.01056308,0.04559717,0.00668702,0.02590759,0.0029
 7951,-0.00559670,-0.00649786,-0.00350705,-0.06926428,-0.01237177,0.003
 31675,0.00182362,-0.00478631,0.00054112,-0.00223639,0.00059656,-0.0008
 6776,-0.00020551,-0.00017268,0.00025287,-0.00298697,0.00286172,0.00187
 856,0.31448890,0.00280469,-0.01033703,0.00088891,-0.00076654,0.0023707
 5,-0.00073459,0.01963526,0.01075974,-0.00037291,-0.00205383,0.00218595
 ,0.00128349,0.00188153,-0.00060924,-0.00094340,-0.00055619,0.00024753,
 -0.00028010,0.00517616,0.00386071,0.00100705,-0.22171327,0.32516245,0.
 00043286,-0.00044448,0.00059251,0.00033796,0.00026190,-0.00006626,0.00
 238425,0.00004004,0.00500375,-0.00017374,0.00069958,-0.00059652,-0.001
 27498,-0.00065373,0.00020557,0.00032905,-0.00008279,0.00011929,0.00216
 546,0.00200930,-0.00085446,0.00824437,-0.02460954,0.07159193,-0.015965
 62,-0.04038867,-0.00330336,0.00684182,0.00857197,0.00309661,-0.3001044
 4,0.02864122,0.00083712,-0.00110567,0.01163574,0.00103002,0.00293971,0
 .00118106,-0.00023552,-0.00075197,0.00091620,-0.00145574,0.00323349,0.
 00171126,-0.00068047,0.03671415,-0.03082247,0.00129903,0.28382215,-0.0
 5108710,-0.00006487,-0.00209329,-0.00257246,-0.00697951,-0.00135144,0.
 06063641,-0.06205353,-0.00071040,0.00025483,-0.00310964,-0.00011231,-0
 .00013430,-0.00118302,0.00144858,0.00066753,0.00031027,-0.00038317,0.0
 0021237,-0.00092557,-0.00045856,-0.00986525,-0.00891842,0.00127037,-0.
 00636376,0.08744226,-0.00552067,-0.00271587,-0.00560540,-0.00402092,-0
 .00379057,0.00139826,0.00660778,0.00011044,-0.01305579,0.00005312,0.00
 222102,0.00093921,-0.00044849,0.00133402,0.00022179,0.00018834,-0.0003
 1850,-0.00061822,0.00018815,-0.00058035,0.00000990,-0.00004844,0.00187
 739,-0.00823167,0.00326882,0.00291937,0.02610475,-0.01188383,-0.002106
 45,-0.00530368,0.00820051,0.00134883,0.00463861,0.01529225,0.00061017,
 0.00010798,0.00193001,-0.00114900,-0.00199193,-0.00573908,-0.00300311,
 0.00524126,0.00112069,-0.00016494,0.00049247,-0.01255199,-0.02774800,-
 0.02968388,-0.25427920,0.18294557,-0.01429282,-0.03439128,0.01088594,0
 .00082791,0.98365161,-0.00018180,0.02097176,-0.00185185,0.00205147,-0.
 00402506,0.00134714,-0.03362336,-0.00878486,0.00073090,0.00585210,-0.0
 0708174,-0.00151863,-0.00750859,0.00142907,0.00174191,0.00005580,-0.00
 022049,0.00093199,-0.01365996,-0.01359645,-0.01363890,0.16424789,-0.27
 890992,0.02233178,0.05395522,-0.00517779,-0.00315929,0.00855014,0.7399
 9518,-0.00243770,-0.00082351,-0.00162468,0.00022525,0.00119734,0.00016
 239,0.00228090,0.00063050,0.00052068,0.00094982,-0.00127025,-0.0003746
 3,0.01013781,0.00107943,0.00001053,-0.00143024,0.00012963,-0.00038325,
 -0.00781042,-0.00253868,0.00457102,-0.01287787,0.02201988,-0.08104052,
 -0.00397182,-0.00082943,-0.00115655,-0.11959670,-0.19580647,0.74708381
 ,0.00513231,-0.00543646,0.00376279,-0.00386428,0.00016810,-0.00240751,
 0.00152903,0.00190025,0.00019947,-0.00524814,0.00393965,0.00208711,-0.
 00015152,-0.00024034,-0.00137258,0.00032280,0.00003460,-0.00041097,-0.
 42328663,-0.14497394,0.10496501,0.01377881,0.01594809,0.01140551,-0.00
 071760,-0.00059417,-0.00059890,-0.09130382,-0.02519420,-0.01665986,0.5
 1657053,0.00067682,-0.00450152,0.00099175,-0.00069463,0.00065807,-0.00
 053995,0.00573655,0.00220072,0.00017022,-0.00192634,0.00219628,0.00067
 101,-0.00007705,-0.00052410,-0.00058578,0.00039087,0.00004823,-0.00029
 060,-0.16288144,-0.07103208,0.02654066,0.00912074,-0.03301299,-0.03166
 700,-0.01057230,0.00011348,0.00028547,-0.01543645,-0.11062838,-0.06388
 767,0.19176917,0.21133006,-0.00075111,-0.00054142,-0.00047766,0.000927
 66,0.00011573,0.00053014,0.00267659,0.00039493,-0.00003477,0.00074962,
 -0.00015727,-0.00026017,-0.00176167,-0.00008629,0.00011838,0.00028955,
 0.00001782,0.00006462,0.07711623,0.01215844,-0.04612411,0.00268063,-0.
 01738988,0.00037876,-0.00520649,0.00022448,-0.00002301,-0.00037492,-0.
 05461495,-0.14691526,-0.06583672,0.07989396,0.22786658,0.00243723,-0.0
 0367739,0.00180480,-0.00371495,0.00078303,-0.00233964,-0.00084611,0.00
 133024,0.00004629,-0.00275387,0.00156860,0.00035370,0.00079433,0.00011
 068,-0.00139956,-0.00118782,0.00012275,-0.00070268,0.00154881,0.001657
 97,0.00359092,0.00855501,0.02520770,-0.02139379,0.00290523,-0.00117423
 ,0.00023571,-0.09532130,-0.02081403,0.03202979,0.01324397,0.00077680,-
 0.01088269,0.07996760,-0.00074472,-0.00461404,0.00015651,-0.00045846,0
 .00103085,-0.00041845,0.00602598,0.00214101,-0.00027041,-0.00131829,0.
 00240181,0.00018036,0.00203220,-0.00132795,-0.00023220,-0.00008869,-0.
 00003866,-0.00021036,0.00195219,-0.00031132,0.00242470,0.01680543,-0.0
 2151925,0.03607067,-0.01109502,0.00019500,0.00124577,-0.02455706,-0.21
 037721,0.20193181,-0.00165687,0.01290110,-0.01932039,0.02035573,0.2163
 2469,0.00165545,0.00178649,0.00089421,-0.00053087,-0.00075695,-0.00037
 085,-0.00373452,-0.00088157,0.00015913,-0.00030787,0.00004976,0.000860
 83,-0.00377076,-0.00010470,-0.00188114,0.00038344,-0.00003761,0.000139
 05,0.00549967,0.00301238,-0.00008882,-0.00488430,0.01663111,-0.0021659
 1,0.00706799,-0.00027964,-0.00094421,0.03743554,0.20317379,-0.40142747
 ,-0.00706262,0.00305534,-0.04345211,-0.03797746,-0.24226117,0.45641143
 ,0.00331160,0.00275494,0.00178218,-0.00281110,-0.00099973,-0.00162418,
 -0.00946579,-0.00185143,0.00023244,-0.00083684,0.00030643,0.00053393,0
 .00129023,0.00014516,-0.00071512,-0.00022094,0.00001940,-0.00018804,0.
 00498336,-0.00141336,-0.00402371,-0.04747846,0.00231331,0.01053683,0.0
 1658003,-0.00086580,-0.00073242,-0.50472457,-0.13373068,0.11916104,-0.
 02600545,-0.01688274,0.00037331,-0.00562814,-0.00725244,0.00622629,0.5
 7100607,0.00051471,-0.00360029,0.00053618,-0.00067280,0.00067912,-0.00
 038823,0.00498081,0.00158727,-0.00017292,-0.00113082,0.00132734,0.0003
 0962,0.00131770,-0.00021324,-0.00014832,-0.00006059,0.00004793,-0.0001
 8647,0.00118467,-0.00018302,-0.00549452,0.03586722,0.00871971,-0.00522
 610,-0.00737044,0.00035135,0.00057109,-0.13017564,-0.12359410,0.038167
 43,-0.03566389,-0.00974886,-0.00069516,-0.02624785,0.00319396,0.016612
 77,0.15745694,0.12143283,-0.00020203,-0.00017533,-0.00003510,0.0004757
 1,-0.00005772,0.00027168,0.00103815,0.00015291,-0.00024790,0.00006192,
 0.00000495,-0.00007548,-0.00157644,0.00013112,0.00005458,0.00025829,-0
 .00001649,0.00009614,-0.00010247,-0.00353042,-0.00261360,0.00229159,0.
 00062259,0.01506353,-0.00174619,0.00035546,0.00096093,0.12250015,0.040
 33257,-0.11942607,-0.02807074,-0.01463742,0.00832861,0.03663460,0.0207
 0315,-0.00813414,-0.13156254,-0.04388537,0.10575682\\0.00005850,-0.000
 00449,0.00006731,-0.00006991,0.00001567,-0.00003941,-0.00005618,0.0000
 2386,-0.00001816,0.00002710,-0.00006025,0.00000316,-0.00000847,0.00000
 916,0.00000902,-0.00000437,0.00000068,-0.00000437,-0.00000149,-0.00001
 563,0.00000850,0.00000800,0.00008089,-0.00004107,0.00002810,-0.0000365
 7,0.00003278,0.00000412,-0.00003642,0.00000725,-0.00000483,0.00002503,
 -0.00002871,-0.00000682,-0.00001367,0.00000967,0.00002627,0.00001173,-
 0.00000596\\\@


 NATURE WILL TELL YOU A DIRECT LIE IF SHE CAN.

                                -- CHARLES DARWIN
 Job cpu time:       0 days  0 hours 17 minutes  6.6 seconds.
 File lengths (MBytes):  RWF=     64 Int=      0 D2E=      0 Chk=      7 Scr=      1
 Normal termination of Gaussian 09 at Sun Nov  8 09:00:21 2020.
