 *******************************************************************************
 ** Site#: 37381        For non-commercial use only           Version 21.125L **
 *******************************************************************************
 ** Cite this program as: MOPAC2016, Version: 21.125L, James J. P. Stewart,   **
 ** Stewart Computational Chemistry, web: HTTP://OpenMOPAC.net. Days left: 191**
 *******************************************************************************
 **                                                                           **
 **                                MOPAC2016                                  **
 **                                                                           **
 *******************************************************************************

                              PM6-D3H4 CALCULATION RESULTS

 *******************************************************************************
 *  CALCULATION DONE:                                Tue Oct 26 20:53:42 2021  *
 *  PM6-D3H4   - CORRECT DISPERSION AND HYDROGEN BOND TERMS USING THE D3H4 METHOD
 *  OPT        - OPTIMIZE COORDINATES OF ALL ATOMS
 *  EPS=2.38   - USE ANDREAS KLAMT'S COSMO IMPLICIT SOLVATION MODEL
 *  RSOLV=  3.480
 *  PRECISE    - TIGHTER CRITERIA TO BE USED
 *  T=         - A TIME OF 128.0 HOURS REQUESTED
 *  DUMP=N     - RESTART FILE WRITTEN EVERY 7200.0 SECONDS REQUESTED
 *  RECALC=    - DO   5 CYCLES BETWEEN HESSIAN RECALC
 *******************************************************************************
 PM6-D3H4 OPT T=128H RECALC=5 PRECISE EPS=2.38 RSOLV=3.48
 DA_P_PM6_D3H4_OPT

   ATOM   CHEMICAL          X               Y               Z
  NUMBER   SYMBOL      (ANGSTROMS)     (ANGSTROMS)     (ANGSTROMS)
 
     1       C         -2.88380000  *   0.25434000  *  -0.21289000  *
     2       C         -1.55436000  *   0.84508000  *  -0.69982000  *
     3       C         -0.56497000  *  -0.35060000  *  -0.74793000  *
     4       C         -1.35187000  *  -1.55891000  *  -0.21953000  *
     5       H         -1.71106000  *   1.22821000  *  -1.74056000  *
     6       H         -0.30769000  *  -0.56493000  *  -1.81827000  *
     7       C         -3.74086000  *  -2.02894000  *   0.55319000  *
     8       H         -3.74036000  *  -2.04033000  *   1.65752000  *
     9       H         -4.73409000  *  -1.69037000  *   0.20856000  *
    10       H         -3.57750000  *  -3.06087000  *   0.19453000  *
    11       N         -2.68621000  *  -1.13345000  *   0.03760000  *
    12       O         -0.96359000  *  -2.69034000  *  -0.05331000  *
    13       O         -3.94196000  *   0.81844000  *  -0.06184000  *
    14       C          0.73978000  *  -0.19489000  *   0.06057000  *
    15       H          1.11307000  *  -1.22561000  *   0.32029000  *
    16       C         -1.16384000  *   2.03736000  *   0.20996000  *
    17       H         -2.11818000  *   2.50324000  *   0.58188000  *
    18       C         -0.34999000  *   1.59282000  *   1.39694000  *
    19       H         -0.50794000  *   2.16365000  *   2.31074000  *
    20       C          0.51810000  *   0.58157000  *   1.32969000  *
    21       H          1.12370000  *   0.26921000  *   2.17852000  *
    22       C         -0.40148000  *   3.10848000  *  -0.57741000  *
    23       H         -0.99083000  *   3.49567000  *  -1.41593000  *
    24       H         -0.14733000  *   3.96192000  *   0.06382000  *
    25       H          0.54738000  *   2.72142000  *  -0.98507000  *
    26       C          1.81467000  *   0.48456000  *  -0.80829000  *
    27       H          1.96340000  *  -0.03005000  *  -1.77348000  *
    28       H          1.61187000  *   1.56807000  *  -0.96867000  *
    29       C          3.87741000  *  -0.59967000  *  -0.09959000  *
    30       C          5.08381000  *  -0.34058000  *   0.72418000  *
    31       H          5.16079000  *  -1.06659000  *   1.55161000  *
    32       H          6.00385000  *  -0.44120000  *   0.12361000  *
    33       H          5.09038000  *   0.66785000  *   1.17032000  *
    34       O          3.56722000  *  -1.58951000  *  -0.72362000  *
    35       O          3.07441000  *   0.52278000  *  -0.08335000  *
 


          CARTESIAN COORDINATES 

    NO.       ATOM           X           Y           Z

     1         C         -2.8838      0.2543     -0.2129
     2         C         -1.5544      0.8451     -0.6998
     3         C         -0.5650     -0.3506     -0.7479
     4         C         -1.3519     -1.5589     -0.2195
     5         H         -1.7111      1.2282     -1.7406
     6         H         -0.3077     -0.5649     -1.8183
     7         C         -3.7409     -2.0289      0.5532
     8         H         -3.7404     -2.0403      1.6575
     9         H         -4.7341     -1.6904      0.2086
    10         H         -3.5775     -3.0609      0.1945
    11         N         -2.6862     -1.1335      0.0376
    12         O         -0.9636     -2.6903     -0.0533
    13         O         -3.9420      0.8184     -0.0618
    14         C          0.7398     -0.1949      0.0606
    15         H          1.1131     -1.2256      0.3203
    16         C         -1.1638      2.0374      0.2100
    17         H         -2.1182      2.5032      0.5819
    18         C         -0.3500      1.5928      1.3969
    19         H         -0.5079      2.1637      2.3107
    20         C          0.5181      0.5816      1.3297
    21         H          1.1237      0.2692      2.1785
    22         C         -0.4015      3.1085     -0.5774
    23         H         -0.9908      3.4957     -1.4159
    24         H         -0.1473      3.9619      0.0638
    25         H          0.5474      2.7214     -0.9851
    26         C          1.8147      0.4846     -0.8083
    27         H          1.9634     -0.0301     -1.7735
    28         H          1.6119      1.5681     -0.9687
    29         C          3.8774     -0.5997     -0.0996
    30         C          5.0838     -0.3406      0.7242
    31         H          5.1608     -1.0666      1.5516
    32         H          6.0038     -0.4412      0.1236
    33         H          5.0904      0.6679      1.1703
    34         O          3.5672     -1.5895     -0.7236
    35         O          3.0744      0.5228     -0.0833

 General Reference for PM6:
 "Optimization of Parameters for Semiempirical Methods V: Modification of NDDO Approximations
 and Application to 70 Elements", J. J. P. Stewart, J. Mol. Mod., 13, 1173-1213 (2007)
 URL: https://link.springer.com/article/10.1007/s00894-007-0233-4

           Empirical Formula: C13 H17 N O4  =    35 atoms



      MOLECULAR POINT GROUP   :   C1  


      RHF CALCULATION, NO. OF DOUBLY OCCUPIED LEVELS = 49


          Geometry optimization using L-BFGS
 CYCLE:     1 TIME:   0.055 TIME LEFT:  5.33D  GRAD.:    39.348 HEAT: -168.8495
 CYCLE:     2 TIME:   0.023 TIME LEFT:  5.33D  GRAD.:    39.101 HEAT: -168.8649
 CYCLE:     3 TIME:   0.031 TIME LEFT:  5.33D  GRAD.:    40.162 HEAT: -170.3757
 CYCLE:     4 TIME:   0.023 TIME LEFT:  5.33D  GRAD.:    39.105 HEAT: -168.8650
 CYCLE:     5 TIME:   0.031 TIME LEFT:  5.33D  GRAD.:    40.235 HEAT: -170.3750
 CYCLE:     6 TIME:   0.023 TIME LEFT:  5.33D  GRAD.:    87.876 HEAT: -169.6708
 CYCLE:     7 TIME:   0.031 TIME LEFT:  5.33D  GRAD.:    15.049 HEAT: -170.7185
 CYCLE:     8 TIME:   0.023 TIME LEFT:  5.33D  GRAD.:    11.876 HEAT: -170.7862
 CYCLE:     9 TIME:   0.031 TIME LEFT:  5.33D  GRAD.:    14.456 HEAT: -171.0519
 CYCLE:    10 TIME:   0.023 TIME LEFT:  5.33D  GRAD.:    14.766 HEAT: -171.2806
 CYCLE:    11 TIME:   0.031 TIME LEFT:  5.33D  GRAD.:    62.386 HEAT: -171.1125
 CYCLE:    12 TIME:   0.023 TIME LEFT:  5.33D  GRAD.:    11.605 HEAT: -171.6642
 CYCLE:    13 TIME:   0.031 TIME LEFT:  5.33D  GRAD.:     9.622 HEAT: -171.7297
 CYCLE:    14 TIME:   0.023 TIME LEFT:  5.33D  GRAD.:    12.455 HEAT: -171.8970
 CYCLE:    15 TIME:   0.031 TIME LEFT:  5.33D  GRAD.:    34.467 HEAT: -171.8971
 CYCLE:    16 TIME:   0.023 TIME LEFT:  5.33D  GRAD.:    13.302 HEAT: -172.0761
 CYCLE:    17 TIME:   0.031 TIME LEFT:  5.33D  GRAD.:     9.037 HEAT: -172.3215
 CYCLE:    18 TIME:   0.023 TIME LEFT:  5.33D  GRAD.:    11.055 HEAT: -172.3846
 CYCLE:    19 TIME:   0.031 TIME LEFT:  5.33D  GRAD.:    12.057 HEAT: -172.5368
 CYCLE:    20 TIME:   0.023 TIME LEFT:  5.33D  GRAD.:    44.103 HEAT: -172.3247
 CYCLE:    21 TIME:   0.031 TIME LEFT:  5.33D  GRAD.:     6.519 HEAT: -172.6270
 CYCLE:    22 TIME:   0.023 TIME LEFT:  5.33D  GRAD.:     5.765 HEAT: -172.6284
 CYCLE:    23 TIME:   0.031 TIME LEFT:  5.33D  GRAD.:     7.085 HEAT: -172.6899
 CYCLE:    24 TIME:   0.031 TIME LEFT:  5.33D  GRAD.:     9.762 HEAT: -172.7538
 CYCLE:    25 TIME:   0.031 TIME LEFT:  5.33D  GRAD.:    11.583 HEAT: -172.7891
 CYCLE:    26 TIME:   0.023 TIME LEFT:  5.33D  GRAD.:     4.386 HEAT: -172.8203
 CYCLE:    27 TIME:   0.023 TIME LEFT:  5.33D  GRAD.:     4.682 HEAT: -172.8318
 CYCLE:    28 TIME:   0.031 TIME LEFT:  5.33D  GRAD.:     6.083 HEAT: -172.8960
 CYCLE:    29 TIME:   0.023 TIME LEFT:  5.33D  GRAD.:     6.519 HEAT: -172.8736
 CYCLE:    30 TIME:   0.031 TIME LEFT:  5.33D  GRAD.:    23.535 HEAT: -172.9191
 CYCLE:    31 TIME:   0.023 TIME LEFT:  5.33D  GRAD.:     5.777 HEAT: -173.0172
 CYCLE:    32 TIME:   0.023 TIME LEFT:  5.33D  GRAD.:     3.769 HEAT: -173.0201
 CYCLE:    33 TIME:   0.031 TIME LEFT:  5.33D  GRAD.:     4.572 HEAT: -173.0029
 CYCLE:    34 TIME:   0.023 TIME LEFT:  5.33D  GRAD.:     6.927 HEAT: -173.0248
 CYCLE:    35 TIME:   0.031 TIME LEFT:  5.33D  GRAD.:     4.546 HEAT: -173.0344
 CYCLE:    36 TIME:   0.031 TIME LEFT:  5.33D  GRAD.:     3.549 HEAT: -173.0464
 CYCLE:    37 TIME:   0.023 TIME LEFT:  5.33D  GRAD.:     4.737 HEAT: -173.0597
 CYCLE:    38 TIME:   0.031 TIME LEFT:  5.33D  GRAD.:     4.580 HEAT: -173.0433
 CYCLE:    39 TIME:   0.023 TIME LEFT:  5.33D  GRAD.:     4.784 HEAT: -173.0532
 CYCLE:    40 TIME:   0.031 TIME LEFT:  5.33D  GRAD.:     2.575 HEAT: -173.0615
 CYCLE:    41 TIME:   0.023 TIME LEFT:  5.33D  GRAD.:     2.361 HEAT: -173.0663
 CYCLE:    42 TIME:   0.023 TIME LEFT:  5.33D  GRAD.:     5.013 HEAT: -173.0536
 CYCLE:    43 TIME:   0.031 TIME LEFT:  5.33D  GRAD.:     2.416 HEAT: -173.0610
 CYCLE:    44 TIME:   0.023 TIME LEFT:  5.33D  GRAD.:     2.068 HEAT: -173.0626
 CYCLE:    45 TIME:   0.031 TIME LEFT:  5.33D  GRAD.:     1.964 HEAT: -173.0687
 CYCLE:    46 TIME:   0.023 TIME LEFT:  5.33D  GRAD.:     4.307 HEAT: -173.1018
 CYCLE:    47 TIME:   0.031 TIME LEFT:  5.33D  GRAD.:     1.855 HEAT: -173.1005
 CYCLE:    48 TIME:   0.023 TIME LEFT:  5.33D  GRAD.:     1.640 HEAT: -173.0512
 CYCLE:    49 TIME:   0.031 TIME LEFT:  5.33D  GRAD.:     2.153 HEAT: -173.1097
 CYCLE:    50 TIME:   0.023 TIME LEFT:  5.33D  GRAD.:     2.437 HEAT: -173.0896
 CYCLE:    51 TIME:   0.031 TIME LEFT:  5.33D  GRAD.:     2.083 HEAT: -173.0945
 CYCLE:    52 TIME:   0.023 TIME LEFT:  5.33D  GRAD.:     2.117 HEAT: -173.0860
 CYCLE:    53 TIME:   0.031 TIME LEFT:  5.33D  GRAD.:     2.804 HEAT: -173.0660
 CYCLE:    54 TIME:   0.031 TIME LEFT:  5.33D  GRAD.:     2.761 HEAT: -173.0731
 CYCLE:    55 TIME:   0.023 TIME LEFT:  5.33D  GRAD.:     3.263 HEAT: -173.0700
 CYCLE:    56 TIME:   0.031 TIME LEFT:  5.33D  GRAD.:     2.392 HEAT: -173.0817
 CYCLE:    57 TIME:   0.023 TIME LEFT:  5.33D  GRAD.:     4.642 HEAT: -173.0856
 CYCLE:    58 TIME:   0.031 TIME LEFT:  5.33D  GRAD.:     3.386 HEAT: -173.0783
 CYCLE:    59 TIME:   0.023 TIME LEFT:  5.33D  GRAD.:     2.117 HEAT: -173.0808
 CYCLE:    60 TIME:   0.023 TIME LEFT:  5.33D  GRAD.:     1.924 HEAT: -173.0927
 CYCLE:    61 TIME:   0.031 TIME LEFT:  5.33D  GRAD.:     2.111 HEAT: -173.1001
 CYCLE:    62 TIME:   0.023 TIME LEFT:  5.33D  GRAD.:     5.458 HEAT: -173.0865
 CYCLE:    63 TIME:   0.031 TIME LEFT:  5.33D  GRAD.:     1.714 HEAT: -173.0905
 CYCLE:    64 TIME:   0.023 TIME LEFT:  5.33D  GRAD.:     1.314 HEAT: -173.0921
 CYCLE:    65 TIME:   0.031 TIME LEFT:  5.33D  GRAD.:     1.848 HEAT: -173.0946
 CYCLE:    66 TIME:   0.023 TIME LEFT:  5.33D  GRAD.:     2.008 HEAT: -173.0984
 CYCLE:    67 TIME:   0.031 TIME LEFT:  5.33D  GRAD.:     5.504 HEAT: -173.0953
 CYCLE:    68 TIME:   0.023 TIME LEFT:  5.33D  GRAD.:     1.452 HEAT: -173.1002
 CYCLE:    69 TIME:   0.031 TIME LEFT:  5.33D  GRAD.:     1.153 HEAT: -173.0997
 CYCLE:    70 TIME:   0.023 TIME LEFT:  5.33D  GRAD.:     1.649 HEAT: -173.0978
 CYCLE:    71 TIME:   0.031 TIME LEFT:  5.33D  GRAD.:     3.037 HEAT: -173.0998
 CYCLE:    72 TIME:   0.023 TIME LEFT:  5.33D  GRAD.:     1.481 HEAT: -173.1015
 CYCLE:    73 TIME:   0.031 TIME LEFT:  5.33D  GRAD.:     1.328 HEAT: -173.1023
 CYCLE:    74 TIME:   0.023 TIME LEFT:  5.33D  GRAD.:     1.510 HEAT: -173.1029
 CYCLE:    75 TIME:   0.031 TIME LEFT:  5.33D  GRAD.:     1.751 HEAT: -173.1039
 CYCLE:    76 TIME:   0.023 TIME LEFT:  5.33D  GRAD.:     1.308 HEAT: -173.1249
 CYCLE:    77 TIME:   0.031 TIME LEFT:  5.33D  GRAD.:     0.849 HEAT: -173.1062
 CYCLE:    78 TIME:   0.031 TIME LEFT:  5.33D  GRAD.:     1.009 HEAT: -173.1075
 CYCLE:    79 TIME:   0.023 TIME LEFT:  5.33D  GRAD.:     1.147 HEAT: -173.1083
 CYCLE:    80 TIME:   0.031 TIME LEFT:  5.33D  GRAD.:     0.738 HEAT: -173.1091
 CYCLE:    81 TIME:   0.023 TIME LEFT:  5.33D  GRAD.:     0.720 HEAT: -173.1099
 CYCLE:    82 TIME:   0.031 TIME LEFT:  5.33D  GRAD.:     1.351 HEAT: -173.1103
 CYCLE:    83 TIME:   0.023 TIME LEFT:  5.33D  GRAD.:     0.732 HEAT: -173.1112
 CYCLE:    84 TIME:   0.031 TIME LEFT:  5.33D  GRAD.:     0.641 HEAT: -173.1121
 CYCLE:    85 TIME:   0.023 TIME LEFT:  5.33D  GRAD.:     0.795 HEAT: -173.1239
 CYCLE:    86 TIME:   0.031 TIME LEFT:  5.33D  GRAD.:     0.789 HEAT: -173.1084
 CYCLE:    87 TIME:   0.023 TIME LEFT:  5.33D  GRAD.:     0.740 HEAT: -173.1100
 CYCLE:    88 TIME:   0.031 TIME LEFT:  5.33D  GRAD.:     0.660 HEAT: -173.1106
 CYCLE:    89 TIME:   0.023 TIME LEFT:  5.33D  GRAD.:     0.558 HEAT: -173.1110
 CYCLE:    90 TIME:   0.031 TIME LEFT:  5.33D  GRAD.:     0.595 HEAT: -173.1117
 CYCLE:    91 TIME:   0.023 TIME LEFT:  5.33D  GRAD.:     0.951 HEAT: -173.1125
 CYCLE:    92 TIME:   0.031 TIME LEFT:  5.33D  GRAD.:     1.137 HEAT: -173.1147
 CYCLE:    93 TIME:   0.023 TIME LEFT:  5.33D  GRAD.:     0.702 HEAT: -173.1159
 CYCLE:    94 TIME:   0.031 TIME LEFT:  5.33D  GRAD.:     0.736 HEAT: -173.1271
 CYCLE:    95 TIME:   0.023 TIME LEFT:  5.33D  GRAD.:     0.912 HEAT: -173.1282
 CYCLE:    96 TIME:   0.031 TIME LEFT:  5.33D  GRAD.:     1.412 HEAT: -173.1309
 CYCLE:    97 TIME:   0.023 TIME LEFT:  5.33D  GRAD.:     0.975 HEAT: -173.1362
 CYCLE:    98 TIME:   0.031 TIME LEFT:  5.33D  GRAD.:     0.950 HEAT: -173.1375
 CYCLE:    99 TIME:   0.023 TIME LEFT:  5.33D  GRAD.:     1.206 HEAT: -173.1453
 CYCLE:   100 TIME:   0.031 TIME LEFT:  5.33D  GRAD.:     0.995 HEAT: -173.1458
 CYCLE:   101 TIME:   0.023 TIME LEFT:  5.33D  GRAD.:     0.709 HEAT: -173.1464
 CYCLE:   102 TIME:   0.031 TIME LEFT:  5.33D  GRAD.:     1.015 HEAT: -173.1431
 CYCLE:   103 TIME:   0.023 TIME LEFT:  5.33D  GRAD.:     0.701 HEAT: -173.1479
 CYCLE:   104 TIME:   0.031 TIME LEFT:  5.33D  GRAD.:     0.747 HEAT: -173.1454
 CYCLE:   105 TIME:   0.031 TIME LEFT:  5.33D  GRAD.:     1.645 HEAT: -173.1500
 CYCLE:   106 TIME:   0.023 TIME LEFT:  5.33D  GRAD.:     0.605 HEAT: -173.1452
 CYCLE:   107 TIME:   0.023 TIME LEFT:  5.33D  GRAD.:     0.453 HEAT: -173.1458
 CYCLE:   108 TIME:   0.031 TIME LEFT:  5.33D  GRAD.:     0.806 HEAT: -173.1469
 CYCLE:   109 TIME:   0.023 TIME LEFT:  5.33D  GRAD.:     1.477 HEAT: -173.1486
 CYCLE:   110 TIME:   0.031 TIME LEFT:  5.33D  GRAD.:     0.972 HEAT: -173.1668
 CYCLE:   111 TIME:   0.031 TIME LEFT:  5.33D  GRAD.:     0.789 HEAT: -173.1708
 CYCLE:   112 TIME:   0.023 TIME LEFT:  5.33D  GRAD.:     0.920 HEAT: -173.1555
 CYCLE:   113 TIME:   0.031 TIME LEFT:  5.33D  GRAD.:     1.433 HEAT: -173.1182
 CYCLE:   114 TIME:   0.031 TIME LEFT:  5.33D  GRAD.:     0.991 HEAT: -173.1387
 CYCLE:   115 TIME:   0.023 TIME LEFT:  5.33D  GRAD.:     0.818 HEAT: -173.1401
 CYCLE:   116 TIME:   0.031 TIME LEFT:  5.33D  GRAD.:     0.947 HEAT: -173.1211
 CYCLE:   117 TIME:   0.023 TIME LEFT:  5.33D  GRAD.:     0.757 HEAT: -173.1214
 CYCLE:   118 TIME:   0.023 TIME LEFT:  5.33D  GRAD.:     0.648 HEAT: -173.1221
 CYCLE:   119 TIME:   0.031 TIME LEFT:  5.33D  GRAD.:     1.244 HEAT: -173.2171
 CYCLE:   120 TIME:   0.031 TIME LEFT:  5.33D  GRAD.:     0.906 HEAT: -173.2178
 CYCLE:   121 TIME:   0.023 TIME LEFT:  5.33D  GRAD.:     0.891 HEAT: -173.2191
 CYCLE:   122 TIME:   0.031 TIME LEFT:  5.33D  GRAD.:     1.397 HEAT: -173.2238
 CYCLE:   123 TIME:   0.031 TIME LEFT:  5.33D  GRAD.:     1.154 HEAT: -173.3003
 CYCLE:   124 TIME:   0.023 TIME LEFT:  5.33D  GRAD.:     1.425 HEAT: -173.2379
 CYCLE:   125 TIME:   0.031 TIME LEFT:  5.33D  GRAD.:     1.262 HEAT: -173.2374
 CYCLE:   126 TIME:   0.023 TIME LEFT:  5.33D  GRAD.:     0.881 HEAT: -173.2548
 CYCLE:   127 TIME:   0.023 TIME LEFT:  5.33D  GRAD.:     0.773 HEAT: -173.2553
 CYCLE:   128 TIME:   0.031 TIME LEFT:  5.33D  GRAD.:     0.953 HEAT: -173.2567
 CYCLE:   129 TIME:   0.023 TIME LEFT:  5.33D  GRAD.:     1.956 HEAT: -173.2924
 CYCLE:   130 TIME:   0.031 TIME LEFT:  5.33D  GRAD.:     0.766 HEAT: -173.2936
 CYCLE:   131 TIME:   0.023 TIME LEFT:  5.33D  GRAD.:     0.678 HEAT: -173.2943
 CYCLE:   132 TIME:   0.031 TIME LEFT:  5.33D  GRAD.:     0.772 HEAT: -173.2952
 CYCLE:   133 TIME:   0.023 TIME LEFT:  5.33D  GRAD.:     1.148 HEAT: -173.2974
 CYCLE:   134 TIME:   0.031 TIME LEFT:  5.33D  GRAD.:     1.262 HEAT: -173.3264
 CYCLE:   135 TIME:   0.023 TIME LEFT:  5.33D  GRAD.:     0.633 HEAT: -173.2979
 CYCLE:   136 TIME:   0.031 TIME LEFT:  5.33D  GRAD.:     0.643 HEAT: -173.2979
 CYCLE:   137 TIME:   0.023 TIME LEFT:  5.33D  GRAD.:     0.821 HEAT: -173.2944
 CYCLE:   138 TIME:   0.031 TIME LEFT:  5.33D  GRAD.:     0.737 HEAT: -173.3246
 CYCLE:   139 TIME:   0.023 TIME LEFT:  5.33D  GRAD.:     1.296 HEAT: -173.3151
 CYCLE:   140 TIME:   0.031 TIME LEFT:  5.33D  GRAD.:     0.677 HEAT: -173.3161
 CYCLE:   141 TIME:   0.023 TIME LEFT:  5.33D  GRAD.:     0.690 HEAT: -173.3168
 CYCLE:   142 TIME:   0.031 TIME LEFT:  5.33D  GRAD.:     0.703 HEAT: -173.3266
 CYCLE:   143 TIME:   0.031 TIME LEFT:  5.33D  GRAD.:     1.648 HEAT: -173.3405
 CYCLE:   144 TIME:   0.023 TIME LEFT:  5.33D  GRAD.:     0.668 HEAT: -173.3411
 CYCLE:   145 TIME:   0.031 TIME LEFT:  5.33D  GRAD.:     0.582 HEAT: -173.3413
 CYCLE:   146 TIME:   0.023 TIME LEFT:  5.33D  GRAD.:     0.786 HEAT: -173.3546
 CYCLE:   147 TIME:   0.031 TIME LEFT:  5.33D  GRAD.:     2.261 HEAT: -173.3391
 CYCLE:   148 TIME:   0.023 TIME LEFT:  5.33D  GRAD.:     0.870 HEAT: -173.3398
 CYCLE:   149 TIME:   0.023 TIME LEFT:  5.33D  GRAD.:     0.578 HEAT: -173.3402
 CYCLE:   150 TIME:   0.031 TIME LEFT:  5.33D  GRAD.:     0.751 HEAT: -173.3681
 CYCLE:   151 TIME:   0.023 TIME LEFT:  5.33D  GRAD.:     1.180 HEAT: -173.3682
 CYCLE:   152 TIME:   0.031 TIME LEFT:  5.33D  GRAD.:     1.054 HEAT: -173.3567
 CYCLE:   153 TIME:   0.031 TIME LEFT:  5.33D  GRAD.:     0.893 HEAT: -173.3577
 CYCLE:   154 TIME:   0.023 TIME LEFT:  5.33D  GRAD.:     1.085 HEAT: -173.3572
 CYCLE:   155 TIME:   0.031 TIME LEFT:  5.33D  GRAD.:     1.061 HEAT: -173.3388
 CYCLE:   156 TIME:   0.023 TIME LEFT:  5.33D  GRAD.:     1.583 HEAT: -173.3394
 CYCLE:   157 TIME:   0.031 TIME LEFT:  5.33D  GRAD.:     1.580 HEAT: -173.3390
 CYCLE:   158 TIME:   0.031 TIME LEFT:  5.33D  GRAD.:     1.802 HEAT: -173.2820
 CYCLE:   159 TIME:   0.023 TIME LEFT:  5.33D  GRAD.:     1.743 HEAT: -173.2803
 CYCLE:   160 TIME:   0.031 TIME LEFT:  5.33D  GRAD.:     2.020 HEAT: -173.2055
 CYCLE:   161 TIME:   0.031 TIME LEFT:  5.33D  GRAD.:     1.875 HEAT: -173.2019
 CYCLE:   162 TIME:   0.023 TIME LEFT:  5.33D  GRAD.:     2.364 HEAT: -173.2582
 CYCLE:   163 TIME:   0.031 TIME LEFT:  5.33D  GRAD.:    31.361 HEAT: -173.0667
 CYCLE:   164 TIME:   0.031 TIME LEFT:  5.33D  GRAD.:    18.013 HEAT: -173.1875
 CYCLE:   165 TIME:   0.023 TIME LEFT:  5.33D  GRAD.:     4.785 HEAT: -173.2588
 CYCLE:   166 TIME:   0.031 TIME LEFT:  5.33D  GRAD.:     2.435 HEAT: -173.2434
 CYCLE:   167 TIME:   0.031 TIME LEFT:  5.33D  GRAD.:     5.668 HEAT: -173.2655
 CYCLE:   168 TIME:   0.023 TIME LEFT:  5.33D  GRAD.:     5.143 HEAT: -173.2485
 CYCLE:   169 TIME:   0.031 TIME LEFT:  5.33D  GRAD.:     2.867 HEAT: -173.2632
 CYCLE:   170 TIME:   0.031 TIME LEFT:  5.33D  GRAD.:    10.715 HEAT: -173.2495
 CYCLE:   171 TIME:   0.023 TIME LEFT:  5.33D  GRAD.:     1.492 HEAT: -173.2677
 CYCLE:   172 TIME:   0.031 TIME LEFT:  5.33D  GRAD.:     6.957 HEAT: -173.2102
 CYCLE:   173 TIME:   0.023 TIME LEFT:  5.33D  GRAD.:     0.941 HEAT: -173.2649


           HEAT OF FORMATION IS ESSENTIALLY STATIONARY


          CURRENT BEST VALUE OF HEAT OF FORMATION =   -173.368169
 
 PM6-D3H4 OPT T=128H RECALC=5 PRECISE EPS=2.38 RSOLV=3.48
 DA_P_PM6_D3H4_OPT

  C    -2.87413606 +1   0.22377613 +1  -0.29113852 +1
  C    -1.54034558 +1   0.85179493 +1  -0.72037976 +1
  C    -0.52112496 +1  -0.31944234 +1  -0.72396151 +1
  C    -1.28523613 +1  -1.52836064 +1  -0.16077872 +1
  H    -1.66811680 +1   1.22699984 +1  -1.76917009 +1
  H    -0.26379795 +1  -0.57092813 +1  -1.78809215 +1
  C    -3.68464753 +1  -2.04921559 +1   0.55730306 +1
  H    -3.63899420 +1  -2.04803654 +1   1.67654216 +1
  H    -4.68944766 +1  -1.68655009 +1   0.21836597 +1
  H    -3.49926027 +1  -3.08475385 +1   0.17178736 +1
  N    -2.64384333 +1  -1.14400305 +1   0.02193385 +1
  O    -0.86362612 +1  -2.63522622 +1   0.07681372 +1
  O    -3.95945199 +1   0.75336766 +1  -0.22278182 +1
  C     0.78325633 +1  -0.12974676 +1   0.07477158 +1
  H     1.12047698 +1  -1.15232071 +1   0.41844083 +1
  C    -1.24127785 +1   2.06048257 +1   0.20315943 +1
  H    -2.22439801 +1   2.39141962 +1   0.64781107 +1
  C    -0.31389870 +1   1.71815094 +1   1.33724959 +1
  H    -0.42629212 +1   2.34432961 +1   2.22431608 +1
  C     0.59547927 +1   0.74475228 +1   1.28151311 +1
  H     1.27615845 +1   0.53630341 +1   2.10854646 +1
  C    -0.68090745 +1   3.24655101 +1  -0.59691897 +1
  H    -1.45592811 +1   3.63905367 +1  -1.29344148 +1
  H    -0.38542815 +1   4.06213900 +1   0.10288463 +1
  H     0.21254908 +1   2.94336604 +1  -1.18255235 +1
  C     1.90053015 +1   0.43567594 +1  -0.82347677 +1
  H     2.03144330 +1  -0.16224585 +1  -1.75202411 +1
  H     1.78389558 +1   1.52406134 +1  -1.01612412 +1
  C     3.89845080 +1  -0.73880976 +1  -0.05602809 +1
  C     5.11527092 +1  -0.51736227 +1   0.76594468 +1
  H     5.16367147 +1  -1.28955982 +1   1.57542509 +1
  H     6.02443967 +1  -0.61990583 +1   0.11960324 +1
  H     5.11234533 +1   0.50035173 +1   1.23102697 +1
  O     3.53899145 +1  -1.73056294 +1  -0.65191788 +1
  O     3.15513021 +1   0.42228464 +1  -0.08068254 +1
 
 

 -------------------------------------------------------------------------------
 PM6-D3H4 OPT T=128H RECALC=5 PRECISE EPS=2.38 RSOLV=3.48
 DA_P_PM6_D3H4_OPT



     HERBERTS TEST WAS SATISFIED IN BFGS                      
     SCF FIELD WAS ACHIEVED                                   


                              PM6-D3H4 CALCULATION
                                                       MOPAC2016 (Version: 21.125L)
                                                       Tue Oct 26 20:53:47 2021
                                                       No. of days remaining = 191




          FINAL HEAT OF FORMATION =       -173.36817 KCAL/MOL =    -725.37242 KJ/MOL
          VAN DER WAALS AREA      =        521.86 SQUARE ANGSTROMS


          TOTAL ENERGY            =      -3170.14636 EV
          ELECTRONIC ENERGY       =     -13550.02632 EV  POINT GROUP:     C1  
          CORE-CORE REPULSION     =      10379.87996 EV

          DIELECTRIC ENERGY       =         -0.37935 EV
          COSMO AREA              =        521.86 SQUARE ANGSTROMS
          COSMO VOLUME            =        607.88 CUBIC ANGSTROMS

          GRADIENT NORM           =          1.17955 = 0.19938 PER ATOM
          IONIZATION POTENTIAL    =         10.190665 EV
          HOMO LUMO ENERGIES (EV) =        -10.191 -0.220
          NO. OF FILLED LEVELS    =         49
          MOLECULAR WEIGHT        =        251.2816

          MOLECULAR DIMENSIONS (Angstroms)

            Atom       Atom       Distance
            H    32    H     9    10.76731
            H    24    H    10     6.80334
            H     6    H    19     4.02793


          SCF CALCULATIONS        =        176
 
          WALL-CLOCK TIME         =          4.852 SECONDS
          COMPUTATION TIME        =          4.567 SECONDS




   ATOM   CHEMICAL          X               Y               Z
  NUMBER   SYMBOL      (ANGSTROMS)     (ANGSTROMS)     (ANGSTROMS)
 
     1       C         -2.87413606  *   0.22377613  *  -0.29113852  *
     2       C         -1.54034558  *   0.85179493  *  -0.72037976  *
     3       C         -0.52112496  *  -0.31944234  *  -0.72396151  *
     4       C         -1.28523613  *  -1.52836064  *  -0.16077872  *
     5       H         -1.66811680  *   1.22699984  *  -1.76917009  *
     6       H         -0.26379795  *  -0.57092813  *  -1.78809215  *
     7       C         -3.68464753  *  -2.04921559  *   0.55730306  *
     8       H         -3.63899420  *  -2.04803654  *   1.67654216  *
     9       H         -4.68944766  *  -1.68655009  *   0.21836597  *
    10       H         -3.49926027  *  -3.08475385  *   0.17178736  *
    11       N         -2.64384333  *  -1.14400305  *   0.02193385  *
    12       O         -0.86362612  *  -2.63522622  *   0.07681372  *
    13       O         -3.95945199  *   0.75336766  *  -0.22278182  *
    14       C          0.78325633  *  -0.12974676  *   0.07477158  *
    15       H          1.12047698  *  -1.15232071  *   0.41844083  *
    16       C         -1.24127785  *   2.06048257  *   0.20315943  *
    17       H         -2.22439801  *   2.39141962  *   0.64781107  *
    18       C         -0.31389870  *   1.71815094  *   1.33724959  *
    19       H         -0.42629212  *   2.34432961  *   2.22431608  *
    20       C          0.59547927  *   0.74475228  *   1.28151311  *
    21       H          1.27615845  *   0.53630341  *   2.10854646  *
    22       C         -0.68090745  *   3.24655101  *  -0.59691897  *
    23       H         -1.45592811  *   3.63905367  *  -1.29344148  *
    24       H         -0.38542815  *   4.06213900  *   0.10288463  *
    25       H          0.21254908  *   2.94336604  *  -1.18255235  *
    26       C          1.90053015  *   0.43567594  *  -0.82347677  *
    27       H          2.03144330  *  -0.16224585  *  -1.75202411  *
    28       H          1.78389558  *   1.52406134  *  -1.01612412  *
    29       C          3.89845080  *  -0.73880976  *  -0.05602809  *
    30       C          5.11527092  *  -0.51736227  *   0.76594468  *
    31       H          5.16367147  *  -1.28955982  *   1.57542509  *
    32       H          6.02443967  *  -0.61990583  *   0.11960324  *
    33       H          5.11234533  *   0.50035173  *   1.23102697  *
    34       O          3.53899145  *  -1.73056294  *  -0.65191788  *
    35       O          3.15513021  *   0.42228464  *  -0.08068254  *

                             CARTESIAN COORDINATES

   1    C       -2.874136063     0.223776126    -0.291138518
   2    C       -1.540345577     0.851794932    -0.720379759
   3    C       -0.521124963    -0.319442342    -0.723961508
   4    C       -1.285236133    -1.528360637    -0.160778721
   5    H       -1.668116802     1.226999845    -1.769170094
   6    H       -0.263797953    -0.570928126    -1.788092149
   7    C       -3.684647530    -2.049215592     0.557303057
   8    H       -3.638994197    -2.048036537     1.676542158
   9    H       -4.689447661    -1.686550092     0.218365965
  10    H       -3.499260273    -3.084753851     0.171787359
  11    N       -2.643843330    -1.144003046     0.021933854
  12    O       -0.863626122    -2.635226221     0.076813717
  13    O       -3.959451993     0.753367661    -0.222781823
  14    C        0.783256325    -0.129746757     0.074771584
  15    H        1.120476977    -1.152320708     0.418440830
  16    C       -1.241277853     2.060482574     0.203159426
  17    H       -2.224398005     2.391419621     0.647811070
  18    C       -0.313898695     1.718150937     1.337249591
  19    H       -0.426292123     2.344329608     2.224316079
  20    C        0.595479273     0.744752282     1.281513113
  21    H        1.276158449     0.536303407     2.108546461
  22    C       -0.680907449     3.246551014    -0.596918970
  23    H       -1.455928108     3.639053672    -1.293441479
  24    H       -0.385428146     4.062139001     0.102884632
  25    H        0.212549078     2.943366045    -1.182552353
  26    C        1.900530149     0.435675943    -0.823476766
  27    H        2.031443303    -0.162245849    -1.752024108
  28    H        1.783895577     1.524061343    -1.016124115
  29    C        3.898450799    -0.738809758    -0.056028090
  30    C        5.115270921    -0.517362272     0.765944677
  31    H        5.163671470    -1.289559821     1.575425087
  32    H        6.024439672    -0.619905828     0.119603240
  33    H        5.112345326     0.500351726     1.231026966
  34    O        3.538991445    -1.730562939    -0.651917878
  35    O        3.155130214     0.422284640    -0.080682536


           Empirical Formula: C13 H17 N O4  =    35 atoms



      MOLECULAR POINT GROUP   :   C1  


                  EIGENVALUES  
 -33.53950 -32.46740 -32.30274 -31.44229 -30.69206 -30.08692 -28.14993 -27.64102
 -27.03108 -25.54892 -24.28778 -24.18693 -22.77454 -21.59876 -21.46862 -20.66925
 -19.84274 -18.15219 -17.71757 -17.51422 -17.11278 -16.87466 -16.71319 -16.54175
 -16.17053 -15.58921 -15.29741 -15.18316 -14.89957 -14.71829 -14.57861 -14.33795
 -14.16546 -13.98673 -13.88773 -13.68161 -13.61463 -13.45468 -13.17209 -12.93894
 -12.48905 -12.07942 -11.80735 -11.58429 -11.47735 -11.34858 -10.68231 -10.54850
 -10.19066  -0.21950   0.49978   0.66303   0.73309   0.93895   1.07109   2.20139
   2.24096   2.66193   2.80298   3.12862   3.30624   3.39272   3.46139   3.52650
   3.71840   3.88348   3.98628   4.23588   4.26986   4.44206   4.74648   4.85535
   4.88859   4.96221   5.06768   5.09144   5.16094   5.21198   5.30563   5.34442
   5.36457   5.52276   5.57217   5.78565   5.82325   5.86828   5.89035   6.05032
   6.38767


              NET ATOMIC CHARGES AND DIPOLE CONTRIBUTIONS

  ATOM NO.   TYPE          CHARGE      No. of ELECS.   s-Pop       p-Pop       
    1          C           0.597901        3.4021     1.09643     2.30567
    2          C          -0.239827        4.2398     1.12247     3.11736
    3          C          -0.225660        4.2257     1.11751     3.10815
    4          C           0.599876        3.4001     1.09491     2.30522
    5          H           0.186936        0.8131     0.81306
    6          H           0.185629        0.8144     0.81437
    7          C          -0.261919        4.2619     1.09825     3.16367
    8          H           0.161224        0.8388     0.83878
    9          H           0.173343        0.8267     0.82666
   10          H           0.171565        0.8284     0.82843
   11          N          -0.465931        5.4659     1.53890     3.92703
   12          O          -0.510323        6.5103     1.84973     4.66060
   13          O          -0.524814        6.5248     1.84994     4.67487
   14          C          -0.114298        4.1143     1.09323     3.02107
   15          H           0.173322        0.8267     0.82668
   16          C          -0.021819        4.0218     1.08203     2.93979
   17          H           0.149001        0.8510     0.85100
   18          C          -0.182325        4.1823     1.11839     3.06394
   19          H           0.154676        0.8453     0.84532
   20          C          -0.162683        4.1627     1.11378     3.04891
   21          H           0.158376        0.8416     0.84162
   22          C          -0.485776        4.4858     1.09671     3.38906
   23          H           0.161023        0.8390     0.83898
   24          H           0.164659        0.8353     0.83534
   25          H           0.157794        0.8422     0.84221
   26          C          -0.014469        4.0145     1.12189     2.89258
   27          H           0.150524        0.8495     0.84948
   28          H           0.159914        0.8401     0.84009
   29          C           0.686277        3.3137     1.08968     2.22404
   30          C          -0.594849        4.5948     1.10763     3.48721
   31          H           0.215213        0.7848     0.78479
   32          H           0.215415        0.7846     0.78458
   33          H           0.211499        0.7885     0.78850
   34          O          -0.557904        6.5579     1.85091     4.70700
   35          O          -0.471570        6.4716     1.84845     4.62312
 DIPOLE           X         Y         Z       TOTAL
 POINT-CHG.     2.593     3.997     0.358     4.778
 HYBRID        -0.264    -0.396    -0.041     0.477
 SUM            2.330     3.602     0.316     4.301


          ATOMIC ORBITAL ELECTRON POPULATIONS

     Atom    s        px        py        pz   
    1  C   1.09643   0.85023   0.77373   0.68171
    2  C   1.12247   0.96943   1.01695   1.13099
    3  C   1.11751   1.00747   0.98143   1.11926
    4  C   1.09491   0.78309   0.83102   0.69110
    5  H   0.81306
    6  H   0.81437
    7  C   1.09825   0.99898   1.04175   1.12294
    8  H   0.83878
    9  H   0.82666
   10  H   0.82843
   11  N   1.53890   1.16231   1.17847   1.58625
   12  O   1.84973   1.75435   1.35543   1.55082
   13  O   1.84994   1.39332   1.71292   1.56862
   14  C   1.09323   0.94273   1.09365   0.98469
   15  H   0.82668
   16  C   1.08203   1.05833   0.92561   0.95584
   17  H   0.85100
   18  C   1.11839   1.00040   1.01958   1.04396
   19  H   0.84532
   20  C   1.11378   1.02521   0.99539   1.02831
   21  H   0.84162
   22  C   1.09671   1.16008   1.08925   1.13973
   23  H   0.83898
   24  H   0.83534
   25  H   0.84221
   26  C   1.12189   0.78777   1.12233   0.98248
   27  H   0.84948
   28  H   0.84009
   29  C   1.08968   0.78007   0.73653   0.70745
   30  C   1.10763   1.09453   1.22475   1.16793
   31  H   0.78479
   32  H   0.78458
   33  H   0.78850
   34  O   1.85091   1.73071   1.45146   1.52482
   35  O   1.84845   1.41416   1.50039   1.70857

 **********************
 *                    *
 * JOB ENDED NORMALLY *
 *                    *
 **********************



 TOTAL JOB TIME:             4.85 SECONDS

 == MOPAC DONE ==
