 *******************************************************************************
 ** Site#: 37381        For non-commercial use only           Version 21.125L **
 *******************************************************************************
 ** Cite this program as: MOPAC2016, Version: 21.125L, James J. P. Stewart,   **
 ** Stewart Computational Chemistry, web: HTTP://OpenMOPAC.net. Days left: 191**
 *******************************************************************************
 **                                                                           **
 **                                MOPAC2016                                  **
 **                                                                           **
 *******************************************************************************

                              PM6-D3H4 CALCULATION RESULTS

 *******************************************************************************
 *  CALCULATION DONE:                                Tue Oct 26 21:00:15 2021  *
 *  PM6-D3H4   - CORRECT DISPERSION AND HYDROGEN BOND TERMS USING THE D3H4 METHOD
 *  EPS=2.38   - USE ANDREAS KLAMT'S COSMO IMPLICIT SOLVATION MODEL
 *  RSOLV=  3.480
 *  FORCE      - FORCE CALCULATION SPECIFIED
 *  T=         - A TIME OF 172800.0 SECONDS REQUESTED
 *  DUMP=N     - RESTART FILE WRITTEN EVERY 7200.0 SECONDS REQUESTED
 *  AUX        - OUTPUT AUXILIARY INFORMATION
 *  LARGE      - EXPANDED OUTPUT TO BE PRINTED
 *  THERMO     - THERMODYNAMIC QUANTITIES TO BE CALCULATED
 *******************************************************************************
 AUX LARGE FORCE THERMO PM6-D3H4 EPS=2.38 RSOLV=3.48
 DA_P_PM6_D3H4_THERMO

   ATOM   CHEMICAL          X               Y               Z
  NUMBER   SYMBOL      (ANGSTROMS)     (ANGSTROMS)     (ANGSTROMS)
 
     1       C         -2.87414000  *   0.22378000  *  -0.29114000  *
     2       C         -1.54035000  *   0.85179000  *  -0.72038000  *
     3       C         -0.52112000  *  -0.31944000  *  -0.72396000  *
     4       C         -1.28524000  *  -1.52836000  *  -0.16078000  *
     5       H         -1.66812000  *   1.22700000  *  -1.76917000  *
     6       H         -0.26380000  *  -0.57093000  *  -1.78809000  *
     7       C         -3.68465000  *  -2.04922000  *   0.55730000  *
     8       H         -3.63899000  *  -2.04804000  *   1.67654000  *
     9       H         -4.68945000  *  -1.68655000  *   0.21837000  *
    10       H         -3.49926000  *  -3.08475000  *   0.17179000  *
    11       N         -2.64384000  *  -1.14400000  *   0.02193000  *
    12       O         -0.86363000  *  -2.63523000  *   0.07681000  *
    13       O         -3.95945000  *   0.75337000  *  -0.22278000  *
    14       C          0.78326000  *  -0.12975000  *   0.07477000  *
    15       H          1.12048000  *  -1.15232000  *   0.41844000  *
    16       C         -1.24128000  *   2.06048000  *   0.20316000  *
    17       H         -2.22440000  *   2.39142000  *   0.64781000  *
    18       C         -0.31390000  *   1.71815000  *   1.33725000  *
    19       H         -0.42629000  *   2.34433000  *   2.22432000  *
    20       C          0.59548000  *   0.74475000  *   1.28151000  *
    21       H          1.27616000  *   0.53630000  *   2.10855000  *
    22       C         -0.68091000  *   3.24655000  *  -0.59692000  *
    23       H         -1.45593000  *   3.63905000  *  -1.29344000  *
    24       H         -0.38543000  *   4.06214000  *   0.10288000  *
    25       H          0.21255000  *   2.94337000  *  -1.18255000  *
    26       C          1.90053000  *   0.43568000  *  -0.82348000  *
    27       H          2.03144000  *  -0.16225000  *  -1.75202000  *
    28       H          1.78390000  *   1.52406000  *  -1.01612000  *
    29       C          3.89845000  *  -0.73881000  *  -0.05603000  *
    30       C          5.11527000  *  -0.51736000  *   0.76594000  *
    31       H          5.16367000  *  -1.28956000  *   1.57543000  *
    32       H          6.02444000  *  -0.61991000  *   0.11960000  *
    33       H          5.11235000  *   0.50035000  *   1.23103000  *
    34       O          3.53899000  *  -1.73056000  *  -0.65192000  *
    35       O          3.15513000  *   0.42228000  *  -0.08068000  *
 


          CARTESIAN COORDINATES 

    NO.       ATOM           X           Y           Z

     1         C         -2.8741      0.2238     -0.2911
     2         C         -1.5404      0.8518     -0.7204
     3         C         -0.5211     -0.3194     -0.7240
     4         C         -1.2852     -1.5284     -0.1608
     5         H         -1.6681      1.2270     -1.7692
     6         H         -0.2638     -0.5709     -1.7881
     7         C         -3.6846     -2.0492      0.5573
     8         H         -3.6390     -2.0480      1.6765
     9         H         -4.6894     -1.6865      0.2184
    10         H         -3.4993     -3.0848      0.1718
    11         N         -2.6438     -1.1440      0.0219
    12         O         -0.8636     -2.6352      0.0768
    13         O         -3.9594      0.7534     -0.2228
    14         C          0.7833     -0.1298      0.0748
    15         H          1.1205     -1.1523      0.4184
    16         C         -1.2413      2.0605      0.2032
    17         H         -2.2244      2.3914      0.6478
    18         C         -0.3139      1.7182      1.3373
    19         H         -0.4263      2.3443      2.2243
    20         C          0.5955      0.7448      1.2815
    21         H          1.2762      0.5363      2.1086
    22         C         -0.6809      3.2466     -0.5969
    23         H         -1.4559      3.6391     -1.2934
    24         H         -0.3854      4.0621      0.1029
    25         H          0.2126      2.9434     -1.1825
    26         C          1.9005      0.4357     -0.8235
    27         H          2.0314     -0.1623     -1.7520
    28         H          1.7839      1.5241     -1.0161
    29         C          3.8984     -0.7388     -0.0560
    30         C          5.1153     -0.5174      0.7659
    31         H          5.1637     -1.2896      1.5754
    32         H          6.0244     -0.6199      0.1196
    33         H          5.1124      0.5003      1.2310
    34         O          3.5390     -1.7306     -0.6519
    35         O          3.1551      0.4223     -0.0807

 General Reference for PM6:
 "Optimization of Parameters for Semiempirical Methods V: Modification of NDDO Approximations
 and Application to 70 Elements", J. J. P. Stewart, J. Mol. Mod., 13, 1173-1213 (2007)
 URL: https://link.springer.com/article/10.1007/s00894-007-0233-4

           Empirical Formula: C13 H17 N O4  =    35 atoms



      MOLECULAR POINT GROUP   :   C1  


      RHF CALCULATION, NO. OF DOUBLY OCCUPIED LEVELS = 49



          HEAT OF FORMATION =    -173.368164 KCALS/MOLE


          CARTESIAN COORDINATE DERIVATIVES

   NUMBER  ATOM         X            Y            Z

     1       C     -0.516384    -0.197183     0.013208
     2       C      0.201874     0.000135    -0.006497
     3       C      0.041063    -0.187518     0.061741
     4       C      0.142119    -0.343308    -0.011681
     5       H      0.020835    -0.135968     0.157757
     6       H      0.060283     0.031668     0.105964
     7       C      0.028458    -0.002948    -0.065126
     8       H     -0.080301    -0.025094    -0.019568
     9       H     -0.027774     0.082852    -0.063791
    10       H      0.017626    -0.109073    -0.052077
    11       N      0.209877    -0.027410     0.038644
    12       O     -0.070205     0.316738     0.035190
    13       O      0.262310     0.266823     0.076522
    14       C      0.008892    -0.048828     0.023887
    15       H      0.000396    -0.043682    -0.003344
    16       C     -0.014081    -0.039145    -0.070577
    17       H     -0.022754    -0.049386     0.002942
    18       C     -0.079541     0.020662    -0.012094
    19       H     -0.080171     0.048354     0.020084
    20       C      0.126510     0.097383    -0.006926
    21       H      0.045411     0.077894    -0.015479
    22       C     -0.025752     0.024836    -0.038530
    23       H      0.002389     0.050478     0.010153
    24       H     -0.073349     0.061403    -0.057700
    25       H     -0.033355     0.005106    -0.004176
    26       C     -0.015504    -0.000641    -0.021140
    27       H     -0.031790     0.018395    -0.003669
    28       H     -0.057484     0.019760     0.014086
    29       C      0.014069    -0.210964    -0.369902
    30       C     -0.009719     0.033919     0.142575
    31       H      0.039924    -0.081667    -0.011190
    32       H      0.139377    -0.014227    -0.014345
    33       H     -0.014994     0.004150    -0.006117
    34       O     -0.211789     0.172497     0.218704
    35       O      0.003535     0.183988    -0.067527
 
 DIPOLE           X         Y         Z       TOTAL
 POINT-CHG.     3.788    -2.391    -1.664     4.778
 HYBRID        -0.379     0.233     0.172     0.477
 SUM            3.408    -2.158    -1.492     4.301


          GRADIENT NORM =   1.18528


                              **** WARNING ****

           GRADIENT IS VERY LARGE FOR A THERMO CALCULATION
           RESULTS ARE LIKELY TO BE INACCURATE IF THERE ARE
           ANY LOW-LYING VIBRATIONS (LESS THAN ABOUT 400CM-1)
           GRADIENT NORM SHOULD BE LESS THAN ABOUT 1.2 FOR THERMO
           TO GIVE ACCURATE RESULTS


          TIME FOR SCF CALCULATION =    0.05

          TIME FOR DERIVATIVES     =    0.02

          MOLECULAR WEIGHT =  251.28



          ROTATIONAL CONSTANTS IN CM(-1)

          A =    0.02413568   B =    0.00891820   C =    0.00715978



           PRINCIPAL MOMENTS OF INERTIA IN UNITS OF 10**(-40)*GRAM-CM**2

          A =     1159.8089   B =     3138.8375   C =     3909.7251


          ORIENTATION OF MOLECULE IN FORCE CALCULATION

    NO.       ATOM         X         Y         Z

     1          C      -2.3062   -1.5329    0.8519
     2          C      -0.7707   -1.5329    0.8519
     3          C      -0.3634   -0.0346    0.8519
     4          C      -1.6791    0.7470    0.7079
     5          H      -0.4351   -2.0018    1.8134
     6          H       0.0547    0.2259    1.8615
     7          C      -4.1771    0.1993    0.6452
     8          H      -4.4498    0.3009   -0.4365
     9          H      -4.8068   -0.5958    1.1220
    10          H      -4.3318    1.1779    1.1683
    11          N      -2.7531   -0.1862    0.7590
    12          O      -1.8320    1.9401    0.5962
    13          O      -3.0515   -2.4827    0.9251
    14          C       0.6240    0.4341   -0.2347
    15          H       0.4026    1.5223   -0.4454
    16          C      -0.2748   -2.4113   -0.3252
    17          H      -1.1177   -3.1107   -0.5973
    18          C       0.0738   -1.6103   -1.5500
    19          H      -0.0157   -2.1540   -2.4923
    20          C       0.4812   -0.3413   -1.5132
    21          H       0.7560    0.2080   -2.4151
    22          C       0.9208   -3.2804    0.0946
    23          H       0.6028   -4.0264    0.8577
    24          H       1.3154   -3.8260   -0.7935
    25          H       1.7366   -2.6560    0.5162
    26          C       2.0769    0.3593    0.2736
    27          H       2.2056    0.8830    1.2462
    28          H       2.4745   -0.6785    0.2789
    29          C       3.1174    2.3519   -0.6787
    30          C       4.0352    2.7551   -1.7744
    31          H       3.5352    3.5257   -2.4147
    32          H       4.9637    3.2028   -1.3359
    33          H       4.3189    1.8792   -2.4104
    34          O       2.5662    3.0339    0.1572
    35          O       2.9535    0.9831   -0.7104


    FIRST DERIVATIVES WILL BE USED IN THE CALCULATION OF SECOND DERIVATIVES

          ESTIMATED TIME TO COMPLETE CALCULATION =       13.12 SECONDS

    FOR POINT-GROUP C1   THERE ARE   1 UNIQUE SYMMETRY FUNCTIONS.

 STEP:   1 TIME =     0.06 SECS, INTEGRAL =      0.06 TIME LEFT: 172799.88
 STEP:   2 TIME =     0.06 SECS, INTEGRAL =      0.12 TIME LEFT: 172799.81
 STEP:   3 TIME =     0.05 SECS, INTEGRAL =      0.18 TIME LEFT: 172799.76
 STEP:   4 TIME =     0.06 SECS, INTEGRAL =      0.24 TIME LEFT: 172799.70
 STEP:   5 TIME =     0.06 SECS, INTEGRAL =      0.30 TIME LEFT: 172799.63
 STEP:   6 TIME =     0.06 SECS, INTEGRAL =      0.37 TIME LEFT: 172799.57
 STEP:   7 TIME =     0.05 SECS, INTEGRAL =      0.42 TIME LEFT: 172799.52
 STEP:   8 TIME =     0.06 SECS, INTEGRAL =      0.48 TIME LEFT: 172799.45
 STEP:   9 TIME =     0.05 SECS, INTEGRAL =      0.54 TIME LEFT: 172799.40
 STEP:  10 TIME =     0.06 SECS, INTEGRAL =      0.60 TIME LEFT: 172799.34
 STEP:  11 TIME =     0.05 SECS, INTEGRAL =      0.66 TIME LEFT: 172799.28
 STEP:  12 TIME =     0.06 SECS, INTEGRAL =      0.72 TIME LEFT: 172799.22
 STEP:  13 TIME =     0.05 SECS, INTEGRAL =      0.77 TIME LEFT: 172799.16
 STEP:  14 TIME =     0.05 SECS, INTEGRAL =      0.83 TIME LEFT: 172799.11
 STEP:  15 TIME =     0.05 SECS, INTEGRAL =      0.88 TIME LEFT: 172799.05
 STEP:  16 TIME =     0.05 SECS, INTEGRAL =      0.94 TIME LEFT: 172799.00
 STEP:  17 TIME =     0.05 SECS, INTEGRAL =      0.99 TIME LEFT: 172798.95
 STEP:  18 TIME =     0.05 SECS, INTEGRAL =      1.04 TIME LEFT: 172798.90
 STEP:  19 TIME =     0.05 SECS, INTEGRAL =      1.09 TIME LEFT: 172798.84
 STEP:  20 TIME =     0.06 SECS, INTEGRAL =      1.16 TIME LEFT: 172798.78
 STEP:  21 TIME =     0.05 SECS, INTEGRAL =      1.21 TIME LEFT: 172798.73
 STEP:  22 TIME =     0.06 SECS, INTEGRAL =      1.27 TIME LEFT: 172798.66
 STEP:  23 TIME =     0.05 SECS, INTEGRAL =      1.33 TIME LEFT: 172798.61
 STEP:  24 TIME =     0.05 SECS, INTEGRAL =      1.38 TIME LEFT: 172798.55
 STEP:  25 TIME =     0.05 SECS, INTEGRAL =      1.44 TIME LEFT: 172798.50
 STEP:  26 TIME =     0.05 SECS, INTEGRAL =      1.49 TIME LEFT: 172798.45
 STEP:  27 TIME =     0.05 SECS, INTEGRAL =      1.55 TIME LEFT: 172798.39
 STEP:  28 TIME =     0.05 SECS, INTEGRAL =      1.60 TIME LEFT: 172798.34
 STEP:  29 TIME =     0.05 SECS, INTEGRAL =      1.66 TIME LEFT: 172798.28
 STEP:  30 TIME =     0.05 SECS, INTEGRAL =      1.71 TIME LEFT: 172798.23
 STEP:  31 TIME =     0.05 SECS, INTEGRAL =      1.77 TIME LEFT: 172798.17
 STEP:  32 TIME =     0.06 SECS, INTEGRAL =      1.83 TIME LEFT: 172798.11
 STEP:  33 TIME =     0.06 SECS, INTEGRAL =      1.89 TIME LEFT: 172798.05
 STEP:  34 TIME =     0.06 SECS, INTEGRAL =      1.95 TIME LEFT: 172797.98
 STEP:  35 TIME =     0.05 SECS, INTEGRAL =      2.01 TIME LEFT: 172797.93
 STEP:  36 TIME =     0.06 SECS, INTEGRAL =      2.07 TIME LEFT: 172797.87
 STEP:  37 TIME =     0.05 SECS, INTEGRAL =      2.12 TIME LEFT: 172797.81
 STEP:  38 TIME =     0.06 SECS, INTEGRAL =      2.19 TIME LEFT: 172797.75
 STEP:  39 TIME =     0.05 SECS, INTEGRAL =      2.24 TIME LEFT: 172797.70
 STEP:  40 TIME =     0.06 SECS, INTEGRAL =      2.30 TIME LEFT: 172797.63
 STEP:  41 TIME =     0.05 SECS, INTEGRAL =      2.36 TIME LEFT: 172797.58
 STEP:  42 TIME =     0.06 SECS, INTEGRAL =      2.42 TIME LEFT: 172797.52
 STEP:  43 TIME =     0.06 SECS, INTEGRAL =      2.48 TIME LEFT: 172797.45
 STEP:  44 TIME =     0.05 SECS, INTEGRAL =      2.54 TIME LEFT: 172797.40
 STEP:  45 TIME =     0.05 SECS, INTEGRAL =      2.59 TIME LEFT: 172797.34
 STEP:  46 TIME =     0.05 SECS, INTEGRAL =      2.65 TIME LEFT: 172797.29
 STEP:  47 TIME =     0.06 SECS, INTEGRAL =      2.71 TIME LEFT: 172797.23
 STEP:  48 TIME =     0.06 SECS, INTEGRAL =      2.77 TIME LEFT: 172797.16
 STEP:  49 TIME =     0.05 SECS, INTEGRAL =      2.83 TIME LEFT: 172797.11
 STEP:  50 TIME =     0.05 SECS, INTEGRAL =      2.88 TIME LEFT: 172797.05
 STEP:  51 TIME =     0.05 SECS, INTEGRAL =      2.94 TIME LEFT: 172797.00
 STEP:  52 TIME =     0.05 SECS, INTEGRAL =      2.99 TIME LEFT: 172796.95
 STEP:  53 TIME =     0.06 SECS, INTEGRAL =      3.05 TIME LEFT: 172796.88
 STEP:  54 TIME =     0.05 SECS, INTEGRAL =      3.11 TIME LEFT: 172796.83
 STEP:  55 TIME =     0.05 SECS, INTEGRAL =      3.16 TIME LEFT: 172796.77
 STEP:  56 TIME =     0.05 SECS, INTEGRAL =      3.22 TIME LEFT: 172796.72
 STEP:  57 TIME =     0.05 SECS, INTEGRAL =      3.27 TIME LEFT: 172796.66
 STEP:  58 TIME =     0.06 SECS, INTEGRAL =      3.34 TIME LEFT: 172796.60
 STEP:  59 TIME =     0.05 SECS, INTEGRAL =      3.39 TIME LEFT: 172796.55
 STEP:  60 TIME =     0.06 SECS, INTEGRAL =      3.45 TIME LEFT: 172796.48
 STEP:  61 TIME =     0.06 SECS, INTEGRAL =      3.52 TIME LEFT: 172796.42
 STEP:  62 TIME =     0.05 SECS, INTEGRAL =      3.57 TIME LEFT: 172796.37
 STEP:  63 TIME =     0.05 SECS, INTEGRAL =      3.62 TIME LEFT: 172796.31
 STEP:  64 TIME =     0.05 SECS, INTEGRAL =      3.68 TIME LEFT: 172796.26
 STEP:  65 TIME =     0.05 SECS, INTEGRAL =      3.73 TIME LEFT: 172796.20
 STEP:  66 TIME =     0.05 SECS, INTEGRAL =      3.79 TIME LEFT: 172796.15
 STEP:  67 TIME =     0.05 SECS, INTEGRAL =      3.84 TIME LEFT: 172796.09
 STEP:  68 TIME =     0.05 SECS, INTEGRAL =      3.90 TIME LEFT: 172796.04
 STEP:  69 TIME =     0.05 SECS, INTEGRAL =      3.95 TIME LEFT: 172795.98
 STEP:  70 TIME =     0.05 SECS, INTEGRAL =      4.01 TIME LEFT: 172795.93
 STEP:  71 TIME =     0.05 SECS, INTEGRAL =      4.06 TIME LEFT: 172795.88
 STEP:  72 TIME =     0.05 SECS, INTEGRAL =      4.12 TIME LEFT: 172795.82
 STEP:  73 TIME =     0.05 SECS, INTEGRAL =      4.17 TIME LEFT: 172795.77
 STEP:  74 TIME =     0.06 SECS, INTEGRAL =      4.23 TIME LEFT: 172795.70
 STEP:  75 TIME =     0.05 SECS, INTEGRAL =      4.28 TIME LEFT: 172795.66
 STEP:  76 TIME =     0.05 SECS, INTEGRAL =      4.34 TIME LEFT: 172795.60
 STEP:  77 TIME =     0.06 SECS, INTEGRAL =      4.40 TIME LEFT: 172795.54
 STEP:  78 TIME =     0.05 SECS, INTEGRAL =      4.45 TIME LEFT: 172795.48
 STEP:  79 TIME =     0.06 SECS, INTEGRAL =      4.52 TIME LEFT: 172795.42
 STEP:  80 TIME =     0.05 SECS, INTEGRAL =      4.57 TIME LEFT: 172795.37
 STEP:  81 TIME =     0.05 SECS, INTEGRAL =      4.62 TIME LEFT: 172795.31
 STEP:  82 TIME =     0.05 SECS, INTEGRAL =      4.68 TIME LEFT: 172795.26
 STEP:  83 TIME =     0.05 SECS, INTEGRAL =      4.73 TIME LEFT: 172795.21
 STEP:  84 TIME =     0.05 SECS, INTEGRAL =      4.78 TIME LEFT: 172795.16
 STEP:  85 TIME =     0.05 SECS, INTEGRAL =      4.84 TIME LEFT: 172795.10
 STEP:  86 TIME =     0.06 SECS, INTEGRAL =      4.90 TIME LEFT: 172795.04
 STEP:  87 TIME =     0.06 SECS, INTEGRAL =      4.96 TIME LEFT: 172794.98
 STEP:  88 TIME =     0.06 SECS, INTEGRAL =      5.02 TIME LEFT: 172794.91
 STEP:  89 TIME =     0.05 SECS, INTEGRAL =      5.08 TIME LEFT: 172794.86
 STEP:  90 TIME =     0.06 SECS, INTEGRAL =      5.14 TIME LEFT: 172794.80
 STEP:  91 TIME =     0.05 SECS, INTEGRAL =      5.20 TIME LEFT: 172794.74
 STEP:  92 TIME =     0.05 SECS, INTEGRAL =      5.25 TIME LEFT: 172794.69
 STEP:  93 TIME =     0.05 SECS, INTEGRAL =      5.30 TIME LEFT: 172794.63
 STEP:  94 TIME =     0.05 SECS, INTEGRAL =      5.36 TIME LEFT: 172794.58
 STEP:  95 TIME =     0.05 SECS, INTEGRAL =      5.41 TIME LEFT: 172794.52
 STEP:  96 TIME =     0.05 SECS, INTEGRAL =      5.47 TIME LEFT: 172794.47
 STEP:  97 TIME =     0.05 SECS, INTEGRAL =      5.52 TIME LEFT: 172794.42
 STEP:  98 TIME =     0.05 SECS, INTEGRAL =      5.56 TIME LEFT: 172794.38
 STEP:  99 TIME =     0.05 SECS, INTEGRAL =      5.62 TIME LEFT: 172794.32
 STEP: 100 TIME =     0.05 SECS, INTEGRAL =      5.67 TIME LEFT: 172794.27
 STEP: 101 TIME =     0.05 SECS, INTEGRAL =      5.73 TIME LEFT: 172794.21
 STEP: 102 TIME =     0.05 SECS, INTEGRAL =      5.78 TIME LEFT: 172794.16
 STEP: 103 TIME =     0.06 SECS, INTEGRAL =      5.84 TIME LEFT: 172794.09
 STEP: 104 TIME =     0.05 SECS, INTEGRAL =      5.90 TIME LEFT: 172794.04
 STEP: 105 TIME =     0.06 SECS, INTEGRAL =      5.96 TIME LEFT: 172793.98

(To convert to Hartree/Bohr^2, multiply by (10^(-21) x N x a0^2)/(4.184 x 627.51) =  0.0642)


           FORCE MATRIX IN MILLIDYNES/ANGSTROM


                  C  1       C  2       C  3       C  4       H  5       H  6
 ------------------------------------------------------------------------------
     C    1  17.208964
     C    2   2.791088  12.021314
     C    3   0.707547   2.838547  12.155174
     C    4   1.959694   0.694390   2.776920  17.277606
     H    5   0.670021   3.226593   0.584291   0.055608   4.164935
     H    6   0.055011   0.591127   3.198737   0.681254   0.055717   4.134885
     C    7   0.531850   0.098221   0.096436   0.526263   0.014176   0.012351
     H    8   0.068600   0.015134   0.014147   0.066463   0.002341   0.002291
     H    9   0.110295   0.011815   0.016112   0.066705   0.001967   0.002519
     H   10   0.068948   0.016804   0.011769   0.096757   0.003176   0.002448
     N   11   4.161899   0.917181   0.921904   4.109507   0.047993   0.050555
     O   12   0.424108   0.087080   0.959320  11.265695   0.016958   0.054072
     O   13  11.149211   0.955142   0.083367   0.432173   0.056637   0.022504
     C   14   0.074311   0.538958   3.019435   0.720536   0.020795   0.598850
     H   15   0.047817   0.048044   0.609512   0.215304   0.004088   0.023031
     C   16   0.737606   2.824535   0.533110   0.064609   0.597359   0.027535
     H   17   0.147488   0.609890   0.036319   0.019030   0.023074   0.004053
     C   18   0.042945   0.661487   0.059653   0.024742   0.039639   0.007040
     H   19   0.013269   0.044684   0.013659   0.012997   0.006080   0.002111
     C   20   0.022800   0.052451   0.683348   0.040661   0.005220   0.041761
     H   21   0.011002   0.011805   0.043737   0.015245   0.001882   0.006253
     C   22   0.062559   0.658661   0.017310   0.032939   0.049441   0.006655
     H   23   0.015462   0.013122   0.002897   0.006857   0.028109   0.001922
     H   24   0.012664   0.046729   0.001901   0.006774   0.003270   0.000931
     H   25   0.011571   0.014726   0.003895   0.007803   0.022315   0.002260
     C   26   0.026644   0.009646   0.574398   0.068205   0.004757   0.072013
     H   27   0.005189   0.003624   0.024543   0.010372   0.001491   0.035244
     H   28   0.008139   0.003956   0.007052   0.012273   0.002181   0.007313
     C   29   0.040492   0.018958   0.047869   0.092874   0.005935   0.016644
     C   30   0.012775   0.004523   0.011056   0.022322   0.001745   0.003960
     H   31   0.002391   0.000920   0.002134   0.004407   0.000294   0.000695
     H   32   0.002964   0.001017   0.001825   0.004335   0.000449   0.000847
     H   33   0.003390   0.000980   0.002402   0.004834   0.000442   0.000870
     O   34   0.022084   0.008379   0.014023   0.053385   0.002464   0.008692
     O   35   0.034870   0.015460   0.098438   0.074141   0.006168   0.020485


                  C  7       H  8       H  9       H 10       N 11       O 12
 ------------------------------------------------------------------------------
     C    7  11.108706
     H    8   3.254989   4.188520
     H    9   3.268513   0.549823   4.193289
     H   10   3.261318   0.551583   0.540350   4.190696
     N   11   4.138763   0.722706   0.741922   0.735805  15.118013
     O   12   0.055549   0.020647   0.012432   0.037118   1.918643  13.354822
     O   13   0.056729   0.020097   0.045196   0.014681   1.929374   0.191032
     C   14   0.015581   0.002068   0.001950   0.002956   0.069769   0.096365
     H   15   0.003163   0.000732   0.000588   0.001444   0.064255   0.099605
     C   16   0.015180   0.002837   0.002505   0.002047   0.056923   0.027593
     H   17   0.002804   0.000906   0.001104   0.000507   0.022211   0.005538
     C   18   0.002486   0.001213   0.001073   0.000939   0.018130   0.012214
     H   19   0.001020   0.000717   0.000555   0.000478   0.007705   0.005284
     C   20   0.002690   0.000940   0.000712   0.000943   0.018672   0.018590
     H   21   0.001025   0.000533   0.000382   0.000544   0.007770   0.009635
     C   22   0.007058   0.001896   0.002096   0.001754   0.037125   0.019841
     H   23   0.001114   0.000376   0.000495   0.000378   0.008064   0.004180
     H   24   0.001077   0.000381   0.000360   0.000320   0.006092   0.003806
     H   25   0.001345   0.000390   0.000411   0.000412   0.007820   0.004997
     C   26   0.002494   0.001455   0.001201   0.001696   0.020723   0.027573
     H   27   0.000695   0.000208   0.000297   0.000509   0.005987   0.006927
     H   28   0.001433   0.000236   0.000338   0.000323   0.007829   0.004223
     C   29   0.003166   0.002077   0.001777   0.003855   0.041083   0.060668
     C   30   0.001379   0.000840   0.000736   0.001039   0.012548   0.012169
     H   31   0.000281   0.000254   0.000141   0.000237   0.002431   0.002437
     H   32   0.000351   0.000125   0.000200   0.000235   0.002843   0.002037
     H   33   0.000455   0.000206   0.000192   0.000201   0.003235   0.002196
     O   34   0.002822   0.000928   0.000933   0.001763   0.025140   0.034311
     O   35   0.003212   0.002199   0.001730   0.003274   0.035078   0.044990


                  O 13       C 14       H 15       C 16       H 17       C 18
 ------------------------------------------------------------------------------
     O   13  13.245008
     C   14   0.020962  12.715437
     H   15   0.011772   3.127013   4.090715
     C   16   0.055954   0.064424   0.012903  12.598700
     H   17   0.036087   0.008575   0.004247   3.164640   4.132443
     C   18   0.019850   0.855876   0.047554   3.772996   0.655711  16.078577
     H   19   0.008370   0.138095   0.016341   0.609951   0.036537   3.479273
     C   20   0.009393   3.816401   0.642004   0.836136   0.044801   9.568306
     H   21   0.004640   0.614631   0.041592   0.137295   0.014519   0.723198
     C   22   0.031150   0.023874   0.010274   3.211537   0.622679   0.706559
     H   23   0.009388   0.003225   0.001614   0.607916   0.031774   0.047217
     H   24   0.005680   0.004444   0.002976   0.598922   0.024424   0.038881
     H   25   0.006362   0.003401   0.002420   0.600676   0.049584   0.012271
     C   26   0.019114   3.075066   0.644224   0.014183   0.004524   0.038526
     H   27   0.003458   0.575395   0.028187   0.004041   0.000957   0.005709
     H   28   0.004235   0.570975   0.047660   0.006168   0.000921   0.008116
     C   29   0.024171   0.064110   0.105668   0.020238   0.007804   0.023417
     C   30   0.008926   0.032037   0.037205   0.004280   0.002102   0.006503
     H   31   0.001623   0.021447   0.020958   0.000860   0.000407   0.001512
     H   32   0.002146   0.007856   0.008283   0.000860   0.000440   0.001020
     H   33   0.002315   0.007419   0.008646   0.000997   0.000478   0.002146
     O   34   0.010851   0.053304   0.053468   0.009055   0.002814   0.007842
     O   35   0.025819   0.778856   0.061526   0.013005   0.006448   0.020351


                  H 19       C 20       H 21       C 22       H 23       H 24
 ------------------------------------------------------------------------------
     H   19   4.299961
     C   20   0.733468  16.078074
     H   21   0.053443   3.488807   4.305259
     C   22   0.011250   0.035293   0.026729  11.200912
     H   23   0.002322   0.004463   0.003924   3.360231   4.276818
     H   24   0.017106   0.009104   0.005659   3.346094   0.573272   4.268376
     H   25   0.002714   0.004393   0.002295   3.366803   0.574458   0.578746
     C   26   0.026020   0.708286   0.017493   0.013886   0.002759   0.004216
     H   27   0.004396   0.045871   0.002387   0.004269   0.000683   0.000954
     H   28   0.003552   0.024931   0.003514   0.008793   0.001702   0.002558
     C   29   0.021001   0.033360   0.019695   0.025615   0.004760   0.007510
     C   30   0.005356   0.007775   0.007029   0.007156   0.001405   0.002229
     H   31   0.001072   0.002342   0.002501   0.001402   0.000273   0.000410
     H   32   0.000780   0.001295   0.000913   0.001521   0.000306   0.000461
     H   33   0.002247   0.002819   0.002187   0.001877   0.000327   0.000687
     O   34   0.007225   0.014554   0.009152   0.010463   0.001916   0.002843
     O   35   0.016232   0.040067   0.014685   0.020879   0.003939   0.006267


                  H 25       C 26       H 27       H 28       C 29       C 30
 ------------------------------------------------------------------------------
     H   25   4.298513
     C   26   0.017493  11.374042
     H   27   0.002066   3.266250   4.162220
     H   28   0.031760   3.288394   0.522501   4.226700
     C   29   0.010212   1.177820   0.120872   0.141020  17.167348
     C   30   0.002880   0.142766   0.017033   0.034624   3.735691  11.365953
     H   31   0.000562   0.020797   0.002586   0.003722   0.735728   3.274994
     H   32   0.000545   0.020061   0.002258   0.004486   0.727775   3.267185
     H   33   0.000763   0.020018   0.003188   0.005972   0.706479   3.312216
     O   34   0.004102   0.190740   0.045721   0.034126  11.132146   1.081938
     O   35   0.009581   3.294333   0.711150   0.756026   3.770074   1.046559


                  H 31       H 32       H 33       O 34       O 35
 ------------------------------------------------------------------
     H   31   4.192704
     H   32   0.549458   4.184614
     H   33   0.549243   0.548636   4.225626
     O   34   0.060966   0.059595   0.065339  13.333717
     O   35   0.050525   0.042638   0.033516   2.052473   9.194306


          HEAT OF FORMATION =    -173.368164 KCALS/MOLE


          TRIVIAL VIBRATIONS, SHOULD BE ZERO

  31.5293=TX   4.0343=TY -42.8246=TZ -22.6156=RX  30.2122=RY  -0.3358=RZ


      MOLECULAR POINT GROUP   :   C1  


           EIGENVECTORS  


   Root No.       1         2         3         4         5         6         7         8

                 1 A       2 A       3 A       4 A       5 A       6 A       7 A       8 A   

                  -0.0       0.0       0.0       0.0       0.0       0.0       0.0       0.0
  
           1    0.0454   -0.0433    0.0111    0.0005   -0.0248   -0.0117   -0.0377   -0.0088
           2    0.0045    0.0225    0.0284    0.0209   -0.0245   -0.0096   -0.0168    0.0106
           3    0.1801   -0.1003    0.0431    0.0113   -0.0317   -0.0345   -0.1049   -0.0254
           4    0.0459   -0.0435    0.0113    0.0007   -0.0255   -0.0113   -0.0382   -0.0097
           5    0.0595   -0.0386    0.0078   -0.0058    0.0056   -0.0179   -0.0153    0.0143
           6    0.0388   -0.0047    0.0116   -0.0003   -0.0010   -0.0388   -0.0833   -0.0571
           7   -0.0177    0.0255    0.0284    0.0284   -0.0502   -0.0042   -0.0348   -0.0145
           8    0.0763   -0.0569    0.0029   -0.0135    0.0132   -0.0205   -0.0161    0.0151
           9   -0.0816   -0.0109   -0.0245   -0.0242    0.0020   -0.0173   -0.0871   -0.0733
          10   -0.0476    0.0541    0.0382    0.0406   -0.0673   -0.0008   -0.0378   -0.0142
          11    0.0079    0.0042    0.0152    0.0088   -0.0084   -0.0122   -0.0095    0.0069
          12   -0.1799    0.0538   -0.0514   -0.0121    0.0419   -0.0019   -0.0013   -0.1165
          13    0.1612   -0.1301    0.0262    0.0005   -0.0384   -0.0148   -0.0693   -0.0036
          14    0.1230   -0.0317    0.0210    0.0006    0.0123   -0.0250    0.0037    0.0267
          15    0.0276    0.0297    0.0123    0.0026    0.0070   -0.0399   -0.0608   -0.0512
          16   -0.0565    0.0889    0.0256    0.0500   -0.0252   -0.0100    0.0011   -0.0553
          17    0.1840   -0.0863    0.0247   -0.0086    0.0112   -0.0431   -0.0344    0.0337
          18   -0.0924   -0.0309   -0.0289   -0.0344   -0.0086   -0.0078   -0.0953   -0.0594
          19   -0.0309    0.0341    0.0315    0.0295   -0.0578   -0.0046   -0.0483   -0.0234
          20   -0.0979    0.1148    0.0504    0.0477   -0.0563    0.0073    0.0100    0.0152
          21    0.0190   -0.0358    0.0103    0.0074    0.0174    0.0218    0.2022    0.1256
          22   -0.0389    0.0702    0.1172   -0.0735   -0.0527   -0.0249   -0.1825   -0.1451
          23   -0.0785    0.2341    0.4209   -0.3494   -0.0146    0.0165    0.0526    0.0271
          24    0.0230   -0.0338    0.0237   -0.0041    0.0201    0.0278    0.2409    0.1582
          25    0.0128   -0.0120    0.0053    0.0394   -0.0425   -0.0016    0.0021    0.0266
          26   -0.1471    0.0931   -0.1227    0.2569   -0.0932    0.0091    0.0002    0.0136
          27   -0.0027   -0.1336   -0.3098    0.3654   -0.0228    0.0287    0.2522    0.1896
          28   -0.0827    0.0583   -0.0254    0.1280   -0.0854    0.0132    0.0279    0.0392
          29   -0.1227    0.0688   -0.1324    0.2531   -0.0842    0.0050   -0.0078    0.0106
          30    0.0487    0.0578    0.3340   -0.3459    0.0609    0.0315    0.2593    0.1536
          31   -0.0103    0.0153    0.0273    0.0236   -0.0497   -0.0054   -0.0382   -0.0125
          32   -0.0262    0.0458    0.0296    0.0279   -0.0291   -0.0046   -0.0091    0.0086
          33    0.0009   -0.0319   -0.0101    0.0131    0.0108   -0.0080    0.0163   -0.0339
          34   -0.0925    0.1035    0.0535    0.0579   -0.0884    0.0083   -0.0443   -0.0160
          35   -0.0162    0.0198    0.0119    0.0099   -0.0059   -0.0086   -0.0047   -0.0015
          36   -0.3674    0.1461   -0.1005   -0.0212    0.0900    0.0139    0.0554   -0.1997
          37    0.0831   -0.0828   -0.0018   -0.0123   -0.0077   -0.0179   -0.0362   -0.0058
          38   -0.0085    0.0453    0.0426    0.0317   -0.0413   -0.0058   -0.0248    0.0109
          39    0.3982   -0.2063    0.1032    0.0170   -0.0793   -0.0513   -0.1931    0.0099
          40   -0.0030   -0.0151    0.0385    0.0181   -0.0867    0.0062   -0.0602    0.0337
          41    0.0160   -0.0839   -0.0364   -0.0449    0.0356    0.0020   -0.0067   -0.0008
          42   -0.0913   -0.0640   -0.0308   -0.0477   -0.0258    0.0029   -0.1081   -0.0328
          43    0.0238   -0.0382    0.0631    0.0356   -0.0999   -0.0563   -0.1112    0.0296
          44    0.0141   -0.0952   -0.0328   -0.0423    0.0327   -0.0195   -0.0281   -0.0090
          45   -0.1222   -0.0973   -0.0410   -0.0516   -0.0126   -0.0461   -0.1645   -0.0691
          46   -0.0423    0.0067   -0.0226   -0.0256    0.0188   -0.0187    0.0106    0.0014
          47    0.0232   -0.0888   -0.0170   -0.0295    0.0133   -0.0195   -0.0441    0.0018
          48    0.0255    0.0571    0.0153    0.0066    0.0129   -0.0401   -0.0377   -0.0425
          49   -0.0805    0.0402   -0.0415   -0.0359    0.0656   -0.0530    0.0281   -0.0167
          50    0.0521   -0.1446   -0.0002   -0.0273   -0.0562    0.0421   -0.0634    0.0458
          51    0.0706    0.0957    0.0315    0.0320    0.0461   -0.0930   -0.0422   -0.0956
          52   -0.0606   -0.0282   -0.0145   -0.0415   -0.0736    0.0992    0.0480    0.1087
          53   -0.0186   -0.1350   -0.0411   -0.0506    0.0223   -0.0267   -0.0802   -0.0229
          54   -0.0077    0.0170    0.0015   -0.0120   -0.0081   -0.0092   -0.0494   -0.0276
          55   -0.0937   -0.0453   -0.0340   -0.0724   -0.1036    0.1855    0.1119    0.1853
          56   -0.0492   -0.1698   -0.0524   -0.0611    0.0198   -0.0360   -0.1198   -0.0432
          57    0.0128    0.0393    0.0098   -0.0030   -0.0031   -0.0127   -0.0329   -0.0244
          58   -0.0385   -0.0434    0.0150   -0.0237   -0.1248    0.1116    0.0138    0.1208
          59   -0.0239   -0.1285   -0.0499   -0.0555    0.0398   -0.0322   -0.0684   -0.0278
          60   -0.0634   -0.0347   -0.0196   -0.0367   -0.0257    0.0125   -0.0778   -0.0252
          61   -0.0512   -0.0720    0.0207   -0.0386   -0.1978    0.2101    0.0448    0.2085
          62   -0.0593   -0.1544   -0.0686   -0.0691    0.0568   -0.0544   -0.1002   -0.0545
          63   -0.0886   -0.0595   -0.0292   -0.0494   -0.0368    0.0271   -0.0886   -0.0152
          64   -0.0592    0.0450   -0.0378   -0.0266    0.0903   -0.0917    0.0108   -0.0589
          65   -0.0200   -0.0041   -0.0397   -0.0320    0.1118   -0.1069   -0.0112   -0.0493
          66   -0.0147    0.1216    0.0124    0.0031    0.0125   -0.0131    0.0323    0.0322
          67   -0.0527    0.0583   -0.0475   -0.0268    0.1279   -0.1013    0.0273   -0.2351
          68    0.0171   -0.0201   -0.0261   -0.0296    0.0208    0.0824    0.0881   -0.2944
          69    0.0246    0.1115    0.0217    0.0056   -0.0606    0.1672    0.1356   -0.2796
          70   -0.1333    0.1265   -0.0573   -0.0314    0.2005   -0.2780   -0.0267    0.2342
          71   -0.0655    0.0167   -0.0564   -0.0350    0.2227   -0.3343   -0.1277    0.2382
          72   -0.0196    0.1453    0.0140    0.0030   -0.0063    0.0433    0.0874   -0.0134
          73   -0.0067   -0.0193   -0.0207   -0.0238    0.0001    0.0448    0.0330   -0.2193
          74   -0.0454    0.0537   -0.0534   -0.0340    0.1636   -0.1313    0.0330   -0.1224
          75   -0.0785    0.1608   -0.0001    0.0008    0.1098   -0.2403   -0.0754    0.4545
          76   -0.0052    0.0065    0.0385    0.0277   -0.0719   -0.0086   -0.0693    0.0116
          77   -0.0188   -0.0436   -0.0599   -0.0689    0.0289    0.1039    0.0911    0.0170
          78   -0.0932   -0.1201   -0.0351   -0.0794   -0.0694    0.0618   -0.0633    0.0368
          79    0.0007    0.0226    0.0378    0.0415   -0.0359   -0.0609   -0.1332   -0.0297
          80   -0.0740   -0.0924   -0.1112   -0.1453    0.0433    0.1929    0.1582    0.0386
          81   -0.0642   -0.0958   -0.0080   -0.0405   -0.0810    0.0226   -0.0895    0.0302
          82   -0.0127    0.0561    0.0429    0.0395   -0.0885    0.0306   -0.0310    0.0128
          83   -0.0223   -0.0253   -0.0590   -0.0655    0.0228    0.1207    0.1063    0.0168
          84   -0.1484   -0.1946   -0.0916   -0.1704   -0.0605    0.1680    0.0203    0.0729
          85    0.1054    0.0224   -0.0742   -0.0250    0.1949    0.1294   -0.0265    0.0228
          86    0.0135    0.0381    0.0080    0.0185   -0.0437    0.0493    0.0654    0.0073
          87    0.0942    0.0619   -0.0137    0.0453    0.0644    0.1032   -0.0672    0.0318
          88    0.0907   -0.0685   -0.0328   -0.0129    0.1326   -0.0575    0.1696   -0.0496
          89    0.0688    0.1405    0.0680    0.1113   -0.0842    0.0418    0.0154    0.0121
          90    0.1022    0.0229    0.0437    0.0899   -0.0031   -0.0561    0.0779   -0.0269
          91    0.1320   -0.0770   -0.1475   -0.1248   -0.0025   -0.2388    0.3315   -0.1069
          92    0.1953    0.2880   -0.1633   -0.0622   -0.2859   -0.0802    0.0613   -0.0052
          93    0.2227    0.2068   -0.1453   -0.0317   -0.1415   -0.0641    0.0085   -0.0039
          94    0.1522    0.0200   -0.2058   -0.1513    0.0541   -0.0491    0.1308   -0.0304
          95   -0.0735   -0.0110    0.3776    0.3582    0.1521    0.1921   -0.0575    0.0354
          96    0.1172   -0.0105    0.0938    0.1302   -0.0815   -0.2313    0.2376   -0.0928
          97   -0.0194   -0.2167    0.2746    0.2350    0.2748   -0.0524    0.2131   -0.0748
          98    0.1225    0.2199    0.0409    0.1121   -0.1478    0.0113    0.0037    0.0102
          99   -0.0209   -0.1526    0.2180    0.1991    0.1476   -0.0116    0.1142   -0.0356
         100    0.1947    0.1566   -0.1909   -0.0584    0.4480    0.3722   -0.1391    0.0589
         101   -0.0413   -0.0493   -0.0208   -0.0446   -0.0492    0.0410    0.0924    0.0087
         102    0.1978    0.2212   -0.0665    0.0753    0.2354    0.2707   -0.1656    0.0553
         103   -0.0118   -0.0751    0.0476    0.0079   -0.1067   -0.0378   -0.0400    0.0359
         104    0.0308    0.0542   -0.0064    0.0172   -0.0040    0.0708    0.0642    0.0057
         105   -0.0674   -0.1315    0.0064   -0.0429   -0.1196    0.0139   -0.0519    0.0505


   Root No.       9        10        11        12        13        14        15        16

                 9 A      10 A      11 A      12 A      13 A      14 A      15 A      16 A   

                   0.0       0.1       0.1       0.1       0.1       0.1       0.1       0.2
  
           1    0.0227    0.0429    0.0548    0.0147   -0.0992    0.0000   -0.0196   -0.0493
           2   -0.0221    0.0269    0.0690   -0.0935   -0.0380    0.0087   -0.0202    0.0238
           3    0.1164   -0.0836    0.0655    0.0819    0.1126    0.0353    0.0733   -0.0083
           4    0.0221    0.0389    0.0505    0.0310   -0.1052    0.0003   -0.0198   -0.0301
           5   -0.0300    0.0838    0.0850   -0.0640   -0.0664    0.0143   -0.0105    0.0375
           6    0.0598   -0.0175   -0.0485   -0.0169   -0.0528    0.0119   -0.0204    0.1097
           7    0.0348   -0.0063    0.0055   -0.0312   -0.0389    0.0023   -0.0147   -0.0724
           8   -0.0321    0.0949    0.0910   -0.0476   -0.0867    0.0128   -0.0152    0.0557
           9    0.0624    0.0102   -0.0992    0.0024    0.0074    0.0004    0.0009    0.0763
          10    0.0287   -0.0383   -0.0043   -0.0284   -0.0339    0.0004   -0.0165   -0.0918
          11   -0.0209    0.0608    0.0976   -0.0893   -0.0597    0.0126   -0.0184    0.0258
          12    0.1786    0.0786    0.1310   -0.0419    0.0431    0.0412    0.0412    0.0065
          13    0.0640    0.0197    0.1408    0.0786   -0.0850    0.0233    0.0171   -0.0786
          14   -0.0448    0.1029    0.1354   -0.0705   -0.1361    0.0169   -0.0328    0.0712
          15    0.0381   -0.0023   -0.0547   -0.0328   -0.0843    0.0051   -0.0404    0.1378
          16    0.1190    0.0153    0.1171   -0.0457   -0.0321    0.0240    0.0045   -0.1270
          17   -0.0678    0.0944    0.1006   -0.0496   -0.1685    0.0132   -0.0413    0.1326
          18    0.0364    0.0031   -0.1391    0.0075    0.0241   -0.0063    0.0013    0.0798
          19    0.0393   -0.0341    0.0148    0.0574   -0.0586    0.0053   -0.0021   -0.0817
          20   -0.0360   -0.0897    0.0078    0.1332   -0.0085    0.0027    0.0175    0.0404
          21   -0.0968    0.0065   -0.0088   -0.0122   -0.0109    0.0994    0.0764   -0.0145
          22    0.2107   -0.0494    0.0842    0.1099   -0.0407    0.3149    0.2681   -0.1313
          23   -0.0706   -0.1134   -0.0272    0.2345   -0.0145   -0.0795   -0.0355    0.0714
          24   -0.1446    0.0085   -0.0305   -0.0172   -0.0168    0.0141    0.0032    0.0001
          25   -0.0257    0.0343    0.0188   -0.1288   -0.0835   -0.1064   -0.1324   -0.0996
          26   -0.0316   -0.1505   -0.0110    0.2937    0.0038    0.0228    0.0647    0.0652
          27   -0.1755    0.0029   -0.0347   -0.0229   -0.0195   -0.0158   -0.0227   -0.0017
          28   -0.0548   -0.1172   -0.0631    0.2835   -0.0619   -0.1721   -0.1123   -0.0349
          29   -0.0233   -0.1109    0.0113    0.1851   -0.0037    0.0300    0.0504    0.0444
          30   -0.1504    0.0162   -0.0395   -0.0173   -0.0230   -0.0061   -0.0155   -0.0006
          31    0.0261   -0.0054    0.0229   -0.0075   -0.0635   -0.0141   -0.0298   -0.0798
          32   -0.0180    0.0128    0.0634   -0.0979   -0.0306    0.0429    0.0082    0.0085
          33    0.1291   -0.0002    0.0716    0.0003    0.0040    0.5124    0.4229   -0.0662
          34    0.0282   -0.0876   -0.0401   -0.0597   -0.0087    0.0021   -0.0199   -0.1243
          35   -0.0080    0.0652    0.1220   -0.1000   -0.0484   -0.0190   -0.0432    0.0230
          36    0.3006    0.2066    0.4338   -0.1482    0.1233   -0.2790   -0.2089    0.0144
          37    0.0182    0.0790    0.0721    0.0455   -0.1281    0.0108   -0.0089   -0.0320
          38   -0.0155   -0.0124    0.0658   -0.0988    0.0080   -0.0247   -0.0380    0.0039
          39    0.1476   -0.2086    0.1872    0.2721    0.4129   -0.3187   -0.0850   -0.0861
          40   -0.0539   -0.0224   -0.0496   -0.1016   -0.0049   -0.0116   -0.0245   -0.0547
          41    0.0106    0.1061    0.0280    0.0440   -0.0408    0.0012    0.0014    0.0254
          42   -0.0056    0.0046   -0.1678   -0.0096    0.0528   -0.0156   -0.0008    0.0828
          43   -0.1456    0.0500   -0.0346   -0.1367   -0.0306   -0.0261   -0.0264   -0.0513
          44   -0.0127    0.1280    0.0039    0.0504   -0.0378   -0.0086    0.0079    0.0199
          45   -0.0397    0.0841   -0.2644    0.0554    0.1013   -0.0478    0.0305    0.0687
          46   -0.0605    0.0773    0.0134    0.0986   -0.0923   -0.0221   -0.0112    0.0043
          47   -0.0299    0.0786    0.0389   -0.0236    0.0116    0.0068    0.0229    0.0079
          48    0.0245   -0.0010   -0.0326   -0.0266   -0.0989    0.0088   -0.0430    0.1463
          49   -0.1173    0.0366   -0.0018    0.1122   -0.0437   -0.0313   -0.0001   -0.0161
          50    0.0392    0.1526    0.0435   -0.0094    0.0016    0.0088    0.0291    0.0126
          51    0.0155   -0.0907    0.0158   -0.1000   -0.1798    0.0307   -0.0821    0.1956
          52   -0.0288    0.1589    0.0514    0.1338    0.0414   -0.0053    0.0369    0.0671
          53   -0.0338    0.0673   -0.0503   -0.0034    0.0251   -0.0151    0.0206   -0.0368
          54    0.0340    0.0156   -0.0781   -0.0074   -0.0562    0.0008   -0.0321    0.1350
          55   -0.0038    0.3219    0.1602    0.3534    0.1870    0.0232    0.1333    0.3018
          56   -0.0460    0.0208   -0.1420   -0.0561    0.0348   -0.0383    0.0070   -0.1487
          57    0.0374    0.0262   -0.0377    0.0008   -0.0757    0.0111   -0.0338    0.1809
          58   -0.0344   -0.0442    0.0453   -0.1112    0.1108    0.0300   -0.0007    0.0414
          59   -0.0326    0.1331   -0.0485    0.0757   -0.0011   -0.0269    0.0311   -0.0311
          60    0.0209   -0.0100   -0.1332   -0.0246    0.0167   -0.0054   -0.0178    0.1055
          61   -0.0153   -0.1473    0.1576   -0.3167    0.3829    0.1301    0.0221    0.2557
          62   -0.0547    0.1743   -0.1316    0.1586   -0.0213   -0.0687    0.0491   -0.1128
          63    0.0117   -0.0159   -0.1516   -0.0362    0.0858   -0.0010   -0.0008    0.1245
          64   -0.1210   -0.0717    0.0392    0.0714   -0.0390   -0.0039   -0.0079    0.0671
          65   -0.1331   -0.0577    0.0578   -0.0563    0.1352    0.0147    0.0529   -0.0355
          66   -0.0176    0.1241   -0.0528   -0.0011    0.0240   -0.0236    0.0150   -0.1063
          67   -0.2143   -0.2538    0.0778    0.0407   -0.0004    0.0290   -0.0174    0.2483
          68   -0.2482    0.0313    0.0409   -0.0475    0.2059   -0.0014    0.0856   -0.1811
          69   -0.1674    0.1425   -0.0585   -0.0039    0.1045   -0.0283    0.0418   -0.1873
          70   -0.0642   -0.0864    0.0453    0.0715    0.0762   -0.0171    0.0395   -0.1057
          71   -0.0059   -0.1739    0.0853   -0.0807    0.0871    0.0358    0.0280    0.1176
          72   -0.0707    0.1920   -0.0694    0.0117    0.1141   -0.0438    0.0551   -0.2967
          73   -0.1391   -0.0135    0.0342    0.0937   -0.1422   -0.0040   -0.0386    0.1617
          74   -0.2213   -0.1649    0.0742   -0.0907    0.2956    0.0257    0.0951   -0.1072
          75    0.1498    0.1680   -0.0657    0.0071   -0.0002   -0.0385    0.0165   -0.1930
          76   -0.0279    0.0119   -0.1067   -0.1023    0.0388   -0.0094   -0.0230   -0.0141
          77    0.1441   -0.0788   -0.0421    0.0242   -0.0387    0.0048   -0.0317   -0.0204
          78   -0.0608   -0.0997   -0.0035   -0.0306   -0.0560   -0.0208   -0.0081   -0.0317
          79   -0.0327    0.1474   -0.2113   -0.1001    0.1398   -0.0164    0.0122    0.1312
          80    0.2319   -0.2449   -0.0438   -0.0190   -0.1642   -0.1927    0.1866   -0.0611
          81   -0.1057   -0.0355    0.0146   -0.0089   -0.0130    0.0776   -0.1222   -0.0374
          82    0.0236   -0.0902   -0.1878   -0.1263    0.0815    0.0367   -0.1076   -0.0601
          83    0.1639   -0.1242   -0.0717    0.0145   -0.0300    0.0130   -0.0540   -0.0416
          84    0.0091   -0.3013    0.0692   -0.0807   -0.2461   -0.2426    0.2348   -0.1221
          85    0.0153    0.0045   -0.0457   -0.0585   -0.0046   -0.0462    0.0370   -0.0070
          86    0.1160   -0.0383   -0.0853    0.0399    0.0470    0.1708   -0.2476   -0.0526
          87   -0.0874   -0.0376    0.1004    0.0371   -0.0457    0.0865   -0.1100   -0.0771
          88    0.1127    0.0065   -0.0862   -0.0322    0.0301   -0.0253    0.0134    0.0194
          89    0.0746   -0.0017   -0.0834   -0.0371    0.0156   -0.0273    0.0152    0.0128
          90   -0.0232   -0.0233    0.0755    0.0305   -0.0349    0.0226   -0.0205   -0.0317
          91    0.1932    0.0003   -0.1289    0.0094    0.0737    0.0505   -0.0823    0.0301
          92    0.0849    0.0057   -0.1004   -0.0565    0.0152   -0.0824    0.0888    0.0421
          93   -0.0739   -0.0095    0.0912   -0.0206   -0.0682   -0.0932    0.1311   -0.0079
          94    0.0877   -0.0028   -0.0696   -0.0162    0.0282    0.0420   -0.0762   -0.0194
          95    0.0548    0.0023   -0.0849   -0.0663    0.0019   -0.0890    0.0890    0.0266
          96    0.0530   -0.0077    0.0340    0.0203   -0.0158   -0.0702    0.1098    0.0441
          97    0.1431    0.0238   -0.1191   -0.0739    0.0314   -0.1559    0.1834    0.0879
          98    0.0612    0.0183   -0.1004   -0.0964   -0.0014   -0.1799    0.2142    0.0736
          99    0.0109   -0.0432    0.0796    0.0882   -0.0119    0.1609   -0.2022   -0.0788
         100    0.0387   -0.0027   -0.0935   -0.0133    0.0373   -0.0124    0.0058    0.0373
         101    0.1323   -0.0630   -0.1043    0.0512    0.0511    0.2225   -0.3311   -0.0737
         102   -0.0879   -0.0222    0.0851    0.0544   -0.0252    0.0552   -0.0479   -0.0279
         103   -0.0887    0.0043    0.0362   -0.1150   -0.0621   -0.0452    0.0188   -0.0923
         104    0.1256   -0.0356   -0.0945    0.0490    0.0569    0.1724   -0.2459   -0.0395
         105   -0.1287   -0.0796    0.1160   -0.0100   -0.0919    0.0827   -0.1397   -0.1328


   Root No.      17        18        19        20        21        22        23        24

                17 A      18 A      19 A      20 A      21 A      22 A      23 A      24 A   

                   0.2       0.3       0.4       0.4       0.5       0.6       0.6       0.6
  
           1   -0.0500   -0.0812    0.0347   -0.0356    0.0766   -0.0372    0.0095   -0.0574
           2    0.1685   -0.0098   -0.0781    0.0078    0.0591   -0.0400    0.0004   -0.0562
           3    0.0110    0.0225    0.0082    0.0011   -0.0001   -0.0017    0.0136   -0.0502
           4   -0.0610   -0.0677    0.0222   -0.0237    0.0578   -0.0305    0.0071   -0.0859
           5   -0.0219   -0.0130    0.0053    0.0358    0.0038    0.0086   -0.0022   -0.0162
           6   -0.0216   -0.0609    0.0999   -0.0766   -0.0625    0.0507    0.0551   -0.0539
           7    0.0383   -0.0501    0.0454   -0.0380   -0.0601    0.0293   -0.0314   -0.0539
           8   -0.0475   -0.0051   -0.0083    0.0422    0.0410   -0.0256   -0.0151    0.0420
           9    0.0333   -0.0835    0.0503   -0.0914    0.0307   -0.0219    0.0716   -0.0811
          10    0.1222   -0.0778    0.0286   -0.0851   -0.0139    0.0203   -0.0017   -0.0135
          11    0.1138   -0.0150   -0.0667    0.0141    0.1032   -0.0543    0.0200    0.0559
          12   -0.0201    0.0188   -0.0018   -0.0095   -0.0201    0.0110   -0.0049   -0.0633
          13   -0.1698   -0.0893    0.0916    0.0240    0.3734   -0.2861   -0.0669   -0.3881
          14   -0.1054    0.0130    0.0158    0.0996    0.0052    0.0108   -0.1157    0.0554
          15   -0.0198   -0.0396    0.0794   -0.0676   -0.1797    0.1485    0.0336    0.0798
          16    0.0773   -0.0847    0.0636   -0.1201   -0.3622    0.2139   -0.2890   -0.2788
          17   -0.1606   -0.0271    0.0608    0.1255    0.1229   -0.0419    0.1929    0.1175
          18    0.0410   -0.0642    0.0275   -0.0769    0.1447   -0.0965    0.1353   -0.0140
          19   -0.0087   -0.0970    0.0703   -0.0977    0.0459    0.0041    0.0484    0.1737
          20   -0.0085    0.0188   -0.0492    0.0207    0.0287   -0.0258   -0.0020   -0.0520
          21    0.0068    0.0282   -0.0261    0.0258    0.0016    0.0029    0.0088    0.0364
          22   -0.0565   -0.0092    0.0147   -0.0263    0.0627    0.0207    0.1043    0.4200
          23   -0.1343    0.0073   -0.0059    0.0194    0.0195   -0.0307   -0.0162   -0.1173
          24    0.0085    0.0038   -0.0075    0.0063   -0.0023   -0.0011   -0.0038   -0.0203
          25    0.2128   -0.1860    0.0605   -0.1993    0.1314   -0.0351    0.1011    0.2877
          26   -0.1941    0.0644   -0.0248    0.0792   -0.0216   -0.0036   -0.0319   -0.1185
          27    0.0278   -0.0121   -0.0073   -0.0114    0.0213   -0.0072    0.0232    0.0639
          28   -0.2867   -0.1459    0.2265   -0.1450   -0.0068    0.0534    0.0604    0.3165
          29   -0.0609    0.0338   -0.0475    0.0358    0.0283   -0.0274   -0.0024   -0.0544
          30   -0.0071   -0.0086    0.0161   -0.0066   -0.0095    0.0156    0.0116    0.0680
          31    0.0522   -0.0978    0.0478   -0.0915    0.0487   -0.0056    0.0333    0.1083
          32    0.2148   -0.0034   -0.1051    0.0010    0.0755   -0.0477    0.0103   -0.0354
          33    0.0073    0.1326   -0.1053    0.1089    0.0001    0.0054    0.0102    0.0436
          34    0.3412   -0.1155   -0.0390   -0.1700    0.0243    0.0075    0.0230   -0.2548
          35    0.1265   -0.0095   -0.0773    0.0189    0.1187   -0.0617    0.0294    0.0407
          36   -0.1698    0.1372   -0.0016    0.1743    0.0566   -0.0179    0.0466    0.0798
          37   -0.2152   -0.0753    0.0971    0.0122    0.0233    0.0002   -0.0348   -0.2251
          38    0.3062   -0.0073   -0.1452   -0.0255    0.1001   -0.0674    0.0355    0.0805
          39    0.1371    0.1133   -0.1952    0.0543   -0.0641    0.0444   -0.0002    0.0812
          40   -0.0049    0.0579    0.0294    0.1383   -0.0353    0.0281   -0.0404    0.0119
          41   -0.0299   -0.0125   -0.0554   -0.1027   -0.0523   -0.0384   -0.1505    0.0554
          42    0.0095   -0.0256    0.0053    0.0181    0.0773   -0.0527    0.0141   -0.0090
          43   -0.0003    0.1287    0.0727    0.3580   -0.0170    0.0815   -0.0891    0.1144
          44   -0.0179   -0.0080   -0.0487   -0.0639   -0.0667   -0.0342   -0.1595    0.0680
          45    0.0449   -0.0320    0.0142    0.0264   -0.0122   -0.0564    0.0363   -0.0630
          46   -0.0101    0.0030   -0.1878    0.0198   -0.0369    0.0535    0.0615   -0.0243
          47   -0.0308   -0.0532    0.0251   -0.0231   -0.1003    0.1158    0.1049   -0.0384
          48    0.0027    0.0012    0.0107   -0.0290   -0.0766    0.0461   -0.0039    0.0052
          49   -0.0074    0.0340   -0.3206    0.0304   -0.0484    0.0501    0.0805    0.0417
          50   -0.0179   -0.0878    0.1700   -0.0309   -0.1166    0.1527    0.0792   -0.0800
          51   -0.0260   -0.0087    0.0305   -0.0374   -0.0048   -0.0236    0.0277   -0.1175
          52    0.0734    0.0252   -0.0347    0.0472   -0.0254    0.0369   -0.0094    0.0065
          53   -0.0496   -0.0500   -0.0541   -0.0498   -0.0835    0.0457   -0.0078    0.0097
          54    0.0117    0.0083    0.0141   -0.0375   -0.0473   -0.0128   -0.0950    0.0380
          55    0.3309    0.0571    0.3132    0.0347    0.0181   -0.0270   -0.0072   -0.0015
          56   -0.1344   -0.0722   -0.2275   -0.0433   -0.0063   -0.0468   -0.1074    0.0555
          57    0.0352    0.0150    0.0789   -0.0434   -0.1041    0.0489   -0.0439    0.0143
          58   -0.0774   -0.0171   -0.0755    0.0344   -0.0363    0.0488   -0.0207    0.0075
          59   -0.0014   -0.0319   -0.0432   -0.0465   -0.0819    0.0380   -0.0146    0.0107
          60    0.0028   -0.0102    0.0067   -0.0114    0.0796   -0.0956   -0.0659    0.0154
          61   -0.2991   -0.2473   -0.2255   -0.2008   -0.0469   -0.0087    0.0671   -0.0230
          62    0.0683   -0.0117   -0.0368    0.0291   -0.0179    0.0409    0.1160   -0.0525
          63   -0.0207   -0.0672   -0.0309   -0.0362    0.1255   -0.1216    0.0384   -0.0334
          64    0.0198    0.0241   -0.1587    0.0165   -0.0109    0.0205    0.0475   -0.0234
          65   -0.0127   -0.0392    0.1000   -0.0249   -0.0614    0.0842    0.0942   -0.0263
          66   -0.0344   -0.0098   -0.0356   -0.0119   -0.0299    0.0191   -0.0099    0.0095
          67    0.1074    0.0778   -0.0241    0.0222    0.0392   -0.0980   -0.2173    0.0844
          68   -0.0544   -0.0716    0.0962   -0.0378   -0.0584    0.1184    0.1931   -0.0742
          69   -0.0470   -0.0209   -0.0020   -0.0238   -0.0032   -0.0033   -0.0309    0.0088
          70    0.0045    0.0117   -0.1163    0.0280    0.1372   -0.1116   -0.0171   -0.0622
          71    0.0316   -0.0217    0.1873   -0.0273   -0.1239    0.1448    0.1098   -0.0045
          72   -0.0756   -0.0332   -0.0580   -0.0106    0.0736   -0.0746   -0.0452   -0.0252
          73    0.0177    0.0327   -0.3167    0.0168   -0.1231    0.1514    0.2083   -0.0628
          74    0.0180   -0.0392    0.3589   -0.0220    0.0952   -0.1011   -0.1404    0.0295
          75   -0.0745   -0.0305   -0.1018   -0.0189   -0.0462    0.0479    0.0390   -0.0088
          76   -0.0035    0.0480    0.0415    0.1684   -0.0631   -0.0164   -0.0302    0.0038
          77    0.0053   -0.0210   -0.0223   -0.0501   -0.0318   -0.0525   -0.0798    0.0238
          78   -0.0026    0.0902    0.0131    0.0009    0.1069    0.0709   -0.0577    0.0061
          79   -0.0353   -0.1089   -0.0310    0.2213   -0.0990   -0.1942   -0.3733    0.1149
          80    0.0622   -0.1860    0.0015    0.1494   -0.1744   -0.1700   -0.0380    0.0368
          81   -0.0238    0.1977    0.0158   -0.1015    0.1865    0.1606   -0.0455   -0.0153
          82    0.0402    0.0406    0.1391    0.4752   -0.0069    0.1010    0.3916   -0.1284
          83    0.0265   -0.0343    0.0160    0.0751   -0.0176   -0.0157    0.0736   -0.0216
          84    0.0543    0.0184    0.0656    0.1608    0.0446    0.0978   -0.0855    0.0100
          85   -0.0296    0.2025    0.0314   -0.0871   -0.0675   -0.0842    0.0247   -0.0012
          86    0.0138    0.0276    0.0097    0.0349   -0.0105   -0.0051   -0.0389    0.0150
          87    0.0152    0.0113    0.0202    0.0060   -0.0889   -0.0828    0.0056    0.0026
          88   -0.0196    0.1293    0.0177   -0.0675   -0.0516   -0.1069    0.0700   -0.0067
          89   -0.0092    0.0635    0.0061    0.0040   -0.0187   -0.0151   -0.0454    0.0226
          90    0.0175   -0.0633    0.0049    0.0255   -0.0943   -0.1154    0.0364    0.0021
          91    0.0023   -0.0263   -0.0118    0.0574    0.1076    0.1711   -0.1675    0.0455
          92   -0.0179    0.0822   -0.0007   -0.0221    0.0382    0.0328   -0.0647    0.0273
          93   -0.0063    0.0594    0.0184   -0.0863   -0.1545   -0.2734    0.1984   -0.0333
          94   -0.0155    0.1655    0.0361   -0.0668   -0.1781   -0.2820    0.1346    0.0014
          95   -0.0256    0.1636    0.0172   -0.0664   -0.0382   -0.0767   -0.0242    0.0294
          96    0.0224   -0.2297   -0.0461    0.0885    0.2137    0.3361   -0.1310   -0.0193
          97   -0.0380    0.1544    0.0019   -0.1280    0.0985    0.0311    0.1189   -0.0429
          98   -0.0383    0.1679    0.0018   -0.1062    0.1107    0.0963    0.0110   -0.0162
          99    0.0460   -0.1775    0.0033    0.1331   -0.1891   -0.1968   -0.0204    0.0380
         100   -0.0149    0.0562   -0.0133   -0.0342    0.2166    0.2602   -0.0855   -0.0085
         101    0.0028    0.1831    0.0214   -0.0854    0.1154    0.0855   -0.0163   -0.0150
         102    0.0326   -0.2097   -0.0189    0.1368   -0.0013    0.0741   -0.0840    0.0215
         103   -0.0367    0.3283    0.0690   -0.0882   -0.1719   -0.0601   -0.1105    0.0042
         104    0.0148    0.0052    0.0036    0.0356    0.0167    0.0071    0.0028    0.0029
         105   -0.0184    0.3293    0.0550   -0.1792    0.0279    0.0753   -0.0775   -0.0167


   Root No.      25        26        27        28        29        30        31        32

                25 A      26 A      27 A      28 A      29 A      30 A      31 A      32 A   

                   0.7       0.7       0.8       0.8       0.8       0.8       0.8       0.9
  
           1   -0.0286   -0.0051    0.0166   -0.0445   -0.0012   -0.0081    0.0909   -0.0290
           2   -0.0168   -0.0052   -0.0020   -0.0337    0.0125    0.0151    0.0635    0.0112
           3   -0.0040    0.0015    0.0249    0.0504   -0.0164   -0.0121   -0.0406    0.0210
           4   -0.0418    0.0045    0.0333   -0.0406   -0.0118   -0.0056    0.0515   -0.0179
           5    0.0007   -0.0141   -0.0379   -0.0311    0.0371    0.0279    0.0657   -0.0012
           6   -0.0593    0.0293    0.0678    0.0120   -0.0289   -0.0081   -0.0536    0.0045
           7   -0.0379    0.0027    0.0094   -0.0408    0.0048   -0.0279    0.0094   -0.0169
           8    0.0051   -0.0058   -0.0471   -0.0310    0.0385    0.0379    0.0646    0.0335
           9   -0.0847   -0.0407    0.0079   -0.0366    0.0298    0.0164    0.0467    0.0249
          10   -0.0133    0.0015    0.0159   -0.0144   -0.0116   -0.0295   -0.0061   -0.0401
          11    0.0254   -0.0120   -0.0421   -0.0051    0.0332    0.0589    0.0788    0.0346
          12   -0.0183   -0.0073   -0.0249   -0.0137    0.0334    0.0329    0.0202    0.0419
          13    0.2129   -0.0786   -0.0327    0.3968   -0.0399   -0.0332   -0.1774    0.0910
          14    0.2163    0.1463   -0.1583    0.1570    0.1479    0.2903   -0.3218   -0.3692
          15   -0.0529    0.1345    0.0422   -0.0494    0.0298    0.1258   -0.1492   -0.2235
          16    0.0731    0.1402   -0.1631   -0.1411    0.1201    0.0460   -0.1656    0.4008
          17   -0.3039    0.0919    0.2650   -0.2779   -0.1374   -0.3787   -0.3313    0.2476
          18   -0.0638   -0.1254    0.0049    0.0619    0.0283    0.0919    0.2230   -0.2081
          19    0.0258   -0.0048   -0.0181    0.0056    0.0078    0.0134    0.0057    0.0122
          20   -0.0094   -0.0001    0.0067   -0.0045    0.0020    0.0104    0.0405    0.0101
          21   -0.0045    0.0021    0.0049   -0.0067   -0.0054   -0.0051   -0.0041   -0.0091
          22    0.0356   -0.0021   -0.0202   -0.0194   -0.0023    0.0095    0.0011   -0.0147
          23   -0.0144   -0.0031    0.0022   -0.0104    0.0163    0.0413    0.1342    0.0530
          24   -0.0065    0.0011    0.0044   -0.0010   -0.0016   -0.0011    0.0043    0.0014
          25    0.0567   -0.0162   -0.0524    0.0152    0.0468    0.0942    0.1440    0.1181
          26   -0.0304    0.0064    0.0290   -0.0190   -0.0216   -0.0354   -0.0144   -0.0590
          27   -0.0015   -0.0006    0.0001   -0.0176    0.0029    0.0168    0.0665    0.0068
          28    0.0794   -0.0111   -0.0594    0.0524    0.0162    0.0033   -0.1594    0.0273
          29   -0.0083   -0.0013    0.0026   -0.0027    0.0088    0.0249    0.0660    0.0348
          30    0.0048    0.0025    0.0028   -0.0005   -0.0150   -0.0318   -0.0824   -0.0485
          31    0.0148   -0.0031   -0.0103    0.0030    0.0045    0.0080    0.0058    0.0038
          32   -0.0066   -0.0022    0.0039   -0.0059    0.0027    0.0102    0.0312    0.0024
          33   -0.0096    0.0033    0.0095   -0.0079   -0.0062   -0.0047   -0.0031    0.0009
          34   -0.0796    0.0289    0.1982   -0.0261   -0.1666   -0.2564   -0.1675   -0.3088
          35    0.0148   -0.0074   -0.0106   -0.0018    0.0064    0.0212    0.0498   -0.0069
          36   -0.0215    0.0002    0.0632    0.0161   -0.0533   -0.0634   -0.0354   -0.0604
          37   -0.0995   -0.0198    0.0263   -0.2278    0.0216   -0.0390    0.3913   -0.1548
          38    0.0357    0.0073   -0.0107    0.1009   -0.0040    0.0404   -0.1633    0.1011
          39   -0.0251    0.0024   -0.0198   -0.0795    0.0192    0.0144    0.0539   -0.0261
          40   -0.0357   -0.0159   -0.0126    0.0120    0.0004   -0.0154   -0.0045   -0.0342
          41    0.0690    0.0271   -0.0202   -0.0304   -0.0323   -0.0174    0.0438   -0.0463
          42   -0.0362   -0.0291   -0.0324    0.0040    0.0176    0.0239   -0.0005    0.0012
          43    0.3294    0.0193    0.0167   -0.1063   -0.1703    0.0060    0.3017    0.1533
          44    0.2396    0.0753    0.0419   -0.0735   -0.1255   -0.0293    0.0760   -0.0066
          45    0.4377    0.1236    0.2665   -0.0736   -0.3047   -0.0355   -0.1235    0.0512
          46   -0.0560    0.0155    0.0253    0.0185   -0.0226    0.0477    0.0304   -0.0027
          47   -0.0279   -0.0566    0.0049    0.0411   -0.0299    0.0210    0.0296    0.0089
          48   -0.0001    0.0329    0.0135    0.0484   -0.0045    0.0061    0.0046   -0.0112
          49    0.0952   -0.0922   -0.0625    0.0285    0.0014   -0.1267   -0.1317   -0.0097
          50   -0.3009    0.1895    0.1737    0.1998   -0.1482    0.2627    0.2069    0.0081
          51    0.1900   -0.2365   -0.1263   -0.3691    0.2281   -0.0488    0.0638    0.0129
          52   -0.1021    0.0705    0.0153    0.0884   -0.0086    0.0255    0.0282   -0.0045
          53    0.0450    0.0382    0.0219    0.0016   -0.0145   -0.0148   -0.0093   -0.0187
          54    0.0340    0.0688    0.0147    0.0338   -0.0380   -0.0084   -0.0039   -0.0399
          55    0.0993   -0.0841   -0.0776   -0.1543    0.1367   -0.1494   -0.0346   -0.0723
          56    0.0135    0.1567   -0.0539   -0.1187    0.2567   -0.2746    0.0335   -0.1882
          57    0.0371    0.0255    0.0695    0.1331   -0.2100    0.1605   -0.0245    0.0597
          58   -0.1108    0.0249   -0.0159    0.0749    0.0012    0.0079   -0.0130   -0.0215
          59    0.0679    0.0543    0.0353   -0.0041   -0.0225   -0.0135    0.0016   -0.0104
          60   -0.0159   -0.0112   -0.0555   -0.0301    0.0587   -0.0054    0.0048   -0.0180
          61    0.1279    0.0653    0.0754   -0.0390    0.0239    0.0287   -0.0026    0.0776
          62   -0.1391    0.0464   -0.0459    0.0255    0.3225    0.1206   -0.1435    0.2306
          63   -0.0719   -0.0113   -0.0838   -0.0498    0.2810    0.0884   -0.0823    0.1609
          64   -0.0155   -0.0245    0.0100   -0.0120   -0.0307    0.0544   -0.0044   -0.0030
          65    0.0268   -0.1369   -0.0401    0.0399   -0.0267   -0.0321   -0.0041   -0.0046
          66    0.0043    0.0358   -0.0044    0.1231    0.0373   -0.1022    0.0522    0.0288
          67   -0.0947    0.3923    0.1017    0.2445    0.1313   -0.1600    0.1868    0.1134
          68    0.0455   -0.3181   -0.0730   -0.0139   -0.1028    0.0153   -0.0481   -0.0457
          69   -0.0043    0.0480    0.0043    0.1813    0.0442   -0.1640    0.0960    0.0466
          70   -0.0933    0.0433    0.1001   -0.2946   -0.1469    0.4289   -0.1096   -0.0470
          71    0.0457   -0.1953   -0.0915    0.2480   -0.0106   -0.1991    0.0493   -0.0053
          72   -0.0378    0.0940    0.0648   -0.1142   -0.0212    0.1431   -0.0175    0.0141
          73    0.0029   -0.1923   -0.0278    0.0911   -0.0939    0.0727    0.0005    0.0030
          74   -0.0294    0.1115    0.0275   -0.1157    0.0198    0.0350   -0.0366   -0.0347
          75    0.0301   -0.0059   -0.0196    0.1918    0.0712   -0.2260    0.1126    0.0665
          76   -0.0390   -0.0302   -0.0072    0.0113    0.0195   -0.0137   -0.0229   -0.0468
          77   -0.0354   -0.0028   -0.0591   -0.0056   -0.0297   -0.0195   -0.0043   -0.0567
          78   -0.0500   -0.0339   -0.0681    0.0079   -0.0313    0.0165   -0.0091    0.0332
          79   -0.3474   -0.2841   -0.3131    0.0502   -0.2271   -0.0186   -0.1206   -0.0108
          80    0.0362   -0.0004    0.0031   -0.0205   -0.0525   -0.0549    0.0347   -0.1202
          81   -0.0500   -0.0061   -0.0703    0.0087    0.0074    0.0358   -0.0210    0.0630
          82    0.0556    0.2325   -0.0630    0.0252    0.2099    0.0218   -0.0539   -0.0712
          83    0.0125    0.0968   -0.0771   -0.0058    0.0307   -0.0083   -0.0091   -0.0669
          84   -0.0367   -0.1388    0.0114    0.0099   -0.0697    0.0420   -0.0467    0.1886
          85    0.0017   -0.0094    0.0238    0.0019    0.0228   -0.0043   -0.0069   -0.0325
          86    0.0004   -0.0294   -0.0109   -0.0082   -0.0525   -0.0110    0.0027    0.0144
          87   -0.0038   -0.0050   -0.0096   -0.0049   -0.0118   -0.0105   -0.0039   -0.0184
          88    0.0020    0.0136   -0.0203    0.0024   -0.0117    0.0093    0.0043    0.0210
          89    0.0071   -0.0823    0.1135    0.0165    0.0449    0.0171   -0.0021    0.0085
          90   -0.0040    0.0074   -0.0225    0.0006   -0.0145    0.0024    0.0043    0.0082
          91    0.0279   -0.2287    0.3730    0.0531    0.1917    0.0700   -0.0156    0.0502
          92    0.0094   -0.1330    0.1855    0.0321    0.0760    0.0499   -0.0027    0.0746
          93   -0.0212    0.1450   -0.2558   -0.0230   -0.1408   -0.0103    0.0215    0.0566
          94    0.0090   -0.0026    0.0024    0.0141   -0.0050    0.0326    0.0153    0.0600
          95    0.0166   -0.1520    0.2209    0.0391    0.0966    0.0639   -0.0013    0.0862
          96   -0.0249    0.0988   -0.1614   -0.0452   -0.0759   -0.0887   -0.0187   -0.1419
          97   -0.0006    0.1409   -0.1971   -0.0257   -0.0899   -0.0126    0.0140    0.0286
          98    0.0077    0.0411   -0.0508   -0.0143   -0.0236   -0.0114    0.0016   -0.0105
          99   -0.0088   -0.1085    0.1191    0.0298    0.0358    0.0324    0.0025    0.0468
         100   -0.0016    0.0066   -0.0450   -0.0218   -0.0616   -0.0261   -0.0073    0.0043
         101   -0.0237    0.0452   -0.2324   -0.0511   -0.2420   -0.0495    0.0052    0.0720
         102    0.0150   -0.0519    0.1272    0.0146    0.0923    0.0067   -0.0059   -0.0458
         103   -0.0521   -0.0976    0.1552    0.0190    0.1414   -0.0535   -0.0772   -0.2263
         104    0.0052    0.0238   -0.0737   -0.0167   -0.0763   -0.0145    0.0126    0.0193
         105   -0.0358   -0.0445    0.0305   -0.0047    0.0323   -0.0298   -0.0512   -0.0887


   Root No.      33        34        35        36        37        38        39        40

                33 A      34 A      35 A      36 A      37 A      38 A      39 A      40 A   

                   0.9       0.9       0.9       1.0       1.0       1.1       1.1       1.2
  
           1   -0.0226   -0.0326    0.0194   -0.0691   -0.0725   -0.0438    0.0141    0.0257
           2    0.0029    0.0381    0.0120   -0.0950   -0.1159   -0.0798    0.0141    0.0233
           3    0.0236    0.0406   -0.0403   -0.0052    0.1273    0.0077   -0.0858    0.0315
           4   -0.0113   -0.0025    0.0031   -0.0279   -0.0218   -0.0122    0.0077    0.0384
           5   -0.0048    0.0031    0.0108   -0.0448   -0.1106   -0.0574    0.0032   -0.0013
           6    0.0133    0.0359   -0.0653   -0.0171    0.1649    0.0570    0.0046    0.1112
           7    0.0042   -0.0016    0.0113   -0.0313    0.0175   -0.0167    0.0162    0.0304
           8    0.0254    0.0251    0.0021   -0.1090   -0.0530   -0.0557    0.0317    0.0130
           9    0.0207    0.0223   -0.0672   -0.1430    0.0506   -0.1271    0.0944    0.0896
          10   -0.0443   -0.0010    0.0211   -0.0076    0.0131    0.0046    0.0032    0.0037
          11    0.0181    0.0400    0.0054   -0.1189   -0.1366   -0.1002    0.0236    0.0213
          12    0.0173    0.0124   -0.0546   -0.1046    0.0375   -0.1112   -0.0249    0.0243
          13    0.0927    0.0962   -0.0372    0.0473    0.1371    0.1235    0.0472    0.0626
          14   -0.2765   -0.2356   -0.0685    0.1284   -0.0251   -0.1742    0.0311   -0.0739
          15   -0.1570   -0.1157   -0.0932    0.0354    0.1803   -0.0317   -0.0043    0.1004
          16    0.0632   -0.0327   -0.1372   -0.1237   -0.0188   -0.1159    0.1942   -0.0208
          17    0.0449   -0.0822   -0.0403   -0.0262    0.1075   -0.0881    0.0585   -0.0704
          18   -0.0154    0.0624   -0.0035   -0.1537    0.0371   -0.1118    0.0305    0.1534
          19    0.0147   -0.0193   -0.0069    0.0104   -0.0053    0.0006    0.0001   -0.0017
          20    0.0333   -0.0737   -0.0203    0.0158    0.0159   -0.0017   -0.0013    0.0028
          21   -0.0065    0.0003    0.0101    0.0068   -0.0043   -0.0108   -0.0427   -0.0191
          22    0.0061   -0.0611    0.0446    0.1503   -0.1369    0.2167    0.3706    0.0398
          23    0.1291   -0.2837   -0.0993    0.1342    0.2155    0.0566   -0.0780   -0.0209
          24    0.0044   -0.0075   -0.0089   -0.0161    0.0456   -0.0603   -0.1469   -0.0343
          25    0.2036   -0.3344   -0.1384    0.1627    0.1738    0.0184   -0.1312   -0.0605
          26   -0.0688    0.0512    0.0593   -0.0111   -0.1026    0.1136    0.3063    0.0963
          27    0.0556   -0.1752   -0.0206    0.1520    0.0275    0.1968    0.2826    0.0524
          28   -0.0797    0.3400    0.0372   -0.1772   -0.1174   -0.2178   -0.2972   -0.0879
          29    0.0727   -0.1280   -0.0548    0.0299    0.1038   -0.0663   -0.2052   -0.0561
          30   -0.0962    0.1785    0.0812   -0.0657   -0.1929    0.0446    0.2404    0.0626
          31    0.0028    0.0038    0.0020   -0.0166   -0.0219   -0.0058    0.0243    0.0176
          32    0.0023    0.0124    0.0061   -0.0657   -0.0765   -0.0646   -0.0179    0.0057
          33    0.0021    0.0039   -0.0086   -0.0395    0.0706   -0.1562   -0.3567   -0.0964
          34   -0.3599   -0.0104    0.1558    0.0712    0.0513    0.1379   -0.0969   -0.1513
          35   -0.0191    0.0340    0.0292   -0.0911   -0.1370   -0.0660    0.0099   -0.0017
          36   -0.0254   -0.0107    0.0478    0.0945    0.0286    0.0784   -0.0363   -0.0243
          37   -0.1264   -0.2764    0.0948   -0.1267   -0.2210   -0.1204    0.0007   -0.0668
          38    0.0779    0.2143   -0.0412   -0.0512   -0.0194   -0.0258    0.0297    0.0916
          39   -0.0281   -0.0518    0.0278   -0.0156   -0.0776   -0.0358    0.0116   -0.0298
          40    0.0248    0.0079    0.0280    0.0274    0.0131    0.0089   -0.0103    0.0110
          41    0.0671    0.0345    0.0350   -0.1043   -0.0049    0.1423   -0.0279   -0.0638
          42   -0.0066   -0.0087   -0.0241   -0.0578    0.0233   -0.0564    0.0681   -0.0167
          43   -0.2802    0.1789    0.1721   -0.0316    0.4216   -0.0319    0.0786   -0.0263
          44    0.0460    0.0362    0.0614   -0.0827   -0.0111    0.1364   -0.0334   -0.0967
          45    0.1382   -0.1754   -0.0757    0.2062   -0.3673   -0.2391    0.0009   -0.0406
          46   -0.0030    0.0180   -0.0074    0.0076   -0.0408    0.0232   -0.0431    0.0758
          47    0.0107    0.0275    0.0021    0.0043   -0.0260    0.0510   -0.0610    0.0975
          48    0.0105    0.0176   -0.0042   -0.0257    0.0559    0.0631   -0.0042    0.0410
          49   -0.0117   -0.2292    0.0733   -0.3081    0.0466    0.0348   -0.0642    0.2305
          50    0.0115    0.2474   -0.1239    0.2307   -0.0469   -0.0100    0.0146   -0.0260
          51    0.0339    0.2604    0.0395    0.3891   -0.1808    0.2377   -0.2096    0.0287
          52   -0.0015    0.0062    0.0008    0.0092   -0.0367    0.0390   -0.0351    0.0283
          53    0.0289    0.0194    0.0128   -0.0301    0.0274    0.1593   -0.0827    0.0653
          54    0.0570    0.0170   -0.0186   -0.1204    0.1011    0.1430    0.0173   -0.0028
          55   -0.0243    0.0602   -0.1497    0.0449    0.0828    0.0053    0.0145    0.0155
          56   -0.0508    0.1728   -0.4225    0.0480    0.1732    0.0636    0.0304    0.0531
          57    0.1161   -0.0726    0.2539   -0.1950    0.0260    0.2588   -0.0621    0.0150
          58    0.0104    0.0003    0.0090    0.0364   -0.0204    0.0745   -0.0530    0.0164
          59    0.0294    0.0193    0.0215   -0.0215    0.0034    0.1568   -0.0923    0.0646
          60    0.0135    0.0124   -0.0349   -0.1128    0.0763   -0.0661    0.1381   -0.0956
          61   -0.0293   -0.0098    0.1199    0.0456   -0.0061    0.0196   -0.0489    0.0400
          62   -0.1300   -0.0541    0.4621    0.2171    0.0241    0.0785   -0.1146    0.0059
          63   -0.0958   -0.0403    0.2648    0.0134    0.1067   -0.1734    0.1763   -0.1615
          64    0.0110    0.0329   -0.0244    0.0117    0.0044    0.0017   -0.0066    0.0227
          65    0.0036   -0.0079   -0.0037   -0.0037    0.0055    0.0052   -0.0072    0.0299
          66   -0.0094   -0.0023    0.0008    0.0078   -0.0115    0.0020    0.0020    0.0046
          67   -0.0532    0.0512    0.0055    0.1378   -0.1170   -0.0749   -0.0317   -0.0260
          68    0.0138   -0.0019   -0.0389    0.0207    0.0532   -0.0570    0.0844   -0.1089
          69   -0.0279    0.0114   -0.0156    0.0888   -0.0224   -0.0869    0.0744   -0.1484
          70    0.0655    0.1678   -0.1023    0.0567    0.1072   -0.0307    0.0822   -0.1368
          71   -0.0250   -0.0503   -0.0226    0.0204    0.0306   -0.0812    0.1186   -0.1550
          72    0.0312    0.0818   -0.0192    0.0173    0.0153    0.0439   -0.0366    0.0482
          73    0.0335    0.1094   -0.1050    0.0839    0.0610   -0.0740    0.0885   -0.1166
          74   -0.0058   -0.0850    0.0792   -0.1309   -0.0134    0.1261   -0.0986    0.1959
          75   -0.0322   -0.0032    0.0117    0.0890   -0.0884   -0.0444   -0.0284    0.0037
          76    0.0785    0.0062    0.0269    0.0270    0.0047   -0.0333    0.0012    0.0283
          77    0.0745    0.0120    0.0365   -0.0510   -0.0076    0.0761    0.0026   -0.1224
          78   -0.0448   -0.0144   -0.0471   -0.0481   -0.0131    0.0511    0.0145   -0.0819
          79    0.0344   -0.0569   -0.0558    0.0896   -0.1452    0.0557   -0.0924   -0.0366
          80    0.1480    0.0622    0.1938    0.0839    0.1550   -0.1927    0.0942    0.0320
          81   -0.0716   -0.0348   -0.1246   -0.1425   -0.0880    0.2009   -0.0197   -0.1923
          82    0.1975   -0.0082   -0.1090   -0.1373   -0.1427    0.1317   -0.0593    0.0452
          83    0.1184    0.0106   -0.0057   -0.1182   -0.0565    0.1485   -0.0183   -0.1457
          84   -0.2211   -0.0827   -0.1927    0.0506   -0.1617    0.0802   -0.1149    0.0578
          85    0.0611    0.0095    0.0325    0.0108    0.0147   -0.0413    0.0097    0.0482
          86   -0.0172    0.0017    0.0210    0.0450    0.0141   -0.0282   -0.0007   -0.0640
          87    0.0382    0.0076    0.0310    0.0196    0.0158   -0.0315    0.0106   -0.0601
          88   -0.0349   -0.0059   -0.0190   -0.0018   -0.0033   -0.0047    0.0010    0.0209
          89   -0.0110   -0.0031   -0.0080   -0.0008    0.0023    0.0035    0.0019   -0.0900
          90   -0.0169   -0.0012   -0.0051   -0.0006    0.0021    0.0004    0.0032   -0.0447
          91   -0.0563   -0.0239   -0.0777   -0.0468   -0.0186    0.0130    0.0099    0.0186
          92   -0.1167   -0.0282   -0.0820   -0.0098   -0.0245    0.0116   -0.0134    0.1430
          93   -0.1170   -0.0133   -0.0400    0.0227   -0.0138   -0.0036   -0.0213    0.2404
          94   -0.1024   -0.0152   -0.0593   -0.0348   -0.0125    0.0543    0.0020   -0.2009
          95   -0.1278   -0.0298   -0.0897   -0.0091   -0.0146   -0.0286   -0.0000    0.2122
          96    0.2302    0.0437    0.1565    0.0779    0.0409   -0.0963    0.0053    0.1125
          97   -0.0493   -0.0038   -0.0238   -0.0328   -0.0157    0.0774   -0.0047   -0.1695
          98    0.0301    0.0085    0.0223   -0.0123    0.0116    0.0203    0.0153   -0.2576
          99   -0.0943   -0.0196   -0.0542    0.0108   -0.0176    0.0056   -0.0190    0.1051
         100    0.0048   -0.0008    0.0274    0.0776    0.0084   -0.0849   -0.0094    0.2234
         101   -0.1034   -0.0100    0.0362    0.1826    0.0283   -0.1688   -0.0155    0.2653
         102    0.0792    0.0113    0.0157   -0.0568   -0.0011    0.0617    0.0122   -0.2332
         103    0.3816    0.0374    0.1684    0.0648    0.0172   -0.1326    0.0180    0.0589
         104   -0.0318    0.0030    0.0127    0.0262    0.0110   -0.0030   -0.0020   -0.0643
         105    0.1810    0.0098    0.0771    0.0381    0.0072   -0.0903    0.0265   -0.0006


   Root No.      41        42        43        44        45        46        47        48

                41 A      42 A      43 A      44 A      45 A      46 A      47 A      48 A   

[...]
 REDUCED MASS        0.3280         C 14 -- C 26          +1.0% ( 10.2%)      0.3%
 EFFECTIVE MASS      1.4281
 FORCE CONSTANT      1.3381

 VIBRATION         84   84A           ATOM PAIR      ENERGY CONTRIBUTION    RADIAL
 FREQUENCY          2634.90         C  7 -- H  8         +64.1% ( 83.1%)     99.5%
 TRANSITION DIPOLE   0.7331         C  7 -- H 10         +24.4% ( 51.3%)     92.9%
 TRAVEL (Ang.)       0.2277         C  7 -- H  9         +10.6% ( 33.7%)     80.8%
 REDUCED MASS        0.4934         C  7 -- N 11          +0.8% (  9.4%)      0.0%
 EFFECTIVE MASS      1.4365
 FORCE CONSTANT      2.0183

 VIBRATION         85   85A           ATOM PAIR      ENERGY CONTRIBUTION    RADIAL
 FREQUENCY          2636.73         C 30 -- H 32         +55.7% ( 77.6%)     98.8%
 TRANSITION DIPOLE   1.0939         C 30 -- H 31         +41.1% ( 66.6%)     97.1%
 TRAVEL (Ang.)       0.2284         C 30 -- H 33          +1.6% ( 13.2%)     24.4%
 REDUCED MASS        0.4904         C 29 -- C 30          +0.8% (  9.3%)      0.0%
 EFFECTIVE MASS      1.4350
 FORCE CONSTANT      2.0087

 VIBRATION         86   86A           ATOM PAIR      ENERGY CONTRIBUTION    RADIAL
 FREQUENCY          2639.45         C  7 -- H  9         +55.6% ( 77.4%)     99.0%
 TRANSITION DIPOLE   0.7575         C  7 -- H 10         +41.5% ( 66.9%)     97.3%
 TRAVEL (Ang.)       0.2270         C  7 -- H  8          +1.8% ( 14.1%)     27.1%
 REDUCED MASS        0.4958         C  7 -- N 11          +0.9% ( 10.0%)      0.0%
 EFFECTIVE MASS      1.4504
 FORCE CONSTANT      2.0351

 VIBRATION         87   87A           ATOM PAIR      ENERGY CONTRIBUTION    RADIAL
 FREQUENCY          2645.81         C 14 -- H 15         +57.8% ( 77.6%)     99.9%
 TRANSITION DIPOLE   1.1623         C 26 -- H 27         +23.6% ( 49.5%)     98.6%
 TRAVEL (Ang.)       0.2481         C 26 -- H 28         +13.0% ( 36.8%)     97.7%
 REDUCED MASS        0.4140         C 14 -- C 26          +0.8% (  9.2%)      8.0%
 EFFECTIVE MASS      1.4104
 FORCE CONSTANT      1.7075

 VIBRATION         88   88A           ATOM PAIR      ENERGY CONTRIBUTION    RADIAL
 FREQUENCY          2648.05         C 30 -- H 33         +61.9% ( 81.8%)     99.5%
 TRANSITION DIPOLE   0.9152         C 30 -- H 31         +25.2% ( 52.2%)     93.1%
 TRAVEL (Ang.)       0.2325         C 30 -- H 32         +10.9% ( 34.4%)     80.6%
 REDUCED MASS        0.4712         C 29 -- C 30          +0.9% (  9.8%)      0.1%
 EFFECTIVE MASS      1.4484
 FORCE CONSTANT      1.9466

 VIBRATION         89   89A           ATOM PAIR      ENERGY CONTRIBUTION    RADIAL
 FREQUENCY          2649.97         C 16 -- H 17         +77.1% ( 89.4%)    100.0%
 TRANSITION DIPOLE   0.3283         C 22 -- H 25         +12.5% ( 35.9%)     98.5%
 TRAVEL (Ang.)       0.2039         C 22 -- H 23          +4.4% ( 21.4%)     93.6%
 REDUCED MASS        0.6123         C 22 -- H 24          +2.7% ( 16.7%)     87.7%
 EFFECTIVE MASS      1.3467
 FORCE CONSTANT      2.5335

 VIBRATION         90   90A           ATOM PAIR      ENERGY CONTRIBUTION    RADIAL
 FREQUENCY          2660.29         C  3 -- H  6         +53.3% ( 74.2%)    100.0%
 TRANSITION DIPOLE   0.6569         C  2 -- H  5         +31.1% ( 56.6%)    100.0%
 TRAVEL (Ang.)       0.2565         C 22 -- H 24          +8.2% ( 29.1%)     99.3%
 REDUCED MASS        0.3853         C 22 -- H 23          +3.9% ( 20.2%)     95.0%
 EFFECTIVE MASS      1.3573
 FORCE CONSTANT      1.6064

 VIBRATION         91   91A           ATOM PAIR      ENERGY CONTRIBUTION    RADIAL
 FREQUENCY          2663.49         C 22 -- H 24         +51.1% ( 74.0%)     99.0%
 TRANSITION DIPOLE   0.4874         C 22 -- H 23         +32.4% ( 58.9%)     96.4%
 TRAVEL (Ang.)       0.2568         C  3 -- H  6         +10.8% ( 34.0%)    100.0%
 REDUCED MASS        0.3838         C 22 -- H 25          +2.6% ( 16.6%)     45.4%
 EFFECTIVE MASS      1.4324
 FORCE CONSTANT      1.6042

 VIBRATION         92   92A           ATOM PAIR      ENERGY CONTRIBUTION    RADIAL
 FREQUENCY          2675.23         C 22 -- H 25         +49.0% ( 72.1%)     99.2%
 TRANSITION DIPOLE   0.7951         C 22 -- H 23         +27.0% ( 53.6%)     95.2%
 TRAVEL (Ang.)       0.2690         C 16 -- H 17         +16.7% ( 42.1%)    100.0%
 REDUCED MASS        0.3483         C 22 -- H 24          +5.4% ( 23.9%)     68.2%
 EFFECTIVE MASS      1.4385
 FORCE CONSTANT      1.4687

 VIBRATION         93   93A           ATOM PAIR      ENERGY CONTRIBUTION    RADIAL
 FREQUENCY          2677.30         C  2 -- H  5         +64.9% ( 81.1%)    100.0%
 TRANSITION DIPOLE   1.2193         C  3 -- H  6         +31.3% ( 56.4%)     99.9%
 TRAVEL (Ang.)       0.2231         C 22 -- H 24          +0.9% (  9.5%)     99.6%
 REDUCED MASS        0.5061         C  2 -- C  3          +0.7% (  8.3%)     67.0%
 EFFECTIVE MASS      1.3478
 FORCE CONSTANT      2.1375

 VIBRATION         94   94A           ATOM PAIR      ENERGY CONTRIBUTION    RADIAL
 FREQUENCY          2734.63         C 18 -- H 19         +53.7% ( 74.1%)     99.9%
 TRANSITION DIPOLE   0.8093         C 20 -- H 21         +43.5% ( 66.6%)     99.9%
 TRAVEL (Ang.)       0.2311         C 18 -- C 20          +0.7% (  8.7%)      0.1%
 REDUCED MASS        0.4617         C 16 -- C 18          +0.6% (  7.8%)      6.7%
 EFFECTIVE MASS      1.3598
 FORCE CONSTANT      2.0341

 VIBRATION         95   95A           ATOM PAIR      ENERGY CONTRIBUTION    RADIAL
 FREQUENCY          2747.51         C 26 -- H 28         +59.9% ( 75.4%)     98.4%
 TRANSITION DIPOLE   0.6347         C 26 -- H 27         +36.6% ( 59.0%)     95.9%
 TRAVEL (Ang.)       0.2255         C 20 -- H 21          +2.3% ( 14.7%)     99.9%
 REDUCED MASS        0.4826         C 26 -- O 35          +0.4% (  6.1%)      9.6%
 EFFECTIVE MASS      1.1973
 FORCE CONSTANT      2.1463

 VIBRATION         96   96A           ATOM PAIR      ENERGY CONTRIBUTION    RADIAL
 FREQUENCY          2749.35         C 20 -- H 21         +51.8% ( 72.7%)    100.0%
 TRANSITION DIPOLE   0.8250         C 18 -- H 19         +43.5% ( 66.6%)    100.0%
 TRAVEL (Ang.)       0.2339         C 18 -- C 20          +1.5% ( 12.2%)     99.7%
 REDUCED MASS        0.4481         C 26 -- H 28          +0.8% (  9.0%)     97.7%
 EFFECTIVE MASS      1.4448
 FORCE CONSTANT      1.9959

 VIBRATION         97   97A           ATOM PAIR      ENERGY CONTRIBUTION    RADIAL
 FREQUENCY          2816.83         C  7 -- H  8         +33.4% ( 54.3%)     97.6%
 TRANSITION DIPOLE   0.5302         C  7 -- H 10         +33.3% ( 54.2%)     97.4%
 TRAVEL (Ang.)       0.2701         C  7 -- H  9         +33.0% ( 54.0%)     97.3%
 REDUCED MASS        0.3281         C  7 -- N 11          +0.2% (  3.7%)    100.0%
 EFFECTIVE MASS      1.0913
 FORCE CONSTANT      1.5338

 VIBRATION         98   98A           ATOM PAIR      ENERGY CONTRIBUTION    RADIAL
 FREQUENCY          2836.23         C 30 -- H 33         +35.5% ( 55.8%)     97.5%
 TRANSITION DIPOLE   0.8096         C 30 -- H 31         +32.6% ( 53.5%)     97.3%
 TRAVEL (Ang.)       0.2696         C 30 -- H 32         +31.5% ( 52.6%)     97.2%
 REDUCED MASS        0.3271         C 29 -- C 30          +0.2% (  4.2%)     99.8%
 EFFECTIVE MASS      1.1113
 FORCE CONSTANT      1.5504

 VIBRATION         99   99A           ATOM PAIR      ENERGY CONTRIBUTION    RADIAL
 FREQUENCY          2854.90         C 22 -- H 25         +35.8% ( 56.2%)     98.1%
 TRANSITION DIPOLE   0.4451         C 22 -- H 23         +32.2% ( 53.3%)     97.6%
 TRAVEL (Ang.)       0.2682         C 22 -- H 24         +31.7% ( 52.8%)     97.5%
 REDUCED MASS        0.3285         C 16 -- C 22          +0.2% (  4.0%)     99.7%
 EFFECTIVE MASS      1.0995
 FORCE CONSTANT      1.5773

      SYMMETRY NUMBER FOR POINT-GROUP C1  =  1


          SYSTEM IS A GROUND STATE



 DA_P_PM6_D3H4_THERMO


          MOLECULE IS NOT LINEAR

          THERE ARE 99 GENUINE VIBRATIONS IN THIS SYSTEM
          THIS THERMODYNAMICS CALCULATION IS LIMITED TO
          MOLECULES WHICH HAVE NO INTERNAL ROTATIONS




                    CALCULATED THERMODYNAMIC PROPERTIES
                                          *
   TEMP. (K)   PARTITION FUNCTION   H.O.F.    ENTHALPY  HEAT CAPACITY ENTROPY
                                   KCAL/MOL   CAL/MOLE    CAL/K/MOL  CAL/K/MOL


 298.00  VIB.     0.2831D+09                  9959.1614    61.4916    72.0938
         ROT.     0.4256D+07                   888.2813     2.9808    33.3132
         INT.     0.1205D+16                 10847.4428    64.4724   105.4070
         TRA.     0.3851D+28                  1480.4688     4.9680    42.4623
         TOT.                     -173.368   12327.9116    69.4404   147.8693

 200.00  VIB.     0.9233D+06                  4851.0089    43.1251    51.5508
         ROT.     0.2340D+07                   596.1620     2.9808    32.1245
         INT.     0.2161D+13                  5447.1708    46.1059    83.6753
         TRA.     0.2117D+28                   993.6033     4.9680    40.4812
         TOT.                     -179.255    6440.7741    51.0739   124.1565

 210.00  VIB.     0.1694D+07                  5291.0483    44.8873    53.6974
         ROT.     0.2518D+07                   625.9700     2.9808    32.2699
         INT.     0.4265D+13                  5917.0184    47.8681    85.9674
         TRA.     0.2278D+28                  1043.2834     4.9680    40.7236
         TOT.                     -178.736    6960.3018    52.8361   126.6909

 220.00  VIB.     0.3089D+07                  5748.8474    46.6773    55.8268
         ROT.     0.2700D+07                   655.7781     2.9808    32.4086
         INT.     0.8340D+13                  6404.6255    49.6581    88.2354
         TRA.     0.2443D+28                  1092.9636     4.9680    40.9547
         TOT.                     -178.198    7497.5891    54.6261   129.1901

 230.00  VIB.     0.5600D+07                  6224.6896    48.4960    57.9417
         ROT.     0.2886D+07                   685.5862     2.9808    32.5411
         INT.     0.1616D+14                  6910.2758    51.4768    90.4828
         TRA.     0.2611D+28                  1142.6437     4.9680    41.1755
         TOT.                     -177.643    8052.9196    56.4448   131.6583

 240.00  VIB.     0.1010D+08                  6718.8612    50.3430    60.0446
         ROT.     0.3076D+07                   715.3943     2.9808    32.6680
         INT.     0.3106D+14                  7434.2556    53.3238    92.7125
         TRA.     0.2783D+28                  1192.3239     4.9680    41.3870
         TOT.                     -177.069    8626.5795    58.2918   134.0995

 250.00  VIB.     0.1812D+08                  7231.6391    52.2169    62.1376
         ROT.     0.3270D+07                   745.2024     2.9808    32.7896
         INT.     0.5925D+14                  7976.8415    55.1977    94.9272
         TRA.     0.2959D+28                  1242.0041     4.9680    41.5898
         TOT.                     -176.477    9218.8456    60.1657   136.5170

 260.00  VIB.     0.3236D+08                  7763.2803    54.1152    64.2225
         ROT.     0.3468D+07                   775.0105     2.9808    32.9065
         INT.     0.1122D+15                  8538.2908    57.0960    97.1290
         TRA.     0.3138D+28                  1291.6842     4.9680    41.7846
         TOT.                     -175.866    9829.9750    62.0640   138.9136

 270.00  VIB.     0.5756D+08                  8314.0142    56.0348    66.3007
         ROT.     0.3670D+07                   804.8186     2.9808    33.0190
         INT.     0.2113D+15                  9118.8328    59.0157    99.3198
         TRA.     0.3321D+28                  1341.3644     4.9680    41.9721
         TOT.                     -175.236   10460.1972    63.9837   141.2919

 280.00  VIB.     0.1020D+09                  8884.0363    57.9722    68.3736
         ROT.     0.3876D+07                   834.6267     2.9808    33.1274
         INT.     0.3953D+15                  9718.6631    60.9530   101.5010
         TRA.     0.3507D+28                  1391.0445     4.9680    42.1528
         TOT.                     -174.586   11109.7076    65.9211   143.6538

 290.00  VIB.     0.1801D+09                  9473.5048    59.9234    70.4419
         ROT.     0.4086D+07                   864.4348     2.9808    33.2320
         INT.     0.7357D+15                 10337.9396    62.9042   103.6739
         TRA.     0.3697D+28                  1440.7247     4.9680    42.3271
         TOT.                     -173.917   11778.6643    67.8723   146.0011

 300.00  VIB.     0.3169D+09                 10082.5374    61.8844    72.5064
         ROT.     0.4299D+07                   894.2429     2.9808    33.3331
         INT.     0.1362D+16                 10976.7803    64.8652   105.8395
         TRA.     0.3890D+28                  1490.4049     4.9680    42.4955
         TOT.                     -173.229   12467.1852    69.8332   148.3351

 310.00  VIB.     0.5561D+09                 10711.2110    63.8510    74.5677
         ROT.     0.4516D+07                   924.0510     2.9808    33.4308
         INT.     0.2511D+16                 11635.2621    66.8318   107.9985
         TRA.     0.4086D+28                  1540.0850     4.9680    42.6584
         TOT.                     -172.521   13175.3471    71.7998   150.6569

 320.00  VIB.     0.9731D+09                 11359.5621    65.8192    76.6259
         ROT.     0.4736D+07                   953.8591     2.9808    33.5255
         INT.     0.4609D+16                 12313.4212    68.8000   110.1514
         TRA.     0.4285D+28                  1589.7652     4.9680    42.8162
         TOT.                     -171.793   13903.1864    73.7680   152.9676

 330.00  VIB.     0.1699D+10                 12027.5873    67.7852    78.6814
         ROT.     0.4959D+07                   983.6672     2.9808    33.6172
         INT.     0.8424D+16                 13011.2545    70.7660   112.2986
         TRA.     0.4488D+28                  1639.4454     4.9680    42.9690
         TOT.                     -171.045   14650.6999    75.7340   155.2676

 340.00  VIB.     0.2958D+10                 12715.2462    69.7453    80.7341
         ROT.     0.5187D+07                  1013.4753     2.9808    33.7062
         INT.     0.1534D+17                 13728.7215    72.7261   114.4403
         TRA.     0.4693D+28                  1689.1255     4.9680    43.1174
         TOT.                     -170.278   15417.8470    77.6942   157.5577

 350.00  VIB.     0.5139D+10                 13422.4630    71.6962    82.7840
         ROT.     0.5417D+07                  1043.2834     2.9808    33.7926
         INT.     0.2784D+17                 14465.7464    74.6770   116.5766
         TRA.     0.4902D+28                  1738.8057     4.9680    43.2614
         TOT.                     -169.492   16204.5521    79.6451   159.8380

 360.00  VIB.     0.8910D+10                 14149.1299    73.6349    84.8310
         ROT.     0.5651D+07                  1073.0915     2.9808    33.8766
         INT.     0.5035D+17                 15222.2214    76.6157   118.7075
         TRA.     0.5113D+28                  1788.4859     4.9680    43.4013
         TOT.                     -168.685   17010.7073    81.5837   162.1089

 370.00  VIB.     0.1542D+11                 14895.1098    75.5584    86.8748
         ROT.     0.5888D+07                  1102.8996     2.9808    33.9582
         INT.     0.9079D+17                 15998.0094    78.5392   120.8330
         TRA.     0.5328D+28                  1838.1660     4.9680    43.5374
         TOT.                     -167.860   17836.1754    83.5072   164.3704

 380.00  VIB.     0.2664D+11                 15660.2392    77.4644    88.9151
         ROT.     0.6128D+07                  1132.7077     2.9808    34.0377
         INT.     0.1632D+18                 16792.9469    80.4452   122.9528
         TRA.     0.5545D+28                  1887.8462     4.9680    43.6699
         TOT.                     -167.015   18680.7930    85.4132   166.6228

 390.00  VIB.     0.4593D+11                 16444.3316    79.3507    90.9517
         ROT.     0.6372D+07                  1162.5158     2.9808    34.1152
         INT.     0.2927D+18                 17606.8474    82.3315   125.0669
         TRA.     0.5766D+28                  1937.5263     4.9680    43.7990
         TOT.                     -166.152   19544.3738    87.2995   168.8659

 400.00  VIB.     0.7908D+11                 17247.1804    81.2154    92.9843
         ROT.     0.6618D+07                  1192.3239     2.9808    34.1906
         INT.     0.5234D+18                 18439.5043    84.1962   127.1749
         TRA.     0.5989D+28                  1987.2065     4.9680    43.9248
         TOT.                     -165.269   20426.7108    89.1642   171.0997

   *: NOTE: HEATS OF FORMATION ARE RELATIVE TO THE
            ELEMENTS IN THEIR STANDARD STATE AT 298K
              (=  Standard Enthalpy of Formation).

            Hvib:  Zero-point energy is not included.
                   frequencies of less than zero cm-1 are not included.
            Hrot = (3/2)RT
            Htra = (3/2)RT + pV = (5/2)RT

            Heat capacity is Cp, not Cv

          For more information, see: HTTP://OpenMOPAC.net/Manual/thermochemistry.html


           FORCE CONSTANT IN CARTESIAN COORDINATES (Millidynes/A)

    ATOM   CHEMICAL       X               Y               Z
   NUMBER   SYMBOL  FORCE CONSTANT  FORCE CONSTANT  FORCE CONSTANT

      1       C       10.390167       12.139194        2.718147
      2       C        6.708796        7.422461        6.670994
      3       C        7.282685        6.979420        6.718716
      4       C        7.386327       15.201281        2.780442
      5       H        1.048111        1.370015        3.145958
      6       H        1.263512        0.914251        3.366883
      7       C        6.844670        6.488704        5.836020
      8       H        0.976338        0.634212        3.817804
      9       H        1.901511        2.316824        1.232986
     10       H        0.851212        3.236901        1.352911
     11       N       11.464344        9.701906        0.996948
     12       O        1.165195       13.032982        0.496393
     13       O        5.551925        8.658004        0.428327
     14       C        7.153035        7.072827        7.727732
     15       H        0.952426        3.708641        0.917523
     16       C        7.015087        7.156165        7.580639
     17       H        2.594612        2.022915        1.013479
     18       C        3.496140       12.973430        7.435427
     19       H        0.429744        1.670991        3.311239
     20       C        3.557639       12.837471        7.532268
     21       H        0.613935        1.686593        3.110506
     22       C        6.607055        6.405082        6.379892
     23       H        0.999047        2.237549        2.290126
     24       H        1.131423        1.508880        2.874453
     25       H        2.587054        1.822117        1.131110
     26       C        6.536175        6.676334        6.463101
     27       H        0.839419        1.374187        3.317137
     28       H        1.155522        3.714260        0.673537
     29       C        6.730553        8.951226        9.877220
     30       C        6.403047        6.452064        6.709627
     31       H        1.293018        2.228178        1.810355
     32       H        3.044416        1.108930        1.163747
     33       H        0.880056        2.731025        1.831341
     34       O        3.110907        5.312593        6.465249
     35       O        2.902832        6.983196        3.615967

 **********************
 *                    *
 * JOB ENDED NORMALLY *
 *                    *
 **********************



 TOTAL JOB TIME:             6.20 SECONDS

 == MOPAC DONE ==
