 *******************************************************************************
 ** Site#: 37381        For non-commercial use only           Version 21.125L **
 *******************************************************************************
 ** Cite this program as: MOPAC2016, Version: 21.125L, James J. P. Stewart,   **
 ** Stewart Computational Chemistry, web: HTTP://OpenMOPAC.net. Days left: 191**
 *******************************************************************************
 **                                                                           **
 **                                MOPAC2016                                  **
 **                                                                           **
 *******************************************************************************

                              PM6-D3H4 CALCULATION RESULTS

 *******************************************************************************
 *  CALCULATION DONE:                                Tue Oct 26 21:00:15 2021  *
 *  PM6-D3H4   - CORRECT DISPERSION AND HYDROGEN BOND TERMS USING THE D3H4 METHOD
 *  EPS=2.38   - USE ANDREAS KLAMT'S COSMO IMPLICIT SOLVATION MODEL
 *  RSOLV=  3.480
 *  FORCE      - FORCE CALCULATION SPECIFIED
 *  T=         - A TIME OF 172800.0 SECONDS REQUESTED
 *  DUMP=N     - RESTART FILE WRITTEN EVERY 7200.0 SECONDS REQUESTED
 *  AUX        - OUTPUT AUXILIARY INFORMATION
 *  LARGE      - EXPANDED OUTPUT TO BE PRINTED
 *  THERMO     - THERMODYNAMIC QUANTITIES TO BE CALCULATED
 *******************************************************************************
 AUX LARGE FORCE THERMO PM6-D3H4 EPS=2.38 RSOLV=3.48
 DA_SM1_PM6_D3H4_THERMO

   ATOM   CHEMICAL          X               Y               Z
  NUMBER   SYMBOL      (ANGSTROMS)     (ANGSTROMS)     (ANGSTROMS)
 
     1       C          2.55602000  *  -0.57766000  *  -0.33906000  *
     2       H          2.83019000  *  -1.39599000  *  -1.01099000  *
     3       C          1.11262000  *  -0.35655000  *  -0.21586000  *
     4       H          0.51038000  *  -1.26780000  *  -0.09532000  *
     5       C          3.47931000  *   0.13244000  *   0.32268000  *
     6       H          3.19475000  *   0.93644000  *   1.00703000  *
     7       C          4.94748000  *  -0.10534000  *   0.21161000  *
     8       H          5.34783000  *  -0.43097000  *   1.20264000  *
     9       H          5.18633000  *  -0.89115000  *  -0.54210000  *
    10       H          5.45939000  *   0.84098000  *  -0.08754000  *
    11       C          0.53214000  *   0.84812000  *  -0.26163000  *
    12       H          1.10596000  *   1.76820000  *  -0.39611000  *
    13       C         -0.94238000  *   1.07571000  *  -0.14750000  *
    14       H         -1.34601000  *   1.54222000  *  -1.07459000  *
    15       H         -1.18522000  *   1.65015000  *   0.77530000  *
    16       C         -2.91915000  *  -0.39848000  *   0.09571000  *
    17       C         -3.80596000  *   0.79573000  *   0.08569000  *
    18       H         -3.71530000  *   1.35454000  *  -0.87733000  *
    19       H         -4.87182000  *   0.46321000  *   0.19565000  *
    20       H         -3.56751000  *   1.48065000  *   0.93519000  *
    21       O         -1.55336000  *  -0.24780000  *  -0.01552000  *
    22       O         -3.27355000  *  -1.55490000  *   0.19586000  *
 


          CARTESIAN COORDINATES 

    NO.       ATOM           X           Y           Z

     1         C          2.5560     -0.5777     -0.3391
     2         H          2.8302     -1.3960     -1.0110
     3         C          1.1126     -0.3566     -0.2159
     4         H          0.5104     -1.2678     -0.0953
     5         C          3.4793      0.1324      0.3227
     6         H          3.1947      0.9364      1.0070
     7         C          4.9475     -0.1053      0.2116
     8         H          5.3478     -0.4310      1.2026
     9         H          5.1863     -0.8911     -0.5421
    10         H          5.4594      0.8410     -0.0875
    11         C          0.5321      0.8481     -0.2616
    12         H          1.1060      1.7682     -0.3961
    13         C         -0.9424      1.0757     -0.1475
    14         H         -1.3460      1.5422     -1.0746
    15         H         -1.1852      1.6502      0.7753
    16         C         -2.9192     -0.3985      0.0957
    17         C         -3.8060      0.7957      0.0857
    18         H         -3.7153      1.3545     -0.8773
    19         H         -4.8718      0.4632      0.1956
    20         H         -3.5675      1.4807      0.9352
    21         O         -1.5534     -0.2478     -0.0155
    22         O         -3.2736     -1.5549      0.1959

 General Reference for PM6:
 "Optimization of Parameters for Semiempirical Methods V: Modification of NDDO Approximations
 and Application to 70 Elements", J. J. P. Stewart, J. Mol. Mod., 13, 1173-1213 (2007)
 URL: https://link.springer.com/article/10.1007/s00894-007-0233-4

           Empirical Formula: C8 H12 O2  =    22 atoms



      MOLECULAR POINT GROUP   :   C1  


      RHF CALCULATION, NO. OF DOUBLY OCCUPIED LEVELS = 28



          HEAT OF FORMATION =     -65.488702 KCALS/MOLE


          CARTESIAN COORDINATE DERIVATIVES

   NUMBER  ATOM         X            Y            Z

     1       C     -0.003815    -0.016193     0.014613
     2       H     -0.003450     0.008009    -0.000374
     3       C     -0.001250    -0.008415     0.001407
     4       H      0.006978     0.003556    -0.004758
     5       C     -0.016439     0.008257     0.001374
     6       H      0.013805    -0.005465     0.007090
     7       C      0.005973    -0.008287     0.018376
     8       H      0.003932     0.002548     0.000303
     9       H     -0.008999     0.004407     0.006566
    10       H     -0.007935    -0.002340     0.000599
    11       C      0.011298     0.013217     0.004599
    12       H      0.005096    -0.001572    -0.003562
    13       C     -0.113883    -0.014749     0.060539
    14       H      0.050341     0.017837     0.017529
    15       H      0.015216    -0.009679    -0.065676
    16       C      0.069206     0.014722    -0.057504
    17       C     -0.001728    -0.004936    -0.001634
    18       H      0.018386     0.006397     0.002712
    19       H     -0.003525    -0.000132    -0.002683
    20       H     -0.000326     0.003188    -0.022639
    21       O     -0.040431     0.017526     0.018380
    22       O      0.001552    -0.027896     0.004744
 
 DIPOLE           X         Y         Z       TOTAL
 POINT-CHG.    -3.932    -2.236     3.950     6.005
 HYBRID         0.166     0.087    -0.177     0.258
 SUM           -3.766    -2.149     3.773     5.747


          GRADIENT NORM =   0.19845


          TIME FOR SCF CALCULATION =    0.02

          TIME FOR DERIVATIVES     =    0.01

          MOLECULAR WEIGHT =  140.18



          ROTATIONAL CONSTANTS IN CM(-1)

          A =    0.15475852   B =    0.01398355   C =    0.01308129



           PRINCIPAL MOMENTS OF INERTIA IN UNITS OF 10**(-40)*GRAM-CM**2

          A =      180.8803   B =     2001.8367   C =     2139.9086


          ORIENTATION OF MOLECULE IN FORCE CALCULATION

    NO.       ATOM         X         Y         Z

     1          C       1.2656   -2.3775    0.0015
     2          H       2.3594   -2.3775    0.0015
     3          C       0.6627   -1.0419    0.0015
     4          H       1.1194   -0.3246   -0.6946
     5          C       0.5592   -3.5156   -0.0209
     6          H      -0.5341   -3.5054   -0.0400
     7          C       1.1734   -4.8746   -0.0401
     8          H       0.9085   -5.3893   -0.9958
     9          H       2.2842   -4.8309    0.0423
    10          H       0.7775   -5.4774    0.8125
    11          C      -0.3560   -0.6792    0.7895
    12          H      -0.8180   -1.3679    1.5010
    13          C      -0.9660    0.6871    0.7996
    14          H      -0.8467    1.1689    1.7964
    15          H      -2.0236    0.6524    0.4519
    16          C      -0.5080    2.8085   -0.3962
    17          C      -1.6176    3.4627    0.3477
    18          H      -1.4214    3.4570    1.4474
    19          H      -1.7036    4.5309    0.0155
    20          H      -2.5922    2.9569    0.1428
    21          O      -0.2100    1.4817   -0.1697
    22          O       0.2069    3.3320   -1.2256


    FIRST DERIVATIVES WILL BE USED IN THE CALCULATION OF SECOND DERIVATIVES

          ESTIMATED TIME TO COMPLETE CALCULATION =        4.12 SECONDS

    FOR POINT-GROUP C1   THERE ARE   1 UNIQUE SYMMETRY FUNCTIONS.

 STEP:   1 TIME =     0.02 SECS, INTEGRAL =      0.02 TIME LEFT: 172799.95
 STEP:   2 TIME =     0.02 SECS, INTEGRAL =      0.05 TIME LEFT: 172799.92
 STEP:   3 TIME =     0.02 SECS, INTEGRAL =      0.07 TIME LEFT: 172799.90
 STEP:   4 TIME =     0.02 SECS, INTEGRAL =      0.09 TIME LEFT: 172799.88
 STEP:   5 TIME =     0.02 SECS, INTEGRAL =      0.12 TIME LEFT: 172799.85
 STEP:   6 TIME =     0.02 SECS, INTEGRAL =      0.14 TIME LEFT: 172799.83
 STEP:   7 TIME =     0.02 SECS, INTEGRAL =      0.16 TIME LEFT: 172799.80
 STEP:   8 TIME =     0.03 SECS, INTEGRAL =      0.20 TIME LEFT: 172799.77
 STEP:   9 TIME =     0.02 SECS, INTEGRAL =      0.22 TIME LEFT: 172799.75
 STEP:  10 TIME =     0.03 SECS, INTEGRAL =      0.25 TIME LEFT: 172799.72
 STEP:  11 TIME =     0.02 SECS, INTEGRAL =      0.27 TIME LEFT: 172799.70
 STEP:  12 TIME =     0.02 SECS, INTEGRAL =      0.30 TIME LEFT: 172799.67
 STEP:  13 TIME =     0.03 SECS, INTEGRAL =      0.33 TIME LEFT: 172799.64
 STEP:  14 TIME =     0.02 SECS, INTEGRAL =      0.35 TIME LEFT: 172799.62
 STEP:  15 TIME =     0.03 SECS, INTEGRAL =      0.38 TIME LEFT: 172799.59
 STEP:  16 TIME =     0.02 SECS, INTEGRAL =      0.41 TIME LEFT: 172799.56
 STEP:  17 TIME =     0.02 SECS, INTEGRAL =      0.43 TIME LEFT: 172799.54
 STEP:  18 TIME =     0.03 SECS, INTEGRAL =      0.46 TIME LEFT: 172799.51
 STEP:  19 TIME =     0.02 SECS, INTEGRAL =      0.48 TIME LEFT: 172799.48
 STEP:  20 TIME =     0.03 SECS, INTEGRAL =      0.52 TIME LEFT: 172799.45
 STEP:  21 TIME =     0.02 SECS, INTEGRAL =      0.54 TIME LEFT: 172799.43
 STEP:  22 TIME =     0.02 SECS, INTEGRAL =      0.56 TIME LEFT: 172799.41
 STEP:  23 TIME =     0.02 SECS, INTEGRAL =      0.59 TIME LEFT: 172799.38
 STEP:  24 TIME =     0.02 SECS, INTEGRAL =      0.61 TIME LEFT: 172799.36
 STEP:  25 TIME =     0.02 SECS, INTEGRAL =      0.63 TIME LEFT: 172799.34
 STEP:  26 TIME =     0.02 SECS, INTEGRAL =      0.66 TIME LEFT: 172799.31
 STEP:  27 TIME =     0.02 SECS, INTEGRAL =      0.68 TIME LEFT: 172799.29
 STEP:  28 TIME =     0.02 SECS, INTEGRAL =      0.70 TIME LEFT: 172799.27
 STEP:  29 TIME =     0.02 SECS, INTEGRAL =      0.73 TIME LEFT: 172799.24
 STEP:  30 TIME =     0.02 SECS, INTEGRAL =      0.75 TIME LEFT: 172799.22
 STEP:  31 TIME =     0.03 SECS, INTEGRAL =      0.78 TIME LEFT: 172799.19
 STEP:  32 TIME =     0.02 SECS, INTEGRAL =      0.80 TIME LEFT: 172799.16
 STEP:  33 TIME =     0.03 SECS, INTEGRAL =      0.84 TIME LEFT: 172799.13
 STEP:  34 TIME =     0.02 SECS, INTEGRAL =      0.86 TIME LEFT: 172799.11
 STEP:  35 TIME =     0.03 SECS, INTEGRAL =      0.89 TIME LEFT: 172799.08
 STEP:  36 TIME =     0.02 SECS, INTEGRAL =      0.91 TIME LEFT: 172799.05
 STEP:  37 TIME =     0.03 SECS, INTEGRAL =      0.95 TIME LEFT: 172799.02
 STEP:  38 TIME =     0.02 SECS, INTEGRAL =      0.97 TIME LEFT: 172799.00
 STEP:  39 TIME =     0.02 SECS, INTEGRAL =      0.99 TIME LEFT: 172798.98
 STEP:  40 TIME =     0.02 SECS, INTEGRAL =      1.02 TIME LEFT: 172798.95
 STEP:  41 TIME =     0.02 SECS, INTEGRAL =      1.04 TIME LEFT: 172798.93
 STEP:  42 TIME =     0.02 SECS, INTEGRAL =      1.06 TIME LEFT: 172798.91
 STEP:  43 TIME =     0.02 SECS, INTEGRAL =      1.09 TIME LEFT: 172798.88
 STEP:  44 TIME =     0.02 SECS, INTEGRAL =      1.11 TIME LEFT: 172798.86
 STEP:  45 TIME =     0.03 SECS, INTEGRAL =      1.14 TIME LEFT: 172798.83
 STEP:  46 TIME =     0.02 SECS, INTEGRAL =      1.16 TIME LEFT: 172798.80
 STEP:  47 TIME =     0.02 SECS, INTEGRAL =      1.19 TIME LEFT: 172798.78
 STEP:  48 TIME =     0.03 SECS, INTEGRAL =      1.22 TIME LEFT: 172798.75
 STEP:  49 TIME =     0.02 SECS, INTEGRAL =      1.24 TIME LEFT: 172798.73
 STEP:  50 TIME =     0.03 SECS, INTEGRAL =      1.27 TIME LEFT: 172798.70
 STEP:  51 TIME =     0.02 SECS, INTEGRAL =      1.30 TIME LEFT: 172798.67
 STEP:  52 TIME =     0.03 SECS, INTEGRAL =      1.33 TIME LEFT: 172798.64
 STEP:  53 TIME =     0.02 SECS, INTEGRAL =      1.35 TIME LEFT: 172798.62
 STEP:  54 TIME =     0.02 SECS, INTEGRAL =      1.38 TIME LEFT: 172798.59
 STEP:  55 TIME =     0.02 SECS, INTEGRAL =      1.40 TIME LEFT: 172798.57
 STEP:  56 TIME =     0.02 SECS, INTEGRAL =      1.42 TIME LEFT: 172798.55
 STEP:  57 TIME =     0.02 SECS, INTEGRAL =      1.45 TIME LEFT: 172798.52
 STEP:  58 TIME =     0.02 SECS, INTEGRAL =      1.47 TIME LEFT: 172798.50
 STEP:  59 TIME =     0.02 SECS, INTEGRAL =      1.49 TIME LEFT: 172798.48
 STEP:  60 TIME =     0.02 SECS, INTEGRAL =      1.52 TIME LEFT: 172798.45
 STEP:  61 TIME =     0.02 SECS, INTEGRAL =      1.54 TIME LEFT: 172798.43
 STEP:  62 TIME =     0.02 SECS, INTEGRAL =      1.56 TIME LEFT: 172798.41
 STEP:  63 TIME =     0.02 SECS, INTEGRAL =      1.59 TIME LEFT: 172798.38
 STEP:  64 TIME =     0.02 SECS, INTEGRAL =      1.61 TIME LEFT: 172798.36
 STEP:  65 TIME =     0.02 SECS, INTEGRAL =      1.63 TIME LEFT: 172798.34
 STEP:  66 TIME =     0.03 SECS, INTEGRAL =      1.66 TIME LEFT: 172798.30

(To convert to Hartree/Bohr^2, multiply by (10^(-21) x N x a0^2)/(4.184 x 627.51) =  0.0642)


           FORCE MATRIX IN MILLIDYNES/ANGSTROM


                  C  1       H  2       C  3       H  4       C  5       H  6
 ------------------------------------------------------------------------------
     C    1  15.956660
     H    2   3.460906   4.301254
     C    3   4.463815   0.658388  16.029601
     H    4   0.635100   0.025017   3.415971   4.239491
     C    5   9.182496   0.735940   0.946098   0.044299  15.886402
     H    6   0.719051   0.136340   0.064620   0.006764   3.443980   4.260722
     C    7   0.862200   0.061559   0.153596   0.018775   4.087194   0.615960
     H    8   0.041065   0.012523   0.022486   0.003753   0.657612   0.028903
     H    9   0.039877   0.031219   0.006022   0.002111   0.643085   0.049431
     H   10   0.039448   0.007214   0.022128   0.002251   0.658015   0.023822
     C   11   0.926592   0.041372   9.289092   0.729765   0.073086   0.016082
     H   12   0.061611   0.006511   0.732095   0.137106   0.015256   0.016176
     C   13   0.153471   0.018365   0.843411   0.063486   0.020528   0.008482
     H   14   0.021612   0.003354   0.031459   0.009026   0.003263   0.001704
     H   15   0.022725   0.002241   0.030179   0.009702   0.003134   0.003558
     C   16   0.023796   0.009756   0.028784   0.033048   0.016040   0.010351
     C   17   0.006714   0.002109   0.007546   0.008178   0.003925   0.002731
     H   18   0.001408   0.000521   0.001413   0.001746   0.000843   0.000496
     H   19   0.001044   0.000391   0.001057   0.000956   0.000810   0.000461
     H   20   0.001447   0.000444   0.001436   0.001693   0.000899   0.000698
     O   21   0.014297   0.009328   0.044145   0.034460   0.013288   0.008388
     O   22   0.010424   0.004917   0.014803   0.016122   0.007056   0.004477


                  C  7       H  8       H  9       H 10       C 11       H 12
 ------------------------------------------------------------------------------
     C    7  11.458860
     H    8   3.305247   4.241423
     H    9   3.339781   0.581591   4.277054
     H   10   3.301141   0.570686   0.569031   4.245146
     C   11   0.026760   0.006524   0.003690   0.004971  15.891057
     H   12   0.011555   0.004498   0.002366   0.002832   3.435573   4.285521
     C   13   0.017857   0.004349   0.003699   0.002982   3.892220   0.616098
     H   14   0.003540   0.000931   0.000842   0.000770   0.628615   0.021595
     H   15   0.004588   0.001362   0.000919   0.000961   0.630515   0.020071
     C   16   0.026069   0.006805   0.006116   0.005100   0.111665   0.029130
     C   17   0.006775   0.001793   0.001540   0.001453   0.018016   0.007065
     H   18   0.001410   0.000347   0.000339   0.000317   0.005489   0.001762
     H   19   0.001362   0.000341   0.000311   0.000283   0.002072   0.000964
     H   20   0.001503   0.000442   0.000322   0.000334   0.005887   0.001733
     O   21   0.020288   0.005246   0.004808   0.003873   0.918164   0.068048
     O   22   0.011524   0.003006   0.002769   0.002180   0.084564   0.017870


                  C 13       H 14       H 15       C 16       C 17       H 18
 ------------------------------------------------------------------------------
     C   13  11.597463
     H   14   3.249581   4.169175
     H   15   3.244555   0.533112   4.166800
     C   16   1.049695   0.092187   0.098046  16.859540
     C   17   0.080019   0.011166   0.016485   3.718359  11.358120
     H   18   0.029957   0.027106   0.008907   0.714281   3.292502   4.213661
     H   19   0.009934   0.001831   0.003027   0.728625   3.282552   0.554885
     H   20   0.031197   0.010005   0.026684   0.714128   3.301217   0.557229
     O   21   3.292120   0.694383   0.700089   3.924230   0.823022   0.063419
     O   22   0.277597   0.026636   0.039364  11.009623   1.180662   0.065247


                  H 19       H 20       O 21       O 22
 ------------------------------------------------------
     H   19   4.200534
     H   20   0.553089   4.216241
     O   21   0.062882   0.060590   9.482437
     O   22   0.058530   0.069255   2.378706  13.371128


          HEAT OF FORMATION =     -65.488702 KCALS/MOLE


          TRIVIAL VIBRATIONS, SHOULD BE ZERO

  12.4836=TX -29.0788=TY  10.1447=TZ -49.7533=RX   2.7641=RY -46.5616=RZ


      MOLECULAR POINT GROUP   :   C1  


           EIGENVECTORS  


   Root No.       1         2         3         4         5         6         7         8

                 1 A       2 A       3 A       4 A       5 A       6 A       7 A       8 A   

                  -0.0       0.0       0.0       0.0       0.0       0.0       0.0       0.1
  
           1   -0.0434   -0.0501   -0.0175    0.0520    0.0669   -0.0803   -0.0923   -0.0686
           2   -0.0110    0.0010   -0.0109    0.0138    0.0036    0.0213   -0.0196    0.0137
           3   -0.1388   -0.0409   -0.0567   -0.1136   -0.0190    0.0152   -0.0612   -0.1863
           4   -0.0432   -0.0498   -0.0179    0.0522    0.0663   -0.0781   -0.0892   -0.0672
           5    0.0138    0.0676   -0.0058   -0.0280   -0.0544    0.0795    0.0168    0.0302
           6   -0.2849   -0.0061   -0.0770   -0.3932   -0.1193   -0.2146    0.0439   -0.2431
           7   -0.0723   -0.1262   -0.0266    0.0915    0.1223   -0.1323   -0.0935   -0.0642
           8   -0.0238   -0.0330   -0.0129    0.0285    0.0275   -0.0082   -0.0220    0.0129
           9   -0.1558   -0.1276   -0.0821   -0.0459    0.0212    0.1244   -0.0668   -0.0974
          10   -0.1652   -0.1975   -0.1500    0.2048    0.2487   -0.1333   -0.0086   -0.0502
          11   -0.0560   -0.0662   -0.0718    0.1010    0.0817    0.0489    0.0150    0.0829
          12   -0.2494   -0.2089   -0.2222    0.1036    0.1615    0.1740    0.0261   -0.0164
          13   -0.0189    0.0199   -0.0212    0.0159    0.0086   -0.0041   -0.0275   -0.0408
          14   -0.0301   -0.0427   -0.0088    0.0279    0.0360   -0.0291   -0.0577   -0.0046
          15    0.0474    0.0036   -0.0049    0.1477    0.0575    0.1325   -0.1072   -0.1211
          16   -0.0219    0.0199   -0.0212    0.0127    0.0079   -0.0082   -0.0244   -0.0399
          17   -0.0597   -0.1112   -0.0009    0.0535    0.0913   -0.1175   -0.1350   -0.0444
          18    0.1934   -0.0325    0.0081    0.4059    0.1448    0.3897   -0.2465   -0.1535
          19    0.0127    0.1065   -0.0294   -0.0291   -0.0688    0.1084    0.0803    0.0149
          20   -0.0163   -0.0054   -0.0128    0.0095    0.0027    0.0246   -0.0139    0.0171
          21    0.0749    0.1032    0.0186    0.1010    0.0250   -0.1101    0.0556    0.0632
          22   -0.0870    0.2424    0.3628    0.0191   -0.0361    0.1453    0.2214    0.0835
          23   -0.0941   -0.0435    0.1729    0.0949    0.0771    0.1918   -0.1227   -0.1372
          24    0.1446    0.0861   -0.1924    0.0398   -0.0252   -0.2135    0.0775    0.1314
          25    0.0215    0.0949   -0.0636   -0.0336   -0.0722    0.1063    0.0693    0.0098
          26    0.0187    0.0670   -0.0401   -0.0341   -0.0673    0.0991    0.0834    0.0811
          27   -0.0625    0.2224    0.4992    0.1858    0.1045   -0.1034    0.1655    0.1104
          28    0.1315    0.0531   -0.3960   -0.1114   -0.1640    0.1638    0.0474    0.0071
          29    0.0371   -0.0105   -0.1725   -0.0464   -0.0274   -0.1814    0.0324    0.1294
          30    0.1679    0.0743   -0.2669    0.0223   -0.0406   -0.2329    0.0739    0.1413
          31    0.0143   -0.1026    0.1059   -0.0152    0.0076   -0.1567   -0.1430   -0.0357
          32    0.0046   -0.0230    0.0391   -0.0312   -0.0187   -0.0415   -0.0391   -0.0400
          33   -0.0569   -0.1022    0.0640   -0.1527   -0.1039    0.1106   -0.1227   -0.0322
          34    0.1111   -0.0356    0.2418   -0.1363   -0.1137   -0.1965   -0.2755   -0.0725
          35    0.0359    0.0054    0.0872   -0.0940   -0.0713   -0.0500   -0.0921   -0.1086
          36    0.0372   -0.0323    0.2009   -0.2915   -0.2321    0.0694   -0.2615   -0.1259
          37   -0.0078   -0.1593    0.0804    0.0166    0.0108   -0.1056    0.0322    0.0607
          38   -0.0056   -0.0472    0.0271   -0.0191   -0.0193   -0.0128    0.0386    0.0033
          39   -0.0524   -0.1649    0.0583   -0.0726   -0.0753    0.1011    0.0636    0.1420
          40   -0.0295   -0.2771    0.0962    0.0648    0.0120   -0.0846    0.4604   -0.1266
          41   -0.0186   -0.0442    0.0478   -0.0775   -0.0371    0.0049    0.0144   -0.2065
          42   -0.0423   -0.1534    0.0466   -0.0493   -0.0667    0.0890    0.0292    0.2655
          43   -0.0034   -0.1244    0.0720    0.0029    0.0074   -0.1043   -0.0938    0.1401
          44   -0.0159   -0.0864   -0.0023    0.0245   -0.0263    0.0396    0.2008    0.1549
          45   -0.0602   -0.2700    0.0866   -0.0356   -0.0664    0.0961    0.4466   -0.1128
          46    0.1405   -0.0017   -0.0060   -0.0473   -0.0058    0.0728   -0.0040    0.0434
          47    0.0936    0.0138    0.0155    0.0164    0.0303   -0.0854    0.0120   -0.0210
          48    0.1739   -0.0003    0.0081   -0.0220    0.0205   -0.0054   -0.0083    0.0708
          49   -0.0513    0.1487   -0.0503   -0.0126   -0.0299    0.0873    0.0012    0.0038
          50   -0.0131    0.0827   -0.0208   -0.0170   -0.0273    0.0493    0.0226    0.0081
          51   -0.0194    0.1641   -0.0260    0.0603    0.0363   -0.1062   -0.0109   -0.0166
          52   -0.2004    0.3316   -0.0796   -0.1226    0.2263    0.0736    0.0108   -0.0300
          53    0.0393    0.0834   -0.0022   -0.3135    0.3402    0.1731    0.0385    0.1068
          54    0.0094    0.1328   -0.0208    0.0758   -0.0033   -0.1028   -0.0123   -0.0107
          55   -0.1177    0.1597   -0.0846    0.1527   -0.3528    0.1406    0.0008   -0.0224
          56   -0.0304    0.0850   -0.0275    0.0755   -0.1434    0.0128    0.0188   -0.0257
          57   -0.0578    0.1688   -0.0387    0.3149   -0.2534   -0.2388   -0.0239   -0.1208
          58    0.0298    0.0866   -0.0247   -0.0578    0.0417    0.0688   -0.0035    0.0272
          59   -0.1216    0.1392   -0.0623    0.1543   -0.3076    0.0671    0.0233   -0.0399
          60   -0.1324    0.3285   -0.0464   -0.1600    0.4078   -0.0583    0.0077   -0.0065
          61   -0.0001   -0.1109    0.0405   -0.0033   -0.0076   -0.0412   -0.1641    0.3606
          62    0.0255   -0.0294    0.0293    0.0195    0.0134   -0.0909   -0.0541    0.1288
          63   -0.0219   -0.1116    0.0292   -0.0557   -0.0629    0.0865   -0.1658    0.4806
          64    0.4008   -0.0280   -0.0111   -0.1159    0.0242    0.1584    0.0957   -0.1330
          65    0.2276   -0.0022    0.0327    0.0417    0.0966   -0.1955    0.0393   -0.1410
          66    0.4859   -0.0333    0.0147   -0.0649    0.0892   -0.0026    0.0975   -0.1619


   Root No.       9        10        11        12        13        14        15        16

                 9 A      10 A      11 A      12 A      13 A      14 A      15 A      16 A   

                   0.1       0.1       0.2       0.2       0.5       0.5       0.6       0.6
  
           1    0.1185    0.0822   -0.1375   -0.1155    0.0810   -0.0046    0.1756   -0.0389
           2    0.1351   -0.0908   -0.0775   -0.0422   -0.0312    0.0030   -0.0840    0.0184
           3   -0.1146   -0.0134   -0.1181    0.0421    0.0337   -0.0061    0.1032   -0.0329
           4    0.1128    0.0846   -0.1325   -0.1182    0.0802   -0.0049    0.1869   -0.0412
           5    0.1381   -0.1201   -0.2216   -0.2766   -0.0475    0.0192   -0.2673    0.0664
           6   -0.1600   -0.0210   -0.3636    0.2416   -0.0523    0.0104   -0.1380    0.2561
           7    0.0462    0.1088    0.0664    0.1017   -0.0415   -0.0050    0.0337    0.0055
           8    0.0998   -0.0623    0.0050    0.0351   -0.1180    0.0020   -0.1506    0.0439
           9   -0.0133   -0.0298    0.1694   -0.1329    0.1106   -0.0077    0.1679   -0.0394
          10   -0.0546    0.1483    0.2479    0.1903   -0.2344   -0.0399   -0.1078    0.0774
          11    0.1964   -0.0911    0.0955   -0.0735   -0.0592   -0.0072   -0.3196    0.0120
          12    0.0221   -0.0288    0.3775   -0.1735    0.0574   -0.0406   -0.0714   -0.0349
          13    0.0572    0.0796   -0.1582   -0.2732   -0.0208    0.0007    0.0163   -0.0036
          14    0.1732   -0.0918   -0.0691    0.0553    0.0381    0.0004    0.0224    0.0006
          15   -0.1102   -0.0076   -0.1528    0.0864   -0.0104    0.0039   -0.0495   -0.1661
          16    0.0563    0.0798   -0.1527   -0.2688   -0.0176    0.0003    0.0286   -0.0135
          17    0.2745   -0.0781   -0.1567    0.0526    0.2034   -0.0054    0.3656   -0.0782
          18   -0.1674   -0.0066   -0.1806    0.0996   -0.0112    0.0041    0.0488    0.4749
          19   -0.0752    0.0192    0.0108   -0.0555   -0.0257    0.0002   -0.0218    0.0037
          20    0.1197   -0.1245   -0.0060    0.1602    0.0572    0.0006    0.0235   -0.0005
          21    0.0353   -0.0041   -0.0243    0.0238   -0.0138    0.0050   -0.0802   -0.2009
          22   -0.0765   -0.0124    0.1897    0.0577    0.0255   -0.0080    0.1477    0.2858
          23    0.0447   -0.1211   -0.2009    0.2112    0.0346    0.0102   -0.1684   -0.4505
          24    0.0795    0.0001    0.0401   -0.0282   -0.0085    0.0019   -0.0151   -0.0407
          25   -0.0780    0.0209    0.0017   -0.0561   -0.0270    0.0003   -0.0212   -0.0021
          26    0.0208   -0.2052    0.1937    0.5206    0.1872   -0.0033    0.1974    0.0098
          27    0.1005   -0.0059    0.0699   -0.0106    0.0066    0.0013   -0.0360   -0.1612
          28   -0.1967   -0.0181    0.0563    0.1758    0.0007    0.0023   -0.0433   -0.2947
          29    0.2659   -0.1095    0.0555   -0.0097    0.0859   -0.0032    0.1453    0.4054
          30    0.0859   -0.0076    0.0420   -0.0087    0.0118    0.0031   -0.0121   -0.0548
          31    0.0262    0.1011    0.0937    0.1069   -0.0662    0.0169   -0.0475    0.0148
          32   -0.0879   -0.0344    0.0620   -0.0133   -0.1649    0.0036   -0.0616    0.0401
          33    0.0536   -0.0493    0.1802   -0.1107    0.0904    0.0182    0.0264   -0.0279
          34    0.1506    0.1295    0.0750    0.2113   -0.1850   -0.0770   -0.2397    0.0647
          35   -0.1776   -0.0753    0.1183   -0.1352   -0.0485   -0.0378    0.1244   -0.0060
          36    0.0430   -0.0601    0.2240   -0.1581    0.1376   -0.0830    0.1036   -0.0490
          37   -0.1214   -0.0145    0.0164    0.0141    0.1338    0.0130   -0.0356   -0.0116
          38   -0.1539   -0.0714    0.0346   -0.0769   -0.0859    0.0003   -0.0299    0.0201
          39    0.0799    0.0373   -0.0056    0.0104   -0.1131    0.0015   -0.0223    0.0080
          40   -0.0830   -0.0407   -0.1108    0.0137    0.3076    0.0043    0.0030   -0.0373
          41   -0.0901   -0.1249    0.2315   -0.1555   -0.0222    0.1713   -0.2129    0.0607
          42    0.0409    0.0661   -0.0928    0.0469   -0.1766   -0.0888    0.0657   -0.0065
          43   -0.1472   -0.0279    0.0350    0.0071    0.1928    0.0003   -0.0628   -0.0169
          44   -0.2517   -0.1607   -0.1702   -0.1380    0.0334   -0.1848    0.0010    0.0462
          45    0.1724    0.0847   -0.0656    0.0418   -0.2632    0.0364    0.0561    0.0132
          46    0.0175   -0.1410   -0.0160   -0.0072   -0.0464    0.1126    0.0115   -0.0012
          47   -0.1698    0.0778    0.0205   -0.0407   -0.1235    0.0413    0.1058   -0.0372
          48    0.0156    0.0902   -0.0253    0.0213    0.0761    0.1308   -0.0345    0.0135
          49    0.0622   -0.0981   -0.0074    0.0026   -0.0519    0.1482    0.0198   -0.0025
          50   -0.0403    0.2761    0.0106   -0.0029   -0.0844    0.0564    0.1159   -0.0426
          51   -0.0399   -0.0159   -0.0004   -0.0018    0.0666    0.1745   -0.0381    0.0168
          52    0.0424   -0.1753    0.0021   -0.0115   -0.2087   -0.4112    0.1218   -0.0510
          53   -0.0089    0.4202   -0.0082    0.0199    0.1093    0.3565    0.0392   -0.0169
          54   -0.0365   -0.0063   -0.0023    0.0000    0.0915    0.2688   -0.0566    0.0259
          55    0.1730    0.0961   -0.0054    0.0462    0.2781    0.0988   -0.2690    0.0996
          56   -0.0493    0.2591    0.0200   -0.0102   -0.1277    0.0208    0.1646   -0.0628
          57   -0.0957   -0.1735    0.0274   -0.0392   -0.2045    0.0712    0.1830   -0.0652
          58    0.0243   -0.1753   -0.0125   -0.0090   -0.1894    0.4237    0.1220   -0.0306
          59    0.0314    0.4306    0.0206    0.0193    0.1516   -0.3340   -0.0353   -0.0046
          60   -0.0343   -0.0039   -0.0013    0.0027    0.1650   -0.2013   -0.1563    0.0549
          61   -0.2175   -0.1486   -0.0745   -0.0211    0.1741   -0.0697   -0.0804    0.0123
          62   -0.2206    0.0742   -0.0150   -0.0312   -0.1027   -0.0362    0.0641   -0.0225
          63   -0.0454    0.0712   -0.1217    0.0329   -0.1143   -0.0909    0.0308   -0.0023
          64    0.1628   -0.0982    0.0127    0.0087   -0.1593   -0.2012    0.0622   -0.0185
          65   -0.2494    0.0231    0.0572   -0.0685    0.1150   -0.0738   -0.0398   -0.0020
          66    0.0886    0.0841    0.0240    0.0143    0.1204   -0.2128   -0.0754    0.0186


   Root No.      17        18        19        20        21        22        23        24

                17 A      18 A      19 A      20 A      21 A      22 A      23 A      24 A   

                   0.6       0.7       0.8       0.9       0.9       1.0       1.1       1.2
  
           1    0.0095   -0.0591   -0.0196   -0.0664    0.0073    0.0187   -0.1587   -0.0390
           2   -0.0010    0.0164    0.0004   -0.0015    0.0277   -0.0140   -0.0352    0.0028
           3    0.0267   -0.0670    0.0348    0.0165   -0.1234    0.0887   -0.0763    0.1812
           4    0.0105   -0.0688   -0.0182   -0.0756    0.0093    0.0230   -0.2064   -0.0500
           5   -0.0516    0.1099   -0.3646    0.5488   -0.2781    0.0587    0.0909    0.0568
           6   -0.0771    0.1659   -0.0314   -0.0544    0.1268   -0.0664    0.0443   -0.1116
           7    0.0047   -0.0657    0.0182   -0.0577    0.0508   -0.0060   -0.1315    0.0173
           8    0.0026   -0.0047   -0.0086   -0.0506    0.0707   -0.0333   -0.0367    0.0233
           9   -0.0199   -0.0317    0.0496   -0.0275   -0.1170    0.0996   -0.0864    0.1435
          10    0.2441   -0.1890   -0.0615    0.3499   -0.1597   -0.0609    0.1410   -0.1001
          11   -0.0309    0.3671   -0.0513   -0.3205    0.3829   -0.0995   -0.0771   -0.0667
          12    0.0990    0.2691   -0.0375   -0.0273    0.0053    0.0339    0.0674    0.0158
          13    0.0055   -0.0298   -0.0179   -0.0180    0.0057    0.0075   -0.1284   -0.0349
          14   -0.0002   -0.0106    0.0294   -0.0109    0.0111   -0.0033   -0.0445   -0.0010
          15    0.0084   -0.0188    0.0010    0.0017   -0.0315    0.0284   -0.0279    0.0994
          16    0.0072   -0.0388   -0.0219   -0.0302    0.0097    0.0094   -0.1643   -0.0420
          17    0.0116   -0.1222   -0.3690   -0.1714    0.0723   -0.0710    0.5402    0.0401
          18   -0.0524    0.0995   -0.0146   -0.0241    0.0523   -0.0344    0.0383   -0.0737
          19    0.0068   -0.0152    0.1096   -0.0106    0.0063   -0.0017   -0.0300   -0.0134
          20   -0.0013   -0.0071    0.1167    0.0236   -0.0172    0.0054   -0.0297   -0.0002
          21    0.0053   -0.0072   -0.0070   -0.0022    0.0097   -0.0044   -0.0008    0.0222
          22   -0.0010   -0.0078    0.0071   -0.0720    0.0251   -0.0235    0.3054    0.1225
          23    0.0115   -0.0413    0.4612    0.0959   -0.0621    0.0031    0.0850   -0.0276
          24    0.0009    0.0056   -0.1517   -0.0230    0.0253    0.0039   -0.1559    0.0036
          25    0.0085   -0.0208    0.1305   -0.0223    0.0127   -0.0072    0.0127   -0.0009
          26   -0.0189    0.0207   -0.3006    0.0997   -0.0897    0.0771   -0.4700   -0.0597
          27    0.0040   -0.0099   -0.0283    0.0003    0.0139   -0.0126   -0.0208   -0.1030
          28    0.0156   -0.0333   -0.0885   -0.0854    0.0769   -0.0582    0.2865   -0.0380
          29   -0.0118   -0.0080    0.5379    0.1069   -0.1154    0.0356    0.0536    0.0073
          30    0.0025   -0.0146    0.1819    0.0206   -0.0249   -0.0086    0.1995    0.0214
          31   -0.1196   -0.0688   -0.0083    0.0008    0.0685   -0.0221   -0.0654    0.0040
          32    0.0087   -0.1617   -0.0189    0.0091    0.0843   -0.0259   -0.0268    0.0556
          33   -0.1695    0.0105    0.0210   -0.0248   -0.1013    0.0654   -0.0146    0.0869
          34    0.2774    0.2080   -0.0681   -0.1963   -0.2468    0.0847    0.0562    0.1089
          35    0.2098   -0.1915    0.0196    0.3001    0.4993   -0.2272   -0.0590   -0.2190
          36    0.2728    0.1762    0.0254    0.1323    0.0465   -0.0248    0.0501   -0.0921
          37   -0.1835    0.0358    0.0034    0.0402    0.0138   -0.0140   -0.0037   -0.0071
          38   -0.0199   -0.1160   -0.0151   -0.0209    0.0372   -0.0094   -0.0080    0.0653
          39   -0.1430   -0.1021   -0.0117   -0.0212   -0.0215    0.0216    0.0123    0.0141
          40    0.0106    0.3082    0.0415    0.1584   -0.0072   -0.1803    0.0301    0.0403
          41   -0.3595   -0.3568   -0.0624   -0.2653   -0.2727   -0.1286    0.0321   -0.1443
          42    0.0030   -0.0416    0.0052    0.0778    0.1349    0.1022   -0.0141    0.1160
          43   -0.2564    0.0809    0.0099    0.0586   -0.0223   -0.0669    0.0005    0.0302
          44    0.5556   -0.0991   -0.0162   -0.3453   -0.2947   -0.0266   -0.0860   -0.0460
          45   -0.0115   -0.1933   -0.0251   -0.0332    0.1116    0.1835    0.0035   -0.0733
          46    0.0122    0.0035   -0.0020   -0.0037    0.0057   -0.0248   -0.0050    0.0533
          47   -0.0448    0.1010    0.0041    0.0043    0.0451    0.0763   -0.0032    0.2144
          48    0.0329   -0.0347   -0.0002    0.0029   -0.0211   -0.0130    0.0145   -0.1467
          49    0.0350    0.0165   -0.0003    0.0002    0.0095   -0.0065   -0.0058    0.0565
          50   -0.0400    0.1195    0.0109    0.0080   -0.0224   -0.0359   -0.0091    0.1679
          51    0.0636   -0.0291   -0.0024   -0.0048   -0.0033    0.0106    0.0063   -0.1072
          52   -0.1634    0.0993    0.0087    0.0017   -0.0308    0.2855    0.0707   -0.3467
          53    0.0667    0.1039    0.0124   -0.0132   -0.1165   -0.0491    0.0133   -0.3183
          54    0.0996   -0.0477   -0.0042   -0.0061    0.0013   -0.0586   -0.0095   -0.0477
          55    0.1387   -0.2456   -0.0269    0.0217    0.2055    0.2525    0.0127    0.1027
          56   -0.0772    0.1727    0.0165    0.0048   -0.0626   -0.0685   -0.0106    0.1727
          57   -0.0651    0.1681    0.0175   -0.0222   -0.1607   -0.1809   -0.0084   -0.1674
          58    0.0736    0.1074    0.0059    0.0055    0.0280    0.1202    0.0089    0.1063
          59   -0.1029    0.0064    0.0048   -0.0046   -0.0863   -0.1421   -0.0026   -0.1286
          60    0.0242   -0.1684   -0.0156    0.0059    0.0772   -0.2418   -0.0667    0.4418
          61   -0.0760   -0.0205   -0.0044   -0.0039   -0.0319    0.0015    0.0329   -0.1353
          62   -0.0621    0.0443   -0.0016    0.0122    0.0704    0.0767    0.0065    0.1566
          63   -0.0726   -0.0718   -0.0049    0.0128    0.0131   -0.0596    0.0238   -0.0613
          64   -0.0600    0.0036    0.0026    0.0053   -0.0362   -0.3306   -0.0582    0.1653
          65   -0.0443    0.0568   -0.0056   -0.0089    0.1168    0.6015    0.0770    0.0485
          66   -0.0316   -0.0572   -0.0019    0.0002   -0.0133    0.0671    0.0213   -0.1622


   Root No.      25        26        27        28        29        30        31        32

                25 A      26 A      27 A      28 A      29 A      30 A      31 A      32 A   

                   1.3       1.4       1.4       1.6       1.7       1.8       2.1       2.3
  
           1   -0.0649    0.0627    0.0036   -0.0673   -0.0739    0.1325    0.0176   -0.0255
           2    0.0542   -0.0666   -0.0131    0.1232    0.0242   -0.0763    0.0742   -0.1815
           3    0.1049   -0.2001   -0.1032    0.1786   -0.2758   -0.1453   -0.1467    0.2692
           4   -0.0804    0.0797    0.0066   -0.0910   -0.1115    0.1996    0.0349   -0.0533
           5    0.0324    0.0252    0.0678   -0.1210   -0.1946    0.0221    0.0752    0.1432
           6   -0.0610    0.1239    0.0713   -0.0751    0.1127    0.0542    0.0546   -0.0853
           7    0.1074   -0.0606    0.0618    0.0342   -0.2361   -0.0187    0.2068    0.0463
           8    0.1361   -0.1232    0.0175    0.1848   -0.0691   -0.0921    0.1429   -0.1925
           9    0.0851   -0.0446    0.0642    0.1415   -0.1822   -0.0851    0.0942   -0.0814
          10   -0.0277    0.0120   -0.0235    0.0415    0.1868   -0.0031    0.0991   -0.1669
          11    0.0414   -0.0659   -0.0335   -0.0653   -0.1234    0.0290    0.0280    0.1050
          12   -0.1368    0.0944   -0.0469   -0.1261    0.0625    0.0508   -0.2250    0.1518
          13   -0.0433    0.0319   -0.0121    0.0153    0.0775    0.0528   -0.1201   -0.0917
          14    0.0312   -0.0366   -0.0025    0.0752   -0.0307   -0.0470    0.1410   -0.1333
          15    0.0914   -0.2355   -0.1896   -0.0694   -0.0654   -0.0156   -0.0886    0.2009
          16   -0.0537    0.0342   -0.0224    0.0209    0.1116    0.0773   -0.1986   -0.1595
          17    0.0063   -0.0107   -0.0204    0.0066    0.1931   -0.1055   -0.0998    0.1148
          18   -0.0591    0.1400    0.1060    0.0301    0.0412    0.0064    0.0270   -0.0645
          19   -0.0098   -0.0139   -0.0320    0.0702    0.2425   -0.1941   -0.0178    0.1475
          20    0.0179   -0.0338   -0.0177    0.0724    0.0727   -0.1436    0.1544   -0.0151
          21    0.0468   -0.1504   -0.1482   -0.1762    0.1155    0.0754    0.0578   -0.1044
          22    0.1342   -0.2504   -0.1673   -0.2060   -0.1674    0.1762    0.0785   -0.1363
          23   -0.0554    0.0392   -0.0322   -0.1924    0.0986    0.1162   -0.0072   -0.0650
          24    0.0547   -0.1524   -0.1311    0.0220    0.2717   -0.1930    0.1816   -0.0283
          25    0.0075   -0.0606   -0.0749    0.0506    0.3326   -0.2529   -0.0016    0.2163
          26   -0.1020    0.0657   -0.0384   -0.1012    0.0478    0.1373   -0.1683    0.0031
          27   -0.1244    0.3499    0.3140    0.2977   -0.0803   -0.1376   -0.0469    0.1073
          28   -0.0342    0.2252    0.2576    0.1843   -0.2439   -0.0085    0.0610   -0.0354
          29   -0.0637    0.0998    0.0563    0.0485   -0.0412   -0.0610   -0.1039    0.1960
          30   -0.0135    0.0327    0.0181   -0.1915   -0.2078    0.3003   -0.1135   -0.1257
          31    0.1519   -0.0215    0.1401   -0.0828   -0.0952    0.0091    0.1450    0.0779
          32    0.1183   -0.0784    0.0438    0.1223   -0.0697   -0.0054   -0.1551   -0.0140
          33    0.1407   -0.0060    0.1509    0.0178    0.0265   -0.0531    0.1777   -0.1799
          34   -0.0819   -0.0030   -0.0830    0.0633   -0.0450    0.0028   -0.2416    0.1169
          35    0.0324   -0.0490   -0.0292   -0.0373   -0.0772    0.0685   -0.0586    0.1741
          36   -0.1169    0.0619   -0.0576   -0.0517    0.1249   -0.0074    0.1669   -0.1496
          37    0.0713    0.0484    0.1034   -0.2378    0.0274   -0.0895    0.0461    0.1705
          38    0.0520   -0.0144    0.0328    0.0426    0.0158    0.0005   -0.1980   -0.0337
          39    0.1224   -0.0095    0.0986    0.0483    0.1534    0.1407   -0.1013   -0.0792
          40   -0.0126   -0.1277   -0.1396    0.4019    0.0029    0.1521   -0.0598   -0.1225
          41   -0.1620    0.0350   -0.1312    0.0693    0.0989    0.2049   -0.0352    0.0180
          42    0.2739   -0.0148    0.2342   -0.0220    0.1630    0.0680   -0.2734   -0.1113
          43    0.2153    0.0199    0.2024   -0.1885    0.1502    0.0099   -0.0163    0.1893
          44    0.1504    0.0469    0.1888   -0.1338    0.0310    0.0848    0.1722    0.0708
          45   -0.2425    0.1077   -0.1267   -0.2814   -0.1598   -0.2512    0.1104    0.1009
          46   -0.1466   -0.0707    0.0492   -0.0720   -0.0543   -0.1649   -0.0889   -0.1671
          47   -0.1253    0.0246    0.0154    0.0068    0.0211    0.0241   -0.0632   -0.0068
          48   -0.0893   -0.1551    0.0453    0.0843    0.0098    0.1257    0.1193    0.1388
          49   -0.1333   -0.1123    0.1223   -0.0653   -0.0093   -0.0994   -0.0388   -0.1216
          50   -0.1085    0.0037    0.0446    0.0247    0.0823    0.1415    0.1903    0.1306
          51   -0.0820   -0.1922    0.1338    0.0245   -0.0023    0.0422   -0.0405    0.0654
          52    0.0697   -0.1146   -0.0126    0.1258    0.0161    0.1462    0.0236    0.1157
          53    0.3054    0.1258   -0.1520   -0.0567   -0.1013   -0.1720   -0.1587   -0.1058
          54   -0.1319   -0.2224    0.1771   -0.0050   -0.0132    0.0056   -0.0814    0.0518
          55    0.2092    0.2569   -0.2174    0.1040    0.0237    0.1124   -0.0206    0.0583
          56    0.0257    0.1852   -0.0957    0.0109    0.0864    0.1399    0.2924    0.1641
          57    0.3029    0.2526   -0.2266   -0.0667   -0.0797   -0.1649   -0.0920   -0.1215
          58   -0.1136   -0.0660    0.1008    0.0181    0.0745    0.0888    0.1340    0.0196
          59   -0.2122   -0.2867    0.2148   -0.1126   -0.0680   -0.1920   -0.1125   -0.1453
          60   -0.0787    0.2021   -0.0697   -0.0773    0.0121   -0.0704    0.0457   -0.0699
          61   -0.1909    0.0447   -0.2377   -0.0624   -0.1749   -0.2495    0.0860   -0.0417
          62   -0.1314    0.0545   -0.1089    0.0808   -0.0212    0.0473   -0.0718    0.0071
          63   -0.1998    0.0175   -0.2825    0.2297   -0.0621    0.1301    0.0524   -0.0111
          64    0.0266    0.0857   -0.0251   -0.0570   -0.0341   -0.0790   -0.1288   -0.0369
          65   -0.0430    0.0596   -0.0068   -0.0479    0.0242   -0.1212   -0.0384   -0.2337
          66    0.1129    0.0003   -0.0316    0.0678    0.0353    0.1245    0.1214    0.1258


   Root No.      33        34        35        36        37        38        39        40

                33 A      34 A      35 A      36 A      37 A      38 A      39 A      40 A   

                   2.4       2.5       2.7       3.1       3.4       3.6       3.9       4.1
  
           1   -0.0375    0.2097   -0.0464    0.0454    0.0195   -0.0015    0.0277    0.0486
           2    0.1631    0.0200    0.1246   -0.1642    0.0704    0.0026   -0.0268    0.0441
           3    0.2869    0.0258    0.0183   -0.0439   -0.2555    0.0277    0.5338   -0.0143
           4   -0.0758    0.3961   -0.1008    0.1137    0.0478   -0.0079    0.0870    0.3419
           5   -0.1482    0.0307   -0.0750    0.0894   -0.0719   -0.0008   -0.0262   -0.0284
           6   -0.0887   -0.0071   -0.0046    0.0143    0.0622   -0.0057   -0.1182    0.0027
           7   -0.1605   -0.1048   -0.0594    0.1066   -0.2965   -0.0029   -0.2969   -0.1670
           8    0.1191   -0.1210    0.0974   -0.0521   -0.1203   -0.0027   -0.1406    0.1211
           9   -0.2237   -0.0983   -0.0195   -0.1665   -0.2110   -0.0037   -0.3876   -0.0205
          10    0.2114   -0.0159    0.1091    0.1239   -0.0099   -0.0017    0.0997    0.1140
          11    0.1460   -0.0708    0.0034    0.2279   -0.1435    0.0014    0.1402    0.0853
          12   -0.1443    0.1098   -0.0890   -0.1728    0.2011    0.0045    0.0222   -0.1107
          13    0.1136   -0.1718    0.0675   -0.0814    0.0337    0.0024    0.0051   -0.0367
          14    0.0690    0.2292    0.0656   -0.1312    0.0854    0.0031    0.0106    0.0012
          15    0.2801    0.0300    0.0366    0.3496    0.4393   -0.0323   -0.4363    0.0164
          16    0.2132   -0.3383    0.1475   -0.2063    0.1179    0.0070   -0.0196   -0.3100
          17   -0.0452   -0.1774   -0.0255    0.0492   -0.0387   -0.0009   -0.0079    0.0073
          18   -0.0810   -0.0136   -0.0076   -0.0905   -0.1044    0.0081    0.1032   -0.0080
          19   -0.0925   -0.0716   -0.0522    0.0831   -0.0658   -0.0020   -0.0091    0.0633
          20   -0.0152    0.2829    0.0218   -0.1021    0.1278    0.0038    0.0222   -0.1466
          21   -0.1194   -0.0089   -0.0108   -0.0706   -0.0610    0.0038    0.0330   -0.0025
          22    0.0209    0.1045    0.0307   -0.0788    0.0446    0.0029    0.0199   -0.0780
          23   -0.1699   -0.0650   -0.0338   -0.0955   -0.1090    0.0084    0.1033   -0.0807
          24   -0.1574    0.2265   -0.0158   -0.1420    0.0187    0.0094    0.1054   -0.2106
          25   -0.1843   -0.0941   -0.1053    0.1683   -0.1742   -0.0054   -0.0214    0.2665
          26    0.0308   -0.2122   -0.0006    0.0347   -0.0427   -0.0011   -0.0098    0.0440
          27    0.0688   -0.0008   -0.0023    0.0576    0.0249   -0.0023   -0.0249    0.0221
          28    0.0887    0.1555    0.0347   -0.0424    0.1018    0.0007   -0.0018   -0.1058
          29    0.0849    0.0001   -0.0154    0.1314    0.1378   -0.0070   -0.0749   -0.0902
          30    0.0077   -0.2379    0.0065   -0.0139   -0.1654    0.0018    0.0231    0.1829
          31   -0.2200   -0.2093   -0.0660    0.2023    0.2780   -0.0071    0.2644   -0.1199
          32   -0.1596   -0.0911   -0.1002   -0.1720    0.2199   -0.0047    0.0719    0.1526
          33   -0.1402   -0.2293    0.0616    0.1092    0.3491   -0.0129    0.2439    0.1157
          34   -0.0756    0.0685   -0.1063   -0.2149   -0.0006    0.0058   -0.0822   -0.0351
          35   -0.0353    0.0183   -0.1842   -0.0884   -0.0029    0.0079   -0.0338   -0.1514
          36    0.1999    0.0518    0.1853    0.1810   -0.1571   -0.0029   -0.0283    0.0788
          37    0.0935    0.0243    0.1520   -0.1237   -0.0221    0.0103   -0.0201    0.0075
          38   -0.0529    0.0475    0.0092   -0.1832    0.0650   -0.0030   -0.0581    0.2585
          39    0.0883    0.1016   -0.1296    0.1399   -0.0894    0.0070    0.0072   -0.1090
          40   -0.0875   -0.0234   -0.0949    0.0647    0.0334   -0.0071    0.0192    0.0092
          41    0.0796    0.1275   -0.0870    0.1104   -0.1348   -0.0048   -0.0461   -0.0489
          42    0.0820    0.1639   -0.1727    0.0046   -0.0916   -0.0092   -0.0838    0.1542
          43    0.1980    0.1139    0.1848   -0.1399   -0.1479    0.0136   -0.0621   -0.1419
          44   -0.0366   -0.0593    0.0211    0.1091    0.0218    0.0045    0.0500   -0.0976
          45    0.0305   -0.0427    0.1296   -0.1094    0.0037   -0.0078   -0.0116    0.0011
          46    0.0028    0.0136   -0.0917    0.0934    0.0012    0.5318   -0.0111    0.0185
          47   -0.1378    0.0584    0.3322    0.1176   -0.0284    0.2154    0.0026   -0.0271
          48    0.0230   -0.0533   -0.0386   -0.0919    0.0502    0.5996   -0.0226    0.0211
          49    0.0563    0.0036   -0.1784    0.0576   -0.0190   -0.0613    0.0136   -0.0866
          50    0.0755   -0.0458   -0.0221   -0.0811    0.0172   -0.0244   -0.0083    0.0537
          51   -0.0711    0.0184    0.1671   -0.0284    0.0043   -0.0707   -0.0070    0.0556
          52   -0.0581    0.0006    0.1413   -0.0355    0.0118    0.0671   -0.0092    0.0562
          53   -0.0553    0.0326    0.0325    0.0467   -0.0108   -0.0298    0.0047   -0.0181
          54   -0.1049    0.0355    0.2620   -0.0297   -0.0006   -0.3055   -0.0114    0.1723
          55   -0.0844    0.0226    0.1658    0.0207   -0.0045    0.0437    0.0004   -0.0041
          56    0.1641   -0.0931   -0.1501   -0.1768    0.0500    0.0248   -0.0309    0.2108
          57    0.0069    0.0129   -0.0913    0.0552   -0.0113    0.0523    0.0094   -0.0759
          58    0.1189   -0.0398   -0.2321   -0.0164   -0.0107   -0.2935    0.0248   -0.1540
          59    0.0198    0.0166   -0.1247    0.0579   -0.0180   -0.0690    0.0154   -0.1052
          60    0.0733   -0.0167   -0.1490    0.0200   -0.0031    0.0471    0.0051   -0.0477
          61    0.0678   -0.0996   -0.1270   -0.1987    0.0846   -0.1255   -0.0323    0.2814
          62   -0.1756    0.0504    0.3163    0.1174   -0.0282   -0.0537    0.0231   -0.1056
          63   -0.0940   -0.0176   -0.0080    0.1493   -0.0273   -0.1252    0.0465   -0.2158
          64   -0.1085    0.0556    0.2269    0.0583   -0.0230   -0.1695    0.0040    0.0321
          65    0.0795    0.0216   -0.2054    0.1550   -0.0463   -0.0701    0.0193   -0.0788
          66    0.0772   -0.0499   -0.1283   -0.1212    0.0242   -0.1832   -0.0010   -0.0079


   Root No.      41        42        43        44        45        46        47        48

                41 A      42 A      43 A      44 A      45 A      46 A      47 A      48 A   

                   4.6       5.4       6.1       7.6       8.0       8.5       8.8       8.8
  
           1    0.0020   -0.0048   -0.1026    0.1161   -0.1585    0.4722    0.0391    0.0888
           2   -0.1701   -0.2233   -0.1657   -0.1905   -0.1749   -0.0644   -0.0171   -0.0385
           3    0.0479   -0.0072   -0.0460   -0.0063   -0.0221   -0.0481    0.0249    0.0030
           4   -0.1711    0.0397    0.2511   -0.1148    0.1940   -0.4115   -0.0326   -0.0730
           5    0.0499    0.0370    0.0038    0.0392    0.0285   -0.0148    0.0005    0.0076
           6   -0.0091    0.0008    0.0065    0.0000    0.0041    0.0082   -0.0083   -0.0010
           7    0.1607    0.0494   -0.1319    0.1056   -0.1562   -0.1521    0.0181    0.1304
           8   -0.1360   -0.0751    0.0769   -0.2034   -0.1129   -0.3548   -0.0031    0.0523
           9   -0.0258    0.0466    0.1491   -0.0338    0.1951    0.2117   -0.0064   -0.1465
          10   -0.0070    0.0732    0.1008   -0.0012    0.1230    0.1609   -0.0052   -0.0764
          11    0.0854    0.1710    0.1430    0.0671    0.1677    0.2241   -0.0034   -0.0803
          12   -0.0407   -0.1451   -0.1570   -0.0229   -0.1811   -0.2228    0.0051    0.1033
          13   -0.0064   -0.0178    0.0156   -0.2346   -0.3636    0.2627    0.0212    0.0062
          14   -0.1069   -0.2073   -0.2882    0.1041   -0.0089    0.1095   -0.0002    0.0136
          15   -0.0272   -0.0007    0.0102   -0.0023    0.0027    0.0195   -0.0994    0.0159
          16    0.1750    0.0707   -0.0213    0.2612    0.3798   -0.2445   -0.0152   -0.0075
          17    0.0126    0.0310    0.0505   -0.0332   -0.0075   -0.0300   -0.0023   -0.0092
          18    0.0084    0.0004   -0.0037    0.0030    0.0027   -0.0081    0.0169   -0.0026
          19   -0.0216    0.0173    0.0696   -0.1939   -0.2320    0.0647   -0.0166   -0.0770
          20    0.0516   -0.0648   -0.2045    0.2858    0.2287    0.1002   -0.0092   -0.0430
          21    0.0009   -0.0016   -0.0063    0.0114   -0.0060   -0.0389    0.7841   -0.1480
          22    0.0552    0.0445    0.0426   -0.0165   -0.0056   -0.0022   -0.0918    0.0268
          23    0.1014    0.1194    0.1427   -0.0787   -0.0419   -0.0199   -0.1813    0.0466
          24    0.1945    0.1912    0.2048   -0.1004   -0.0486   -0.0187   -0.3718    0.0897
          25   -0.1998   -0.1806   -0.2064    0.2159    0.2281   -0.0586   -0.0273    0.0565
          26   -0.0223   -0.0027    0.0152   -0.0309   -0.0325    0.0073    0.0013    0.0052
          27   -0.0165   -0.0137   -0.0151    0.0146    0.0167   -0.0027   -0.0423    0.0112
          28    0.0808    0.0708    0.0687   -0.0235   -0.0097   -0.0252    0.1303   -0.0097
          29    0.1120    0.1393    0.1615   -0.0772   -0.0426   -0.0527    0.1971   -0.0181
          30   -0.1700   -0.1725   -0.1810    0.0761    0.0411    0.0606   -0.3140    0.0350
          31    0.0990   -0.0404   -0.1885    0.0744   -0.1602   -0.1293    0.0049    0.1095
          32   -0.1327    0.0776    0.1944    0.2179   -0.1064   -0.0423    0.0297    0.1969
          33   -0.0642   -0.0247    0.0783   -0.1566    0.1876    0.1627   -0.0156   -0.1616
          34   -0.0426   -0.0805    0.0475   -0.1174    0.1277    0.0905   -0.0110   -0.1051
          35    0.0001   -0.2050    0.0102   -0.2218    0.1733    0.0862   -0.0127   -0.1213
          36    0.0454    0.1653   -0.0431    0.1989   -0.1878   -0.1268    0.0154    0.1435
          37   -0.0257    0.1156   -0.1913   -0.0868   -0.0281   -0.1014   -0.0749   -0.3966
          38   -0.0713    0.3215    0.0965    0.3711   -0.1709    0.0798    0.0123    0.0251
          39    0.0502   -0.2246    0.1334   -0.0718    0.1068    0.0083    0.0512    0.1951
          40    0.0270    0.0024   -0.0072    0.0021   -0.0024    0.0031    0.0007    0.0098
          41    0.1325    0.0263   -0.1519   -0.0646   -0.0018   -0.0215   -0.0145   -0.0474
          42    0.2686    0.1916   -0.2955   -0.0976   -0.0044   -0.0240   -0.0256   -0.0858
          43   -0.2779   -0.1792    0.3180    0.1180   -0.0102    0.0659    0.0354    0.1966
          44   -0.0075   -0.0571   -0.0075   -0.0166    0.0017   -0.0085   -0.0019   -0.0055
          45   -0.0891   -0.0207    0.0794    0.0310   -0.0027    0.0214    0.0089    0.0534
          46    0.1336   -0.1813    0.1004    0.0701   -0.0405   -0.0039    0.0036    0.0211
          47   -0.0060    0.0611   -0.1084   -0.1864    0.1334    0.0356    0.0211    0.0766
          48   -0.1125    0.1478   -0.0536    0.0043   -0.0124   -0.0088   -0.0092   -0.0508
          49   -0.0602   -0.0479    0.0724    0.1625   -0.1386   -0.0398   -0.0639   -0.2645
          50    0.0344    0.0246   -0.0456   -0.1371    0.1311    0.0612    0.0859    0.4538
          51    0.0407    0.0348   -0.0487   -0.0957    0.0775    0.0104    0.0169    0.1116
          52    0.0647   -0.0310    0.0093    0.0021   -0.0003    0.0013    0.0025    0.0062
          53   -0.0046   -0.0070    0.0041    0.0066   -0.0063   -0.0028   -0.0043   -0.0223
          54    0.3258   -0.2612    0.1170    0.0905   -0.0629   -0.0078   -0.0084   -0.0600
          55   -0.0129    0.0259   -0.0236   -0.0329    0.0251    0.0074    0.0089    0.0399
          56    0.2985   -0.2204    0.1198    0.1401   -0.1138   -0.0447   -0.0556   -0.2778
          57   -0.1029    0.0615   -0.0248   -0.0239    0.0208    0.0105    0.0136    0.0679
          58   -0.2883    0.2329   -0.1049   -0.0824    0.0572    0.0094    0.0144    0.0334
          59   -0.1548    0.1063   -0.0451   -0.0299    0.0183    0.0008    0.0013   -0.0135
          60   -0.0657    0.0378   -0.0130   -0.0062    0.0036    0.0003    0.0009   -0.0036
          61    0.2084    0.0939   -0.1144   -0.1676    0.1270    0.0235    0.0458    0.2197
          62   -0.1521    0.1435   -0.0925    0.0142   -0.0549   -0.0539   -0.0476   -0.2240
          63   -0.1295   -0.1411    0.1381    0.1449   -0.0937    0.0018   -0.0227   -0.1036
          64    0.1072   -0.0729   -0.0039   -0.0567    0.0440    0.0067    0.0137    0.0651
          65    0.0860   -0.1960    0.0909    0.0241   -0.0072    0.0053    0.0042    0.0230
          66   -0.1291    0.1354   -0.0288    0.0428   -0.0369   -0.0087   -0.0144   -0.0661


   Root No.      49        50        51        52        53        54        55        56

                49 A      50 A      51 A      52 A      53 A      54 A      55 A      56 A   

                   8.9       9.0       9.0       9.1      10.5      11.2      11.8      12.1
  
           1   -0.0031    0.0130   -0.1611   -0.0217    0.0613   -0.1075   -0.2874   -0.0373
           2    0.0019   -0.0110   -0.0572    0.0370   -0.0455    0.0788    0.0238    0.0779
           3   -0.0012    0.0074   -0.0006    0.0008   -0.0124   -0.0301    0.0107   -0.0159
           4    0.0026   -0.0121    0.1208    0.0164   -0.0331    0.0412    0.1063    0.0128
           5   -0.0003    0.0004    0.0106   -0.0042   -0.0001   -0.0140   -0.0172   -0.0026
           6   -0.0001   -0.0008    0.0004    0.0003    0.0013    0.0041   -0.0011    0.0022
           7   -0.0088    0.0299    0.0276   -0.0349   -0.0180   -0.0987    0.0789   -0.0348
           8   -0.0011   -0.0133   -0.0513    0.0125   -0.0177   -0.1989   -0.0280   -0.1516
           9    0.0038    0.0058    0.0108    0.0248    0.0210    0.1763   -0.0114    0.0852
          10    0.0038   -0.0080    0.0010    0.0134   -0.0003    0.0349   -0.0105    0.0159
          11    0.0030   -0.0002    0.0193    0.0070    0.0107    0.0829   -0.0034    0.0432
          12   -0.0035   -0.0029   -0.0112   -0.0141   -0.0036   -0.0665    0.0041   -0.0311
          13   -0.0011    0.0113   -0.0871    0.0081    0.0194    0.1659    0.5275   -0.0363
          14   -0.0004    0.0002   -0.0731    0.0080   -0.0130   -0.0522   -0.3931    0.0906
          15   -0.0014    0.0007   -0.0023   -0.0002    0.0009    0.0024   -0.0034    0.0023
          16    0.0011   -0.0119    0.0524   -0.0019   -0.0102   -0.0665   -0.1876    0.0098
          17   -0.0000    0.0024    0.0387   -0.0036   -0.0027    0.0022    0.0120   -0.0009
          18    0.0002   -0.0000    0.0018   -0.0001   -0.0007   -0.0022   -0.0024   -0.0008
          19   -0.0058    0.0796    0.6432   -0.1115   -0.0106   -0.0967   -0.3313    0.0368
          20   -0.0047    0.0570    0.4175   -0.0864    0.0368    0.0856    0.4793   -0.0868
          21    0.0135   -0.0114    0.0087    0.0039    0.0018    0.0062   -0.0047    0.0031
          22   -0.0009   -0.0083   -0.0780    0.0135   -0.0007    0.0033    0.0045    0.0004
          23   -0.0019   -0.0128   -0.1123    0.0209   -0.0039   -0.0057   -0.0297    0.0042
          24   -0.0045   -0.0178   -0.1749    0.0311   -0.0053   -0.0051   -0.0300    0.0050
          25    0.0031   -0.0504   -0.3990    0.0685    0.0031    0.0325    0.0986   -0.0091
          26    0.0003   -0.0046   -0.0436    0.0079   -0.0005    0.0040    0.0040    0.0011
          27   -0.0006   -0.0028   -0.0265    0.0044    0.0002    0.0023    0.0086   -0.0008
          28    0.0033   -0.0172   -0.1192    0.0228   -0.0015    0.0052    0.0002    0.0024
          29    0.0050   -0.0242   -0.1542    0.0312   -0.0045   -0.0045   -0.0348    0.0058
          30   -0.0073    0.0309    0.1949   -0.0392    0.0046    0.0005    0.0306   -0.0072
          31    0.0052   -0.0485    0.0262   -0.0199   -0.0124   -0.0181    0.0505    0.0130
          32   -0.0042   -0.0011    0.0290   -0.0748    0.2160    0.4865   -0.1104    0.3309
          33    0.0191   -0.0857   -0.0203    0.0557   -0.0754   -0.1801   -0.0054   -0.1430
          34    0.0029   -0.0016   -0.0134    0.0293   -0.0342   -0.0541    0.0015   -0.0441
          35    0.0050   -0.0109   -0.0217    0.0307   -0.0326   -0.1133    0.0091   -0.0788
          36   -0.0089    0.0288    0.0190   -0.0410    0.0447    0.0968   -0.0027    0.0728
          37   -0.0644    0.4606   -0.0876    0.1440   -0.2090    0.2619   -0.0723    0.1558
          38   -0.0394    0.2370   -0.0167    0.0266   -0.3159   -0.4250    0.1164   -0.1812
          39   -0.0950    0.5880   -0.0769   -0.1996    0.3138   -0.0745    0.0107   -0.0660
          40    0.0102   -0.0670    0.0102    0.0047   -0.0067    0.0010    0.0011    0.0091
          41    0.0298   -0.1843    0.0218    0.0405   -0.0207    0.0446   -0.0081    0.0262
          42    0.0567   -0.3632    0.0440    0.0789   -0.0336    0.0627   -0.0135    0.0191
          43    0.0492   -0.3494    0.0612   -0.0436    0.0319   -0.0685    0.0185   -0.0247
          44    0.0021   -0.0162    0.0018    0.0028   -0.0020    0.0122   -0.0011    0.0113
          45    0.0226   -0.1430    0.0230   -0.0072    0.0131   -0.0188    0.0037   -0.0213
          46   -0.0962   -0.0198    0.0071   -0.0112   -0.2064    0.1861   -0.0649   -0.2151
          47   -0.0402   -0.0110   -0.0110   -0.0789    0.0880   -0.3308    0.1369    0.5563
          48   -0.1052   -0.0354    0.0011    0.0329    0.1575   -0.0446    0.0074   -0.0156
          49    0.5119    0.0592    0.0116    0.3159    0.3480   -0.1963    0.0551    0.1567
          50    0.1589    0.1389    0.1407    0.5332   -0.1337    0.1494   -0.0481   -0.1514
          51    0.5815    0.0701   -0.0623   -0.4441   -0.2613    0.1197   -0.0312   -0.0831
          52   -0.0924   -0.0111    0.0056    0.0241    0.0032    0.0016   -0.0008   -0.0034
          53   -0.0019   -0.0061   -0.0067   -0.0246    0.0020   -0.0072    0.0027    0.0111
          54   -0.4005   -0.0484    0.0357    0.2386    0.0879   -0.0212    0.0031    0.0022
          55   -0.0281    0.0019    0.0052    0.0034   -0.0148   -0.0014    0.0019    0.0115
          56    0.0251   -0.0659   -0.0867   -0.3348    0.0306   -0.0273    0.0068    0.0141
          57   -0.0398    0.0145    0.0284    0.1232    0.0021    0.0112   -0.0041   -0.0150
          58   -0.3379   -0.0637   -0.0308   -0.2328   -0.0811    0.0224   -0.0040   -0.0067
          59   -0.1751   -0.0388   -0.0225   -0.1376   -0.0340    0.0017    0.0014    0.0097
          60   -0.0938   -0.0167   -0.0037   -0.0257   -0.0057    0.0017   -0.0004   -0.0008
          61    0.0153    0.0006    0.0119   -0.0899    0.2460   -0.0997    0.0270    0.0085
          62    0.0271   -0.0464   -0.0285   -0.0304    0.3899    0.1697   -0.1049   -0.5312
          63    0.0295   -0.0257    0.0076    0.0955   -0.3680    0.0259    0.0158    0.1931
          64    0.0301    0.0129   -0.0081   -0.0968   -0.0740    0.0516   -0.0128   -0.0209
          65    0.0110    0.0109    0.0063    0.0172   -0.1470    0.0613   -0.0136    0.0023
          66    0.0350    0.0076    0.0032    0.0813    0.1173   -0.0668    0.0158    0.0157


   Root No.      57        58        59        60

                57 A      58 A      59 A      60 A   

                  12.6      22.9      23.3      25.1
  
           1    0.4041   -0.3263    0.1187   -0.0007
           2   -0.4217   -0.5091    0.3463   -0.0058
           3    0.0012   -0.0008    0.0129   -0.0005
           4   -0.1297    0.0370   -0.0257    0.0000
           5    0.0097    0.0075    0.0070   -0.0003
           6   -0.0035   -0.0026    0.0007   -0.0000
           7   -0.1076    0.2543    0.4708   -0.0125
           8    0.5659   -0.0385   -0.2315    0.0059
           9   -0.1335   -0.1993   -0.3408    0.0092
          10   -0.0459   -0.0148   -0.0155   -0.0007
          11   -0.0900   -0.0047   -0.0269    0.0006
          12    0.0823    0.0128    0.0226    0.0001
          13   -0.0177    0.3104   -0.1577    0.0019
          14   -0.2370    0.5413   -0.2762    0.0040
          15   -0.0016    0.0116   -0.0109    0.0002
          16    0.0039   -0.0402    0.0208   -0.0000
          17   -0.0076   -0.0022    0.0013   -0.0000
          18   -0.0007   -0.0004    0.0016    0.0001
          19   -0.0424    0.0142   -0.0076    0.0003
          20    0.2342   -0.0634    0.0241   -0.0011
          21   -0.0024   -0.0023   -0.0016    0.0000
          22   -0.0065    0.0035   -0.0012    0.0001
          23   -0.0140   -0.0079    0.0044    0.0000
          24   -0.0207   -0.0032    0.0027    0.0002
          25    0.0078   -0.0011    0.0003   -0.0001
          26   -0.0077    0.0058   -0.0027    0.0001
          27    0.0004   -0.0002    0.0002    0.0000
          28   -0.0124    0.0026   -0.0010    0.0001
          29   -0.0179   -0.0093    0.0054    0.0000
          30    0.0237    0.0031   -0.0021    0.0001
          31   -0.1652   -0.2741   -0.4546    0.0142
          32    0.1618    0.1032    0.1835   -0.0073
          33    0.0833    0.2063    0.3508   -0.0103
          34   -0.0003    0.0118    0.0176   -0.0001
          35    0.0099    0.0151    0.0220   -0.0012
          36   -0.0029   -0.0158   -0.0269    0.0005
          37    0.1872    0.0233    0.0360    0.0078
          38   -0.1942   -0.0347   -0.0496    0.0309
          39   -0.0884   -0.0119   -0.0122   -0.0188
          40    0.0026    0.0012    0.0017    0.0002
          41    0.0199   -0.0045   -0.0077    0.0006
          42    0.0332   -0.0002   -0.0018   -0.0021
          43   -0.0369    0.0025    0.0044    0.0017
          44    0.0022   -0.0034   -0.0063    0.0012
          45   -0.0120    0.0011    0.0016    0.0008
          46   -0.0030   -0.0011   -0.0106   -0.4702
          47    0.0483   -0.0039   -0.0070   -0.2294
          48   -0.0158    0.0026    0.0120    0.5039
          49   -0.0012   -0.0002    0.0011    0.0448
          50   -0.0069    0.0001   -0.0009   -0.0120
          51    0.0038    0.0001   -0.0006   -0.0351
          52   -0.0005    0.0000    0.0001    0.0042
          53    0.0015    0.0000    0.0000   -0.0058
          54   -0.0020   -0.0001   -0.0003   -0.0114
          55    0.0017   -0.0000   -0.0001   -0.0027
          56    0.0001    0.0000    0.0000   -0.0070
          57   -0.0014    0.0000    0.0001    0.0046
          58    0.0012    0.0001    0.0003    0.0131
          59    0.0023    0.0001    0.0001   -0.0022
          60    0.0001   -0.0000   -0.0001   -0.0018
          61   -0.0452   -0.0062   -0.0093    0.0005
          62   -0.0779    0.0049    0.0047   -0.0696
          63    0.0693    0.0034    0.0060    0.0227
          64    0.0059    0.0032    0.0115    0.3980
          65    0.0192    0.0036    0.0099    0.2982
          66   -0.0124   -0.0041   -0.0138   -0.4625


          FORCE CONSTANTS IN MILLIDYNES/ANGSTROM (= 10**5 DYNES/CM)

  -0.00803   0.00262   0.00506   0.00951   0.01039   0.01597   0.02273   0.05008
   0.06374   0.11367   0.17476   0.24622   0.47612   0.53922   0.60066   0.63663
   0.64944   0.67008   0.76589   0.86832   0.92858   1.04541   1.10254   1.24986
   1.33971   1.37123   1.40034   1.56207   1.66393   1.78985   2.09618   2.25888
   2.38216   2.51141   2.71188   3.06668   3.37606   3.59817   3.89384   4.07795
   4.62698   5.37546   6.13488   7.62392   7.98297   8.50107   8.78643   8.84656
   8.89423   8.97699   9.03462   9.08593  10.54332  11.24738  11.81308  12.12344
  12.58345  22.93753  23.31797  25.12716


           ASSOCIATED EIGENVECTORS




    ROOT NO.    1           2           3           4           5           6

            -0.00803     0.00262     0.00506     0.00951     0.01039     0.01597
  
         1  -0.04336    -0.05009    -0.01745     0.05203     0.06691    -0.08031
         2  -0.01102     0.00095    -0.01088     0.01376     0.00364     0.02126
         3  -0.13880    -0.04087    -0.05672    -0.11365    -0.01900     0.01522
         4  -0.04321    -0.04984    -0.01785     0.05218     0.06634    -0.07807
         5   0.01379     0.06757    -0.00578    -0.02805    -0.05441     0.07952
         6  -0.28488    -0.00610    -0.07700    -0.39321    -0.11931    -0.21460
         7  -0.07225    -0.12621    -0.02663     0.09150     0.12228    -0.13233
         8  -0.02381    -0.03301    -0.01288     0.02850     0.02747    -0.00815
         9  -0.15580    -0.12760    -0.08213    -0.04589     0.02116     0.12439
        10  -0.16523    -0.19753    -0.15002     0.20480     0.24868    -0.13334
        11  -0.05599    -0.06622    -0.07182     0.10102     0.08168     0.04887
        12  -0.24937    -0.20895    -0.22218     0.10360     0.16150     0.17403
        13  -0.01890     0.01987    -0.02119     0.01589     0.00861    -0.00412
        14  -0.03006    -0.04269    -0.00879     0.02786     0.03605    -0.02905
        15   0.04739     0.00359    -0.00488     0.14769     0.05746     0.13252
        16  -0.02190     0.01992    -0.02121     0.01272     0.00791    -0.00817
        17  -0.05968    -0.11124    -0.00086     0.05349     0.09126    -0.11746
        18   0.19338    -0.03247     0.00810     0.40591     0.14476     0.38973
        19   0.01266     0.10646    -0.02939    -0.02910    -0.06883     0.10839
        20  -0.01634    -0.00544    -0.01281     0.00955     0.00270     0.02462
        21   0.07494     0.10323     0.01860     0.10097     0.02500    -0.11012
        22  -0.08696     0.24240     0.36275     0.01908    -0.03608     0.14531
        23  -0.09412    -0.04351     0.17287     0.09494     0.07705     0.19177
        24   0.14462     0.08611    -0.19241     0.03976    -0.02525    -0.21346
        25   0.02152     0.09486    -0.06360    -0.03363    -0.07224     0.10627
        26   0.01872     0.06699    -0.04006    -0.03407    -0.06730     0.09914
        27  -0.06252     0.22242     0.49918     0.18582     0.10454    -0.10342
        28   0.13150     0.05311    -0.39597    -0.11142    -0.16399     0.16377
        29   0.03712    -0.01053    -0.17253    -0.04644    -0.02741    -0.18139
        30   0.16788     0.07433    -0.26691     0.02231    -0.04061    -0.23289
        31   0.01429    -0.10258     0.10590    -0.01518     0.00758    -0.15666
        32   0.00457    -0.02295     0.03909    -0.03125    -0.01870    -0.04147
        33  -0.05686    -0.10216     0.06400    -0.15267    -0.10395     0.11058
        34   0.11107    -0.03559     0.24184    -0.13626    -0.11365    -0.19651
        35   0.03593     0.00539     0.08724    -0.09403    -0.07132    -0.05001
        36   0.03719    -0.03225     0.20094    -0.29151    -0.23206     0.06939
        37  -0.00778    -0.15926     0.08040     0.01657     0.01085    -0.10563
        38  -0.00561    -0.04724     0.02705    -0.01912    -0.01934    -0.01283
        39  -0.05239    -0.16487     0.05831    -0.07255    -0.07531     0.10115
        40  -0.02950    -0.27707     0.09618     0.06476     0.01198    -0.08459
        41  -0.01855    -0.04422     0.04776    -0.07747    -0.03713     0.00491
        42  -0.04235    -0.15343     0.04658    -0.04930    -0.06667     0.08898
        43  -0.00345    -0.12439     0.07203     0.00288     0.00745    -0.10433
        44  -0.01593    -0.08636    -0.00226     0.02447    -0.02632     0.03964
        45  -0.06017    -0.27001     0.08659    -0.03562    -0.06645     0.09612
        46   0.14050    -0.00173    -0.00599    -0.04730    -0.00582     0.07285
        47   0.09362     0.01381     0.01545     0.01637     0.03031    -0.08536
        48   0.17390    -0.00029     0.00809    -0.02202     0.02052    -0.00541
        49  -0.05134     0.14870    -0.05026    -0.01257    -0.02989     0.08727
        50  -0.01314     0.08272    -0.02080    -0.01696    -0.02728     0.04932
        51  -0.01939     0.16412    -0.02604     0.06030     0.03633    -0.10615
        52  -0.20045     0.33161    -0.07955    -0.12259     0.22630     0.07362
        53   0.03935     0.08340    -0.00219    -0.31353     0.34015     0.17315
        54   0.00944     0.13277    -0.02084     0.07585    -0.00326    -0.10281
        55  -0.11775     0.15967    -0.08461     0.15270    -0.35275     0.14058
        56  -0.03043     0.08500    -0.02755     0.07546    -0.14342     0.01277
        57  -0.05779     0.16878    -0.03873     0.31489    -0.25344    -0.23885
        58   0.02984     0.08661    -0.02475    -0.05779     0.04169     0.06882
        59  -0.12156     0.13917    -0.06228     0.15432    -0.30764     0.06710
        60  -0.13237     0.32849    -0.04641    -0.16005     0.40777    -0.05826
        61  -0.00011    -0.11095     0.04046    -0.00333    -0.00755    -0.04121
        62   0.02552    -0.02937     0.02935     0.01946     0.01342    -0.09090
        63  -0.02195    -0.11155     0.02915    -0.05572    -0.06291     0.08645
        64   0.40082    -0.02795    -0.01107    -0.11592     0.02424     0.15838
        65   0.22764    -0.00222     0.03269     0.04171     0.09656    -0.19545
        66   0.48587    -0.03328     0.01473    -0.06492     0.08917    -0.00258




    ROOT NO.    7           8           9          10          11          12

             0.02273     0.05008     0.06374     0.11367     0.17476     0.24622
  
         1  -0.09230    -0.06859     0.11853     0.08221    -0.13753    -0.11552
         2  -0.01956     0.01369     0.13513    -0.09076    -0.07749    -0.04224
         3  -0.06119    -0.18631    -0.11459    -0.01344    -0.11811     0.04207
         4  -0.08924    -0.06720     0.11284     0.08459    -0.13249    -0.11815
         5   0.01682     0.03018     0.13807    -0.12007    -0.22162    -0.27662
         6   0.04394    -0.24311    -0.15995    -0.02099    -0.36362     0.24156
         7  -0.09349    -0.06423     0.04619     0.10877     0.06640     0.10165
         8  -0.02195     0.01291     0.09978    -0.06228     0.00504     0.03511
         9  -0.06680    -0.09742    -0.01328    -0.02977     0.16937    -0.13291
        10  -0.00864    -0.05019    -0.05461     0.14833     0.24786     0.19027
        11   0.01495     0.08287     0.19639    -0.09114     0.09555    -0.07348
        12   0.02606    -0.01639     0.02211    -0.02877     0.37750    -0.17350
        13  -0.02753    -0.04084     0.05718     0.07956    -0.15823    -0.27316
        14  -0.05773    -0.00461     0.17315    -0.09181    -0.06912     0.05531
        15  -0.10719    -0.12109    -0.11020    -0.00757    -0.15283     0.08637
        16  -0.02444    -0.03992     0.05635     0.07984    -0.15266    -0.26879
        17  -0.13496    -0.04438     0.27455    -0.07811    -0.15669     0.05257
        18  -0.24653    -0.15354    -0.16740    -0.00655    -0.18059     0.09964
        19   0.08026     0.01494    -0.07524     0.01923     0.01078    -0.05551
        20  -0.01388     0.01715     0.11966    -0.12448    -0.00595     0.16024
        21   0.05555     0.06322     0.03533    -0.00413    -0.02433     0.02377
        22   0.22139     0.08352    -0.07645    -0.01244     0.18967     0.05767
        23  -0.12271    -0.13723     0.04468    -0.12107    -0.20090     0.21120
        24   0.07755     0.13145     0.07945     0.00015     0.04008    -0.02823
        25   0.06933     0.00979    -0.07801     0.02091     0.00167    -0.05609
        26   0.08343     0.08107     0.02084    -0.20519     0.19373     0.52065
        27   0.16550     0.11042     0.10052    -0.00589     0.06987    -0.01059
        28   0.04740     0.00710    -0.19665    -0.01814     0.05628     0.17577
        29   0.03240     0.12936     0.26586    -0.10952     0.05547    -0.00969
        30   0.07387     0.14132     0.08586    -0.00761     0.04204    -0.00870
        31  -0.14301    -0.03566     0.02620     0.10108     0.09371     0.10689
        32  -0.03906    -0.04004    -0.08795    -0.03443     0.06205    -0.01325
        33  -0.12265    -0.03219     0.05356    -0.04925     0.18018    -0.11073
        34  -0.27548    -0.07248     0.15061     0.12947     0.07497     0.21127
        35  -0.09206    -0.10858    -0.17762    -0.07527     0.11833    -0.13520
        36  -0.26152    -0.12585     0.04299    -0.06014     0.22400    -0.15814
        37   0.03225     0.06071    -0.12139    -0.01449     0.01636     0.01414
        38   0.03860     0.00325    -0.15394    -0.07139     0.03464    -0.07686
        39   0.06364     0.14198     0.07987     0.03725    -0.00560     0.01043
        40   0.46038    -0.12662    -0.08300    -0.04074    -0.11078     0.01374
        41   0.01441    -0.20655    -0.09009    -0.12491     0.23150    -0.15546
        42   0.02924     0.26546     0.04089     0.06613    -0.09281     0.04692
        43  -0.09383     0.14008    -0.14721    -0.02788     0.03504     0.00709
        44   0.20079     0.15490    -0.25172    -0.16070    -0.17023    -0.13798
        45   0.44657    -0.11284     0.17242     0.08469    -0.06558     0.04179
        46  -0.00395     0.04344     0.01746    -0.14096    -0.01600    -0.00715
        47   0.01202    -0.02103    -0.16976     0.07779     0.02048    -0.04071
        48  -0.00834     0.07083     0.01561     0.09025    -0.02528     0.02130
        49   0.00123     0.00378     0.06217    -0.09808    -0.00737     0.00261
        50   0.02264     0.00806    -0.04027     0.27614     0.01063    -0.00293
        51  -0.01089    -0.01657    -0.03986    -0.01586    -0.00044    -0.00177
        52   0.01081    -0.03003     0.04244    -0.17530     0.00205    -0.01149
        53   0.03853     0.10680    -0.00888     0.42018    -0.00822     0.01986
        54  -0.01231    -0.01073    -0.03652    -0.00632    -0.00227     0.00004
        55   0.00078    -0.02236     0.17300     0.09614    -0.00541     0.04617
        56   0.01876    -0.02574    -0.04928     0.25909     0.02005    -0.01018
        57  -0.02385    -0.12078    -0.09575    -0.17355     0.02742    -0.03925
        58  -0.00349     0.02715     0.02432    -0.17532    -0.01253    -0.00903
        59   0.02331    -0.03987     0.03143     0.43065     0.02061     0.01933
        60   0.00770    -0.00652    -0.03427    -0.00387    -0.00129     0.00271
        61  -0.16412     0.36059    -0.21753    -0.14864    -0.07448    -0.02108
        62  -0.05407     0.12880    -0.22059     0.07416    -0.01503    -0.03117
        63  -0.16581     0.48055    -0.04540     0.07118    -0.12169     0.03288
        64   0.09570    -0.13299     0.16281    -0.09816     0.01269     0.00870
        65   0.03933    -0.14100    -0.24943     0.02314     0.05717    -0.06849
        66   0.09747    -0.16189     0.08861     0.08406     0.02398     0.01433




    ROOT NO.   13          14          15          16          17          18

             0.47612     0.53922     0.60066     0.63663     0.64944     0.67008
  
         1   0.08105    -0.00459     0.17558    -0.03888     0.00948    -0.05910
         2  -0.03124     0.00303    -0.08396     0.01845    -0.00102     0.01644
         3   0.03373    -0.00606     0.10319    -0.03290     0.02667    -0.06697
         4   0.08022    -0.00493     0.18687    -0.04123     0.01048    -0.06881
         5  -0.04753     0.01923    -0.26729     0.06643    -0.05158     0.10994
         6  -0.05226     0.01045    -0.13804     0.25608    -0.07712     0.16594
         7  -0.04152    -0.00498     0.03368     0.00546     0.00470    -0.06565
         8  -0.11803     0.00204    -0.15057     0.04392     0.00261    -0.00469
         9   0.11056    -0.00770     0.16793    -0.03943    -0.01992    -0.03171
        10  -0.23439    -0.03989    -0.10782     0.07740     0.24407    -0.18902
        11  -0.05915    -0.00718    -0.31962     0.01204    -0.03092     0.36710
        12   0.05741    -0.04061    -0.07141    -0.03489     0.09895     0.26909
        13  -0.02081     0.00071     0.01629    -0.00363     0.00554    -0.02981
        14   0.03806     0.00039     0.02245     0.00062    -0.00017    -0.01063
        15  -0.01040     0.00394    -0.04945    -0.16606     0.00844    -0.01878
        16  -0.01756     0.00033     0.02864    -0.01353     0.00719    -0.03883
        17   0.20342    -0.00537     0.36564    -0.07823     0.01158    -0.12224
        18  -0.01116     0.00409     0.04875     0.47491    -0.05243     0.09950
        19  -0.02568     0.00021    -0.02180     0.00370     0.00685    -0.01521
[...]
 FREQUENCY          1350.15         C  7 -- H  9         +47.2% ( 59.9%)      1.7%
 TRANSITION DIPOLE   0.5920         C  7 -- H  8         +40.0% ( 55.2%)      3.8%
 TRAVEL (Ang.)       0.3315         C  7 -- H 10          +7.8% ( 24.3%)     66.4%
 REDUCED MASS        0.4545         C  5 -- C  7          +4.7% ( 19.0%)      9.4%
 EFFECTIVE MASS      1.6055
 FORCE CONSTANT      0.4881

 VIBRATION         44   44A           ATOM PAIR      ENERGY CONTRIBUTION    RADIAL
 FREQUENCY          1369.73         C 17 -- H 19         +34.6% ( 60.3%)      2.2%
 TRANSITION DIPOLE   1.1029         C 17 -- H 18         +27.5% ( 53.7%)      2.2%
 TRAVEL (Ang.)       0.3034         C 17 -- H 20         +24.4% ( 50.6%)      1.5%
 REDUCED MASS        0.5349         C 16 -- C 17          +8.2% ( 29.3%)     98.9%
 EFFECTIVE MASS      2.4623
 FORCE CONSTANT      0.5913

 VIBRATION         45   45A           ATOM PAIR      ENERGY CONTRIBUTION    RADIAL
 FREQUENCY          1398.42         C  7 -- H  9         +36.9% ( 64.2%)      2.1%
 TRANSITION DIPOLE   0.9434         C  7 -- H 10         +28.0% ( 55.9%)      3.6%
 TRAVEL (Ang.)       0.2650         C  7 -- H  8         +23.4% ( 51.1%)      1.2%
 REDUCED MASS        0.6867         C  5 -- C  7         +10.5% ( 34.2%)     98.6%
 EFFECTIVE MASS      2.7237
 FORCE CONSTANT      0.7912

 VIBRATION         46   46A           ATOM PAIR      ENERGY CONTRIBUTION    RADIAL
 FREQUENCY          1777.54         C 16 -- O 22         +47.4% ( 97.1%)     99.5%
 TRANSITION DIPOLE   6.4210         C 16 -- C 17         +20.9% ( 64.4%)     52.9%
 TRAVEL (Ang.)       0.0774         C 16 -- O 21         +19.9% ( 63.0%)      4.9%
 REDUCED MASS        6.3320         O 21 -- O 22          +8.1% ( 40.2%)     72.4%
 EFFECTIVE MASS     13.2554
 FORCE CONSTANT     11.7877

 VIBRATION         47   47A           ATOM PAIR      ENERGY CONTRIBUTION    RADIAL
 FREQUENCY          1785.09         C  1 -- C  5         +39.3% ( 91.9%)     98.6%
 TRANSITION DIPOLE   1.3494         C  1 -- C  3         +12.8% ( 52.5%)     17.9%
 TRAVEL (Ang.)       0.0932         C  5 -- C  7         +12.7% ( 52.4%)     48.3%
 REDUCED MASS        4.3489         C  5 -- H  6         +11.9% ( 50.7%)      8.1%
 EFFECTIVE MASS     11.7711         C  1 -- H  2         +11.5% ( 49.7%)     10.2%
 FORCE CONSTANT      8.1648

 VIBRATION         48   48A           ATOM PAIR      ENERGY CONTRIBUTION    RADIAL
 FREQUENCY          1796.33         C  3 -- C 11         +37.6% ( 90.3%)     97.5%
 TRANSITION DIPOLE   1.5814         C  1 -- C  3         +15.5% ( 58.0%)     76.7%
 TRAVEL (Ang.)       0.0950         C  3 -- H  4         +11.6% ( 50.1%)      5.5%
 REDUCED MASS        4.1562         C 11 -- C 13         +11.6% ( 50.1%)     48.8%
 EFFECTIVE MASS     11.8692         C 11 -- H 12         +10.8% ( 48.4%)      9.0%
 FORCE CONSTANT      7.9016

 VIBRATION         49   49A           ATOM PAIR      ENERGY CONTRIBUTION    RADIAL
 FREQUENCY          2629.85         C 13 -- H 15         +48.7% ( 72.8%)     98.3%
 TRANSITION DIPOLE   0.5268         C 13 -- H 14         +48.5% ( 72.6%)     98.3%
 TRAVEL (Ang.)       0.2270         C 13 -- O 21          +0.9% ( 10.1%)      0.0%
 REDUCED MASS        0.4976         C 11 -- C 13          +0.9% ( 10.1%)      0.0%
 EFFECTIVE MASS      1.4800
 FORCE CONSTANT      2.0275

 VIBRATION         50   50A           ATOM PAIR      ENERGY CONTRIBUTION    RADIAL
 FREQUENCY          2640.21         C 17 -- H 19         +64.5% ( 83.6%)     99.5%
 TRANSITION DIPOLE   1.0324         C 17 -- H 20         +24.1% ( 51.1%)     92.4%
 TRAVEL (Ang.)       0.2264         C 17 -- H 18         +10.5% ( 33.7%)     79.8%
 REDUCED MASS        0.4981         C 16 -- C 17          +0.9% (  9.8%)      0.1%
 EFFECTIVE MASS      1.4425
 FORCE CONSTANT      2.0459

 VIBRATION         51   51A           ATOM PAIR      ENERGY CONTRIBUTION    RADIAL
 FREQUENCY          2647.88         C 17 -- H 18         +54.7% ( 76.8%)     98.8%
 TRANSITION DIPOLE   1.0876         C 17 -- H 20         +41.9% ( 67.2%)     97.4%
 TRAVEL (Ang.)       0.2288         C 17 -- H 19          +1.8% ( 13.9%)     27.1%
 REDUCED MASS        0.4864         C 16 -- C 17          +0.8% (  9.4%)      0.0%
 EFFECTIVE MASS      1.4387
 FORCE CONSTANT      2.0093

 VIBRATION         52   52A           ATOM PAIR      ENERGY CONTRIBUTION    RADIAL
 FREQUENCY          2655.67         C  7 -- H 10         +49.9% ( 73.3%)     98.3%
 TRANSITION DIPOLE   0.7772         C  7 -- H  8         +48.2% ( 72.0%)     98.3%
 TRAVEL (Ang.)       0.2275         C  5 -- C  7          +0.8% (  9.3%)      0.0%
 REDUCED MASS        0.4906         C  7 -- H  9          +0.8% (  9.1%)      1.1%
 EFFECTIVE MASS      1.4268
 FORCE CONSTANT      2.0387

 VIBRATION         53   53A           ATOM PAIR      ENERGY CONTRIBUTION    RADIAL
 FREQUENCY          2659.37         C  7 -- H  9         +64.4% ( 83.3%)     99.5%
 TRANSITION DIPOLE   0.7087         C  7 -- H  8         +18.3% ( 44.5%)     90.3%
 TRAVEL (Ang.)       0.2291         C  7 -- H 10         +15.5% ( 40.8%)     87.5%
 REDUCED MASS        0.4831         C  5 -- C  7          +0.9% (  9.7%)      0.7%
 EFFECTIVE MASS      1.4330
 FORCE CONSTANT      2.0128

 VIBRATION         54   54A           ATOM PAIR      ENERGY CONTRIBUTION    RADIAL
 FREQUENCY          2714.96         C  3 -- H  4         +75.9% ( 88.3%)    100.0%
 TRANSITION DIPOLE   0.4672         C 11 -- H 12         +16.6% ( 41.2%)    100.0%
 TRAVEL (Ang.)       0.2049         C  1 -- H  2          +3.1% ( 17.7%)     99.5%
 REDUCED MASS        0.5913         C  5 -- H  6          +1.3% ( 11.6%)     99.9%
 EFFECTIVE MASS      1.3784
 FORCE CONSTANT      2.5681

 VIBRATION         55   55A           ATOM PAIR      ENERGY CONTRIBUTION    RADIAL
 FREQUENCY          2735.38         C  1 -- H  2         +35.7% ( 59.7%)    100.0%
 TRANSITION DIPOLE   0.4252         C  5 -- H  6         +21.6% ( 46.4%)    100.0%
 TRAVEL (Ang.)       0.3248         C 13 -- H 14         +18.2% ( 42.6%)     97.7%
 REDUCED MASS        0.2337         C 13 -- H 15         +18.0% ( 42.3%)     97.6%
 EFFECTIVE MASS      1.3082
 FORCE CONSTANT      1.0304

 VIBRATION         56   56A           ATOM PAIR      ENERGY CONTRIBUTION    RADIAL
 FREQUENCY          2737.42         C 11 -- H 12         +40.0% ( 63.5%)    100.0%
 TRANSITION DIPOLE   0.7419         C  3 -- H  4         +20.0% ( 44.8%)     99.7%
 TRAVEL (Ang.)       0.3272         C  5 -- H  6         +14.6% ( 38.4%)     99.9%
 REDUCED MASS        0.2301         C  1 -- H  2          +9.7% ( 31.3%)     99.8%
 EFFECTIVE MASS      1.3713
 FORCE CONSTANT      1.0160

 VIBRATION         57   57A           ATOM PAIR      ENERGY CONTRIBUTION    RADIAL
 FREQUENCY          2740.24         C 11 -- H 12         +37.0% ( 60.4%)     99.7%
 TRANSITION DIPOLE   0.7826         C 13 -- H 15         +21.8% ( 46.4%)     97.7%
 TRAVEL (Ang.)       0.3166         C 13 -- H 14         +21.8% ( 46.3%)     97.8%
 REDUCED MASS        0.2455         C  1 -- H  2         +13.8% ( 36.9%)    100.0%
 EFFECTIVE MASS      1.2996
 FORCE CONSTANT      1.0861

 VIBRATION         58   58A           ATOM PAIR      ENERGY CONTRIBUTION    RADIAL
 FREQUENCY          2753.08         C  5 -- H  6         +57.7% ( 76.3%)     99.9%
 TRANSITION DIPOLE   1.3353         C  1 -- H  2         +37.1% ( 61.2%)    100.0%
 TRAVEL (Ang.)       0.2324         C 11 -- H 12          +1.6% ( 12.7%)    100.0%
 REDUCED MASS        0.4535         C  7 -- H 10          +0.9% (  9.6%)     97.7%
 EFFECTIVE MASS      1.3889
 FORCE CONSTANT      2.0251

 VIBRATION         59   59A           ATOM PAIR      ENERGY CONTRIBUTION    RADIAL
 FREQUENCY          2841.60         C 17 -- H 18         +33.8% ( 54.5%)     97.5%
 TRANSITION DIPOLE   0.7558         C 17 -- H 20         +32.9% ( 53.8%)     97.5%
 TRAVEL (Ang.)       0.2698         C 17 -- H 19         +32.8% ( 53.6%)     97.4%
 REDUCED MASS        0.3259         C 16 -- C 17          +0.2% (  4.3%)     98.7%
 EFFECTIVE MASS      1.1136
 FORCE CONSTANT      1.5505

 VIBRATION         60   60A           ATOM PAIR      ENERGY CONTRIBUTION    RADIAL
 FREQUENCY          2846.79         C  7 -- H  9         +33.9% ( 54.7%)     97.6%
 TRANSITION DIPOLE   0.6182         C  7 -- H 10         +32.7% ( 53.7%)     97.5%
 TRAVEL (Ang.)       0.2704         C  7 -- H  8         +32.5% ( 53.6%)     97.3%
 REDUCED MASS        0.3239         C  5 -- H  6          +0.3% (  5.5%)     81.3%
 EFFECTIVE MASS      1.1078
 FORCE CONSTANT      1.5468

      SYMMETRY NUMBER FOR POINT-GROUP C1  =  1


          SYSTEM IS A GROUND STATE



 DA_SM1_PM6_D3H4_THERMO


          MOLECULE IS NOT LINEAR

          THERE ARE 60 GENUINE VIBRATIONS IN THIS SYSTEM
          THIS THERMODYNAMICS CALCULATION IS LIMITED TO
          MOLECULES WHICH HAVE NO INTERNAL ROTATIONS




                    CALCULATED THERMODYNAMIC PROPERTIES
                                          *
   TEMP. (K)   PARTITION FUNCTION   H.O.F.    ENTHALPY  HEAT CAPACITY ENTROPY
                                   KCAL/MOL   CAL/MOLE    CAL/K/MOL  CAL/K/MOL


 298.00  VIB.     0.3167D+06                  6177.8563    36.0244    45.9003
         ROT.     0.9930D+06                   888.2813     2.9808    30.4211
         INT.     0.3145D+12                  7066.1376    39.0052    76.3214
         TRA.     0.1605D+28                  1480.4688     4.9680    40.7226
         TOT.                      -65.489    8546.6064    43.9732   117.0440

 200.00  VIB.     0.8414D+04                  3152.0276    26.0383    33.7198
         ROT.     0.5460D+06                   596.1620     2.9808    29.2324
         INT.     0.4594D+10                  3748.1895    29.0192    62.9522
         TRA.     0.8822D+27                   993.6033     4.9680    38.7415
         TOT.                      -69.294    4741.7928    33.9872   101.6937

 210.00  VIB.     0.1247D+05                  3417.0207    26.9641    35.0125
         ROT.     0.5874D+06                   625.9700     2.9808    29.3779
         INT.     0.7323D+10                  4042.9908    29.9449    64.3904
         TRA.     0.9492D+27                  1043.2834     4.9680    38.9839
         TOT.                      -68.949    5086.2742    34.9129   103.3742

 220.00  VIB.     0.1835D+05                  3691.3861    27.9129    36.2887
         ROT.     0.6299D+06                   655.7781     2.9808    29.5165
         INT.     0.1156D+11                  4347.1642    30.8937    65.8052
         TRA.     0.1018D+28                  1092.9636     4.9680    39.2150
         TOT.                      -68.595    5440.1278    35.8618   105.0202

 230.00  VIB.     0.2686D+05                  3975.3581    28.8854    37.5508
         ROT.     0.6733D+06                   685.5862     2.9808    29.6490
         INT.     0.1809D+11                  4660.9443    31.8662    67.1999
         TRA.     0.1088D+28                  1142.6437     4.9680    39.4358
         TOT.                      -68.232    5803.5881    36.8342   106.6357

 240.00  VIB.     0.3911D+05                  4269.1711    29.8810    38.8011
         ROT.     0.7177D+06                   715.3943     2.9808    29.7759
         INT.     0.2807D+11                  4984.5655    32.8618    68.5771
         TRA.     0.1160D+28                  1192.3239     4.9680    39.6472
         TOT.                      -67.858    6176.8894    37.8298   108.2243

 250.00  VIB.     0.5665D+05                  4573.0513    30.8986    40.0415
         ROT.     0.7630D+06                   745.2024     2.9808    29.8976
         INT.     0.4323D+11                  5318.2537    33.8794    69.9391
         TRA.     0.1233D+28                  1242.0041     4.9680    39.8500
         TOT.                      -67.475    6560.2578    38.8474   109.7891

 260.00  VIB.     0.8169D+05                  4887.2103    31.9364    41.2735
         ROT.     0.8093D+06                   775.0105     2.9808    30.0145
         INT.     0.6610D+11                  5662.2209    34.9172    71.2880
         TRA.     0.1308D+28                  1291.6842     4.9680    40.0449
         TOT.                      -67.081    6953.9051    39.8853   111.3329

 270.00  VIB.     0.1173D+06                  5211.8405    32.9924    42.4986
         ROT.     0.8564D+06                   804.8186     2.9808    30.1270
         INT.     0.1004D+12                  6016.6592    35.9732    72.6256
         TRA.     0.1384D+28                  1341.3644     4.9680    40.2324
         TOT.                      -66.677    7358.0236    40.9413   112.8580

 280.00  VIB.     0.1678D+06                  5547.1113    34.0641    43.7177
         ROT.     0.9044D+06                   834.6267     2.9808    30.2354
         INT.     0.1517D+12                  6381.7381    37.0449    73.9532
         TRA.     0.1461D+28                  1391.0445     4.9680    40.4131
         TOT.                      -66.263    7772.7826    42.0130   114.3662

 290.00  VIB.     0.2391D+06                  5893.1669    35.1489    44.9320
         ROT.     0.9533D+06                   864.4348     2.9808    30.3400
         INT.     0.2279D+12                  6757.6017    38.1297    75.2720
         TRA.     0.1540D+28                  1440.7247     4.9680    40.5874
         TOT.                      -65.837    8198.3264    43.0978   115.8594

 300.00  VIB.     0.3396D+06                  6250.1248    36.2442    46.1420
         ROT.     0.1003D+07                   894.2429     2.9808    30.4411
         INT.     0.3407D+12                  7144.3677    39.2250    76.5831
         TRA.     0.1621D+28                  1490.4049     4.9680    40.7558
         TOT.                      -65.401    8634.7726    44.1930   117.3389

 310.00  VIB.     0.4810D+06                  6618.0759    37.3471    47.3484
         ROT.     0.1054D+07                   924.0510     2.9808    30.5388
         INT.     0.5068D+12                  7542.1269    40.3279    77.8872
         TRA.     0.1702D+28                  1540.0850     4.9680    40.9187
         TOT.                      -64.953    9082.2119    45.2960   118.8060

 320.00  VIB.     0.6793D+06                  6997.0845    38.4552    48.5516
         ROT.     0.1105D+07                   953.8591     2.9808    30.6334
         INT.     0.7506D+12                  7950.9436    41.4360    79.1851
         TRA.     0.1786D+28                  1589.7652     4.9680    41.0765
         TOT.                      -64.495    9540.7088    46.4041   120.2615

 330.00  VIB.     0.9568D+06                  7387.1893    39.5660    49.7520
         ROT.     0.1157D+07                   983.6672     2.9808    30.7252
         INT.     0.1107D+13                  8370.8565    42.5468    80.4771
         TRA.     0.1870D+28                  1639.4454     4.9680    41.2293
         TOT.                      -64.025   10010.3019    47.5148   121.7065

 340.00  VIB.     0.1345D+07                  7788.4048    40.6770    50.9496
         ROT.     0.1210D+07                  1013.4753     2.9808    30.8141
         INT.     0.1627D+13                  8801.8801    43.6578    81.7638
         TRA.     0.1955D+28                  1689.1255     4.9680    41.3776
         TOT.                      -63.544   10491.0056    48.6258   123.1414

 350.00  VIB.     0.1885D+07                  8200.7227    41.7861    52.1448
         ROT.     0.1264D+07                  1043.2834     2.9808    30.9005
         INT.     0.2383D+13                  9244.0061    44.7669    83.0453
         TRA.     0.2042D+28                  1738.8057     4.9680    41.5217
         TOT.                      -63.052   10982.8118    49.7349   124.5670

 360.00  VIB.     0.2638D+07                  8624.1142    42.8914    53.3374
         ROT.     0.1318D+07                  1073.0915     2.9808    30.9845
         INT.     0.3478D+13                  9697.2057    45.8722    84.3220
         TRA.     0.2131D+28                  1788.4859     4.9680    41.6616
         TOT.                      -62.550   11485.6915    50.8402   125.9836

 370.00  VIB.     0.3683D+07                  9058.5313    43.9910    54.5276
         ROT.     0.1374D+07                  1102.8996     2.9808    31.0662
         INT.     0.5060D+13                 10161.4309    46.9718    85.5938
         TRA.     0.2220D+28                  1838.1660     4.9680    41.7977
         TOT.                      -62.036   11999.5969    51.9398   127.3915

 380.00  VIB.     0.5134D+07                  9503.9091    45.0833    55.7153
         ROT.     0.1430D+07                  1132.7077     2.9808    31.1457
         INT.     0.7341D+13                 10636.6169    48.0641    86.8610
         TRA.     0.2311D+28                  1887.8462     4.9680    41.9302
         TOT.                      -61.511   12524.4630    53.0321   128.7912

 390.00  VIB.     0.7143D+07                  9960.1679    46.1669    56.9004
         ROT.     0.1487D+07                  1162.5158     2.9808    31.2231
         INT.     0.1062D+14                 11122.6837    49.1477    88.1235
         TRA.     0.2402D+28                  1937.5263     4.9680    42.0593
         TOT.                      -60.975   13060.2100    54.1157   130.1828

 400.00  VIB.     0.9924D+07                 10427.2145    47.2407    58.0828
         ROT.     0.1544D+07                  1192.3239     2.9808    31.2986
         INT.     0.1532D+14                 11619.5384    50.2215    89.3814
         TRA.     0.2495D+28                  1987.2065     4.9680    42.1850
         TOT.                      -60.429   13606.7449    55.1895   131.5664

   *: NOTE: HEATS OF FORMATION ARE RELATIVE TO THE
            ELEMENTS IN THEIR STANDARD STATE AT 298K
              (=  Standard Enthalpy of Formation).

            Hvib:  Zero-point energy is not included.
                   frequencies of less than zero cm-1 are not included.
            Hrot = (3/2)RT
            Htra = (3/2)RT + pV = (5/2)RT

            Heat capacity is Cp, not Cv

          For more information, see: HTTP://OpenMOPAC.net/Manual/thermochemistry.html


           FORCE CONSTANT IN CARTESIAN COORDINATES (Millidynes/A)

    ATOM   CHEMICAL       X               Y               Z
   NUMBER   SYMBOL  FORCE CONSTANT  FORCE CONSTANT  FORCE CONSTANT

      1       C        8.823081       12.691298        2.236194
      2       H        4.207593        0.858507        0.324794
      3       C        9.025457        8.330370        6.536433
      4       H        1.264796        2.160447        1.951973
      5       C        8.779563       12.525888        2.363370
      6       H        4.222318        0.885544        0.371826
      7       C        6.529406        7.301544        5.889765
      8       H        0.840151        1.452500        3.168000
      9       H        4.129124        0.774936        0.634959
     10       H        1.056005        1.711764        2.651256
     11       C        8.872202        7.858245        6.854410
     12       H        1.220693        2.100352        2.051260
     13       C        6.533693        7.249626        6.159029
     14       H        0.674247        1.433041        3.392044
     15       H        3.735967        0.771157        0.982581
     16       C        8.771267        8.013232        8.560997
     17       C        6.734213        6.424195        6.373091
     18       H        0.722404        0.624088        4.028776
     19       H        0.684891        3.793603        0.928912
     20       H        3.318327        1.343638        0.714428
     21       O        2.954680        7.084116        3.329200
     22       O        4.887332        3.639862        6.383156

 **********************
 *                    *
 * JOB ENDED NORMALLY *
 *                    *
 **********************



 TOTAL JOB TIME:             1.80 SECONDS

 == MOPAC DONE ==
