 *******************************************************************************
 ** Site#: 37381        For non-commercial use only           Version 21.125L **
 *******************************************************************************
 ** Cite this program as: MOPAC2016, Version: 21.125L, James J. P. Stewart,   **
 ** Stewart Computational Chemistry, web: HTTP://OpenMOPAC.net. Days left: 191**
 *******************************************************************************
 **                                                                           **
 **                                MOPAC2016                                  **
 **                                                                           **
 *******************************************************************************

                              PM6-D3H4 CALCULATION RESULTS

 *******************************************************************************
 *  CALCULATION DONE:                                Tue Oct 26 20:53:42 2021  *
 *  PM6-D3H4   - CORRECT DISPERSION AND HYDROGEN BOND TERMS USING THE D3H4 METHOD
 *  OPT        - OPTIMIZE COORDINATES OF ALL ATOMS
 *  EPS=2.38   - USE ANDREAS KLAMT'S COSMO IMPLICIT SOLVATION MODEL
 *  RSOLV=  3.480
 *  PRECISE    - TIGHTER CRITERIA TO BE USED
 *  T=         - A TIME OF 128.0 HOURS REQUESTED
 *  DUMP=N     - RESTART FILE WRITTEN EVERY 7200.0 SECONDS REQUESTED
 *  RECALC=    - DO   5 CYCLES BETWEEN HESSIAN RECALC
 *******************************************************************************
 PM6-D3H4 OPT T=128H RECALC=5 PRECISE EPS=2.38 RSOLV=3.48
 DA_SM1_PM6_D3H4_OPT

   ATOM   CHEMICAL          X               Y               Z
  NUMBER   SYMBOL      (ANGSTROMS)     (ANGSTROMS)     (ANGSTROMS)
 
     1       C          2.55892000  *  -0.59435000  *  -0.33050000  *
     2       H          2.84627000  *  -1.45295000  *  -0.94318000  *
     3       C          1.11455000  *  -0.37387000  *  -0.23877000  *
     4       H          0.50811000  *  -1.28837000  *  -0.21303000  *
     5       C          3.47703000  *   0.15928000  *   0.29073000  *
     6       H          3.19364000  *   1.00753000  *   0.91817000  *
     7       C          4.94268000  *  -0.08744000  *   0.20052000  *
     8       H          5.37097000  *  -0.29748000  *   1.19220000  *
     9       H          5.20223000  *  -0.93583000  *  -0.44703000  *
    10       H          5.46936000  *   0.79330000  *  -0.19620000  *
    11       C          0.53461000  *   0.83220000  *  -0.20261000  *
    12       H          1.11011000  *   1.75967000  *  -0.24124000  *
    13       C         -0.94111000  *   1.05523000  *  -0.11820000  *
    14       H         -1.33409000  *   1.53716000  *  -1.03367000  *
    15       H         -1.21538000  *   1.64210000  *   0.77892000  *
    16       C         -2.92793000  *  -0.40278000  *   0.08946000  *
    17       C         -3.78848000  *   0.80822000  *   0.06925000  *
    18       H         -3.68734000  *   1.38379000  *  -0.86421000  *
    19       H         -4.85551000  *   0.53619000  *   0.15340000  *
    20       H         -3.57541000  *   1.49326000  *   0.90467000  *
    21       O         -1.55754000  *  -0.26628000  *  -0.00029000  *
    22       O         -3.29928000  *  -1.55338000  *   0.17928000  *
 


          CARTESIAN COORDINATES 

    NO.       ATOM           X           Y           Z

     1         C          2.5589     -0.5943     -0.3305
     2         H          2.8463     -1.4529     -0.9432
     3         C          1.1145     -0.3739     -0.2388
     4         H          0.5081     -1.2884     -0.2130
     5         C          3.4770      0.1593      0.2907
     6         H          3.1936      1.0075      0.9182
     7         C          4.9427     -0.0874      0.2005
     8         H          5.3710     -0.2975      1.1922
     9         H          5.2022     -0.9358     -0.4470
    10         H          5.4694      0.7933     -0.1962
    11         C          0.5346      0.8322     -0.2026
    12         H          1.1101      1.7597     -0.2412
    13         C         -0.9411      1.0552     -0.1182
    14         H         -1.3341      1.5372     -1.0337
    15         H         -1.2154      1.6421      0.7789
    16         C         -2.9279     -0.4028      0.0895
    17         C         -3.7885      0.8082      0.0693
    18         H         -3.6873      1.3838     -0.8642
    19         H         -4.8555      0.5362      0.1534
    20         H         -3.5754      1.4933      0.9047
    21         O         -1.5575     -0.2663     -0.0003
    22         O         -3.2993     -1.5534      0.1793

 General Reference for PM6:
 "Optimization of Parameters for Semiempirical Methods V: Modification of NDDO Approximations
 and Application to 70 Elements", J. J. P. Stewart, J. Mol. Mod., 13, 1173-1213 (2007)
 URL: https://link.springer.com/article/10.1007/s00894-007-0233-4

           Empirical Formula: C8 H12 O2  =    22 atoms



      MOLECULAR POINT GROUP   :   C1  


      RHF CALCULATION, NO. OF DOUBLY OCCUPIED LEVELS = 28


          Geometry optimization using EF

          DIAGONAL MATRIX USED AS START HESSIAN

 CYCLE:     1 TIME:   0.023 TIME LEFT:  5.33D  GRAD.:    34.268 HEAT: -64.16917
 CYCLE:     2 TIME:   0.031 TIME LEFT:  5.33D  GRAD.:    22.649 HEAT: -64.98662
 CYCLE:     3 TIME:   0.008 TIME LEFT:  5.33D  GRAD.:    30.340 HEAT: -65.04902
 CYCLE:     4 TIME:   0.031 TIME LEFT:  5.33D  GRAD.:    25.413 HEAT: -65.18217
 CYCLE:     5 TIME:   0.008 TIME LEFT:  5.33D  GRAD.:    15.771 HEAT: -65.25295

          HESSIAN CALCULATED NUMERICALLY

 CYCLE:     6 TIME:   0.727 TIME LEFT:  5.33D  GRAD.:    17.369 HEAT: -65.25909
 CYCLE:     7 TIME:   0.016 TIME LEFT:  5.33D  GRAD.:     0.957 HEAT: -65.37406
 CYCLE:     8 TIME:   0.023 TIME LEFT:  5.33D  GRAD.:     0.416 HEAT: -65.39892
 CYCLE:     9 TIME:   0.016 TIME LEFT:  5.33D  GRAD.:     0.384 HEAT: -65.41651
 CYCLE:    10 TIME:   0.023 TIME LEFT:  5.33D  GRAD.:     0.446 HEAT: -65.43853

          HESSIAN CALCULATED NUMERICALLY

 CYCLE:    11 TIME:   0.766 TIME LEFT:  5.33D  GRAD.:     0.814 HEAT: -65.44264
 CYCLE:    12 TIME:   0.039 TIME LEFT:  5.33D  GRAD.:     0.307 HEAT: -65.44213
 CYCLE:    13 TIME:   0.016 TIME LEFT:  5.33D  GRAD.:     1.173 HEAT: -65.44654
 CYCLE:    14 TIME:   0.016 TIME LEFT:  5.33D  GRAD.:     0.987 HEAT: -65.46746
 CYCLE:    15 TIME:   0.039 TIME LEFT:  5.33D  GRAD.:     0.247 HEAT: -65.46212

          HESSIAN CALCULATED NUMERICALLY

 CYCLE:    16 TIME:   0.773 TIME LEFT:  5.33D  GRAD.:     1.148 HEAT: -65.46821
 CYCLE:    17 TIME:   0.031 TIME LEFT:  5.33D  GRAD.:     1.309 HEAT: -65.48609
 CYCLE:    18 TIME:   0.031 TIME LEFT:  5.33D  GRAD.:     0.265 HEAT: -65.48548
 CYCLE:    19 TIME:   0.055 TIME LEFT:  5.33D  GRAD.:     0.106 HEAT: -65.48454
 CYCLE:    20 TIME:   0.016 TIME LEFT:  5.33D  GRAD.:     0.156 HEAT: -65.48057

          HESSIAN CALCULATED NUMERICALLY

 CYCLE:    21 TIME:   0.766 TIME LEFT:  5.33D  GRAD.:     0.146 HEAT: -65.48659
 CYCLE:    22 TIME:   0.016 TIME LEFT:  5.33D  GRAD.:     0.410 HEAT: -65.48856
 CYCLE:    23 TIME:   0.023 TIME LEFT:  5.33D  GRAD.:     0.111 HEAT: -65.48418
 CYCLE:    24 TIME:   0.016 TIME LEFT:  5.33D  GRAD.:     0.231 HEAT: -65.47658
 CYCLE:    25 TIME:   0.016 TIME LEFT:  5.33D  GRAD.:     0.319 HEAT: -65.48830

          HESSIAN CALCULATED NUMERICALLY

 CYCLE:    26 TIME:   0.797 TIME LEFT:  5.33D  GRAD.:     0.062 HEAT: -65.48849
 CYCLE:    27 TIME:   0.016 TIME LEFT:  5.33D  GRAD.:     0.061 HEAT: -65.48869
 CYCLE:    28 TIME:   0.070 TIME LEFT:  5.33D  GRAD.:     0.044 HEAT: -65.48870

     GRADIENT =  0.04413 IS LESS THAN CUTOFF =  0.05000



 -------------------------------------------------------------------------------
 PM6-D3H4 OPT T=128H RECALC=5 PRECISE EPS=2.38 RSOLV=3.48
 DA_SM1_PM6_D3H4_OPT



     GEOMETRY OPTIMISED USING EIGENVECTOR FOLLOWING (EF).     
     SCF FIELD WAS ACHIEVED                                   


                              PM6-D3H4 CALCULATION
                                                       MOPAC2016 (Version: 21.125L)
                                                       Tue Oct 26 20:53:46 2021
                                                       No. of days remaining = 191




          FINAL HEAT OF FORMATION =        -65.48870 KCAL/MOL =    -274.00474 KJ/MOL
          VAN DER WAALS AREA      =        352.31 SQUARE ANGSTROMS


          TOTAL ENERGY            =      -1725.62162 EV
          ELECTRONIC ENERGY       =      -5198.76375 EV  POINT GROUP:     C1  
          CORE-CORE REPULSION     =       3473.14213 EV

          DIELECTRIC ENERGY       =         -0.26348 EV
          COSMO AREA              =        352.31 SQUARE ANGSTROMS
          COSMO VOLUME            =        324.65 CUBIC ANGSTROMS

          GRADIENT NORM           =          0.04413 = 0.00941 PER ATOM
          IONIZATION POTENTIAL    =          9.426312 EV
          HOMO LUMO ENERGIES (EV) =         -9.426  0.442
          NO. OF FILLED LEVELS    =         28
          MOLECULAR WEIGHT        =        140.1816

          MOLECULAR DIMENSIONS (Angstroms)

            Atom       Atom       Distance
            H    19    H    10    10.34199
            H    15    H     2     3.60552
            H     8    H    14     3.20694


          SCF CALCULATIONS        =        380
 
          WALL-CLOCK TIME         =          4.422 SECONDS
          COMPUTATION TIME        =          4.251 SECONDS




   ATOM   CHEMICAL          X               Y               Z
  NUMBER   SYMBOL      (ANGSTROMS)     (ANGSTROMS)     (ANGSTROMS)
 
     1       C          2.55601854  *  -0.57766398  *  -0.33906165  *
     2       H          2.83019100  *  -1.39599271  *  -1.01099245  *
     3       C          1.11261535  *  -0.35655250  *  -0.21585871  *
     4       H          0.51038446  *  -1.26779674  *  -0.09532100  *
     5       C          3.47931056  *   0.13243670  *   0.32268280  *
     6       H          3.19475471  *   0.93643587  *   1.00703239  *
     7       C          4.94748135  *  -0.10534018  *   0.21160589  *
     8       H          5.34782876  *  -0.43096789  *   1.20263774  *
     9       H          5.18633316  *  -0.89114701  *  -0.54210425  *
    10       H          5.45939066  *   0.84098070  *  -0.08753990  *
    11       C          0.53213818  *   0.84812079  *  -0.26162516  *
    12       H          1.10595523  *   1.76820231  *  -0.39611213  *
    13       C         -0.94237501  *   1.07571007  *  -0.14749714  *
    14       H         -1.34601321  *   1.54221880  *  -1.07459023  *
    15       H         -1.18522237  *   1.65014513  *   0.77530323  *
    16       C         -2.91915102  *  -0.39847732  *   0.09571112  *
    17       C         -3.80596195  *   0.79573264  *   0.08568879  *
    18       H         -3.71529749  *   1.35453992  *  -0.87732906  *
    19       H         -4.87182164  *   0.46321360  *   0.19564963  *
    20       H         -3.56751066  *   1.48065305  *   0.93519307  *
    21       O         -1.55336069  *  -0.24780093  *  -0.01551696  *
    22       O         -3.27354682  *  -1.55490326  *   0.19586171  *

                             CARTESIAN COORDINATES

   1    C        2.556018545    -0.577663984    -0.339061649
   2    H        2.830190997    -1.395992713    -1.010992448
   3    C        1.112615349    -0.356552500    -0.215858714
   4    H        0.510384458    -1.267796743    -0.095321001
   5    C        3.479310562     0.132436698     0.322682799
   6    H        3.194754713     0.936435865     1.007032390
   7    C        4.947481350    -0.105340177     0.211605889
   8    H        5.347828762    -0.430967891     1.202637740
   9    H        5.186333156    -0.891147006    -0.542104252
  10    H        5.459390660     0.840980702    -0.087539903
  11    C        0.532138179     0.848120791    -0.261625165
  12    H        1.105955233     1.768202313    -0.396112128
  13    C       -0.942375007     1.075710073    -0.147497141
  14    H       -1.346013214     1.542218795    -1.074590226
  15    H       -1.185222373     1.650145126     0.775303229
  16    C       -2.919151018    -0.398477323     0.095711125
  17    C       -3.805961953     0.795732645     0.085688791
  18    H       -3.715297493     1.354539917    -0.877329057
  19    H       -4.871821635     0.463213599     0.195649629
  20    H       -3.567510657     1.480653047     0.935193067
  21    O       -1.553360694    -0.247800928    -0.015516959
  22    O       -3.273546819    -1.554903258     0.195861708


           Empirical Formula: C8 H12 O2  =    22 atoms



      MOLECULAR POINT GROUP   :   C1  


                  EIGENVALUES  
 -32.08199 -30.60450 -28.52443 -27.40204 -26.70555 -25.47081 -22.89295 -21.37465
 -20.22040 -18.55067 -17.71227 -17.16941 -16.60326 -15.73363 -15.24431 -14.93317
 -14.38035 -14.11686 -14.06429 -13.83185 -13.49605 -12.95601 -12.40793 -12.03317
 -11.56882 -11.09585 -10.80683  -9.42631   0.44206   0.65989   1.02558   1.61198
   2.56392   3.40487   3.83989   4.21719   4.58062   4.75595   4.86218   4.98431
   5.04643   5.16625   5.21587   5.48702   5.58505   5.77816   5.85022   5.86689
   5.88575   6.39552   6.42731   6.52413


              NET ATOMIC CHARGES AND DIPOLE CONTRIBUTIONS

  ATOM NO.   TYPE          CHARGE      No. of ELECS.   s-Pop       p-Pop       
    1          C          -0.242772        4.2428     1.10749     3.13529
    2          H           0.163837        0.8362     0.83616
    3          C          -0.077698        4.0777     1.10731     2.97038
    4          H           0.168565        0.8314     0.83143
    5          C          -0.067638        4.0676     1.10912     2.95852
    6          H           0.139837        0.8602     0.86016
    7          C          -0.490442        4.4904     1.08926     3.40118
    8          H           0.169903        0.8301     0.83010
    9          H           0.165348        0.8347     0.83465
   10          H           0.168033        0.8320     0.83197
   11          C          -0.250992        4.2510     1.11264     3.13836
   12          H           0.165813        0.8342     0.83419
   13          C           0.011092        3.9889     1.10956     2.87935
   14          H           0.141921        0.8581     0.85808
   15          H           0.142249        0.8578     0.85775
   16          C           0.697498        3.3025     1.08424     2.21826
   17          C          -0.640845        4.6408     1.11188     3.52897
   18          H           0.210711        0.7893     0.78929
   19          H           0.217669        0.7823     0.78233
   20          H           0.210478        0.7895     0.78952
   21          O          -0.470651        6.4707     1.84347     4.62718
   22          O          -0.531918        6.5319     1.85233     4.67959
 DIPOLE           X         Y         Z       TOTAL
 POINT-CHG.     1.307     5.857    -0.201     6.005
 HYBRID        -0.048    -0.252     0.018     0.258
 SUM            1.259     5.605    -0.183     5.747


          ATOMIC ORBITAL ELECTRON POPULATIONS

     Atom    s        px        py        pz   
    1  C   1.10749   0.98159   1.07816   1.07553
    2  H   0.83616
    3  C   1.10731   0.98723   1.04108   0.94207
    4  H   0.83143
    5  C   1.10912   0.95388   1.00564   0.99900
    6  H   0.86016
    7  C   1.08926   1.04612   1.17637   1.17869
    8  H   0.83010
    9  H   0.83465
   10  H   0.83197
   11  C   1.11264   0.98501   1.06519   1.08815
   12  H   0.83419
   13  C   1.10956   0.95363   0.81064   1.11508
   14  H   0.85808
   15  H   0.85775
   16  C   1.08424   0.75209   0.82394   0.64223
   17  C   1.11188   1.17907   1.13379   1.21611
   18  H   0.78929
   19  H   0.78233
   20  H   0.78952
   21  O   1.84347   1.36746   1.43088   1.82885
   22  O   1.85233   1.77682   1.35295   1.54981

 **********************
 *                    *
 * JOB ENDED NORMALLY *
 *                    *
 **********************



 TOTAL JOB TIME:             4.43 SECONDS

 == MOPAC DONE ==
