 *******************************************************************************
 ** Site#: 37381        For non-commercial use only           Version 21.125L **
 *******************************************************************************
 ** Cite this program as: MOPAC2016, Version: 21.125L, James J. P. Stewart,   **
 ** Stewart Computational Chemistry, web: HTTP://OpenMOPAC.net. Days left: 191**
 *******************************************************************************
 **                                                                           **
 **                                MOPAC2016                                  **
 **                                                                           **
 *******************************************************************************

                              PM6-D3H4 CALCULATION RESULTS

 *******************************************************************************
 *  CALCULATION DONE:                                Tue Oct 26 21:00:42 2021  *
 *  PM6-D3H4   - CORRECT DISPERSION AND HYDROGEN BOND TERMS USING THE D3H4 METHOD
 *  EPS=2.38   - USE ANDREAS KLAMT'S COSMO IMPLICIT SOLVATION MODEL
 *  RSOLV=  3.480
 *  FORCE      - FORCE CALCULATION SPECIFIED
 *  T=         - A TIME OF 172800.0 SECONDS REQUESTED
 *  DUMP=N     - RESTART FILE WRITTEN EVERY 7200.0 SECONDS REQUESTED
 *  AUX        - OUTPUT AUXILIARY INFORMATION
 *  LARGE      - EXPANDED OUTPUT TO BE PRINTED
 *  THERMO     - THERMODYNAMIC QUANTITIES TO BE CALCULATED
 *******************************************************************************
 AUX LARGE FORCE THERMO PM6-D3H4 EPS=2.38 RSOLV=3.48
 DA_SM2_PM6_D3H4_THERMO

   ATOM   CHEMICAL          X               Y               Z
  NUMBER   SYMBOL      (ANGSTROMS)     (ANGSTROMS)     (ANGSTROMS)
 
     1       C         -1.18063000  *  -0.21350000  *  -0.00583000  *
     2       C         -0.66874000  *  -1.64205000  *   0.00586000  *
     3       C          0.66850000  *  -1.64230000  *   0.00900000  *
     4       C          1.18077000  *  -0.21408000  *  -0.00051000  *
     5       H         -1.36485000  *  -2.46986000  *   0.00931000  *
     6       H          1.36431000  *  -2.47037000  *   0.01548000  *
     7       C         -0.00017000  *   2.07796000  *   0.01056000  *
     8       H          0.95872000  *   2.45053000  *  -0.43464000  *
     9       H         -0.87077000  *   2.45420000  *  -0.58679000  *
    10       H         -0.08775000  *   2.42858000  *   1.07121000  *
    11       N          0.00035000  *   0.60175000  *  -0.02206000  *
    12       O          2.31066000  *   0.20195000  *   0.00057000  *
    13       O         -2.31058000  *   0.20201000  *  -0.00914000  *
 


          CARTESIAN COORDINATES 

    NO.       ATOM           X           Y           Z

     1         C         -1.1806     -0.2135     -0.0058
     2         C         -0.6687     -1.6421      0.0059
     3         C          0.6685     -1.6423      0.0090
     4         C          1.1808     -0.2141     -0.0005
     5         H         -1.3649     -2.4699      0.0093
     6         H          1.3643     -2.4704      0.0155
     7         C         -0.0002      2.0780      0.0106
     8         H          0.9587      2.4505     -0.4346
     9         H         -0.8708      2.4542     -0.5868
    10         H         -0.0878      2.4286      1.0712
    11         N          0.0004      0.6018     -0.0221
    12         O          2.3107      0.2020      0.0006
    13         O         -2.3106      0.2020     -0.0091

 General Reference for PM6:
 "Optimization of Parameters for Semiempirical Methods V: Modification of NDDO Approximations
 and Application to 70 Elements", J. J. P. Stewart, J. Mol. Mod., 13, 1173-1213 (2007)
 URL: https://link.springer.com/article/10.1007/s00894-007-0233-4

           Empirical Formula: C5 H5 N O2  =    13 atoms



      MOLECULAR POINT GROUP   :   Cs  


      RHF CALCULATION, NO. OF DOUBLY OCCUPIED LEVELS = 21



          HEAT OF FORMATION =     -52.715799 KCALS/MOLE


          CARTESIAN COORDINATE DERIVATIVES

   NUMBER  ATOM         X            Y            Z

     1       C      0.017349    -0.004454    -0.000541
     2       C     -0.004050    -0.019375    -0.010129
     3       C     -0.002133     0.000784     0.018489
     4       C     -0.007963    -0.016646     0.000617
     5       H      0.012929     0.004619     0.002261
     6       H     -0.009907    -0.010246     0.001811
     7       C     -0.004353     0.028960    -0.010567
     8       H      0.026906     0.007162     0.003787
     9       H     -0.022388    -0.013705    -0.002519
    10       H      0.000810    -0.004246    -0.001071
    11       N     -0.003696     0.006051     0.001682
    12       O      0.001564     0.004561     0.004504
    13       O     -0.005070     0.016535    -0.008324
 
 DIPOLE           X         Y         Z       TOTAL
 POINT-CHG.     1.552    -0.555     0.024     1.649
 HYBRID        -0.238     0.086     0.028     0.254
 SUM            1.314    -0.470     0.052     1.397


          GRADIENT NORM =   0.06959


          TIME FOR SCF CALCULATION =    0.02

          TIME FOR DERIVATIVES     =    0.00

          MOLECULAR WEIGHT =  111.10



          ROTATIONAL CONSTANTS IN CM(-1)

          A =    0.10796355   B =    0.07585851   C =    0.04495870



           PRINCIPAL MOMENTS OF INERTIA IN UNITS OF 10**(-40)*GRAM-CM**2

          A =      259.2799   B =      369.0130   C =      622.6331


          ORIENTATION OF MOLECULE IN FORCE CALCULATION

    NO.       ATOM         X         Y         Z

     1          C      -0.2170   -1.1764   -0.0032
     2          C       1.3006   -1.1764   -0.0032
     3          C       1.7519    0.0824   -0.0032
     4          C       0.5801    1.0464   -0.0034
     5          H       1.8450   -2.1110   -0.0042
     6          H       2.7662    0.4581   -0.0044
     7          C      -1.9758    0.7078    0.0272
     8          H      -2.0065    1.7363   -0.4175
     9          H      -2.6282    0.0153   -0.5653
    10          H      -2.3272    0.7434    1.0906
    11          N      -0.5862    0.2103   -0.0162
    12          O       0.5696    2.2504   -0.0019
    13          O      -0.9893   -2.1000   -0.0008


    FIRST DERIVATIVES WILL BE USED IN THE CALCULATION OF SECOND DERIVATIVES

          ESTIMATED TIME TO COMPLETE CALCULATION =        1.83 SECONDS

    FOR POINT-GROUP Cs   THERE ARE   2 UNIQUE SYMMETRY FUNCTIONS.

 STEP:   1 TIME =     0.02 SECS, INTEGRAL =      0.02 TIME LEFT: 172799.96
 STEP:   2 TIME =     0.02 SECS, INTEGRAL =      0.03 TIME LEFT: 172799.95
 STEP:   3 TIME =     0.02 SECS, INTEGRAL =      0.05 TIME LEFT: 172799.93
 STEP:   4 TIME =     0.02 SECS, INTEGRAL =      0.06 TIME LEFT: 172799.91
 STEP:   5 TIME =     0.02 SECS, INTEGRAL =      0.08 TIME LEFT: 172799.90
 STEP:   6 TIME =     0.02 SECS, INTEGRAL =      0.09 TIME LEFT: 172799.88
 STEP:   7                       INTEGRAL =      0.09 TIME LEFT: 172799.88
 STEP:   8                       INTEGRAL =      0.09 TIME LEFT: 172799.88
 STEP:   9                       INTEGRAL =      0.09 TIME LEFT: 172799.88
 STEP:  10                       INTEGRAL =      0.09 TIME LEFT: 172799.88
 STEP:  11                       INTEGRAL =      0.09 TIME LEFT: 172799.88
 STEP:  12                       INTEGRAL =      0.09 TIME LEFT: 172799.88
 STEP:  13 TIME =     0.02 SECS, INTEGRAL =      0.11 TIME LEFT: 172799.87
 STEP:  14 TIME =     0.02 SECS, INTEGRAL =      0.12 TIME LEFT: 172799.85
 STEP:  15 TIME =     0.02 SECS, INTEGRAL =      0.14 TIME LEFT: 172799.84
 STEP:  16                       INTEGRAL =      0.14 TIME LEFT: 172799.84
 STEP:  17                       INTEGRAL =      0.14 TIME LEFT: 172799.84
 STEP:  18                       INTEGRAL =      0.14 TIME LEFT: 172799.84
 STEP:  19 TIME =     0.02 SECS, INTEGRAL =      0.16 TIME LEFT: 172799.82
 STEP:  20 TIME =     0.02 SECS, INTEGRAL =      0.17 TIME LEFT: 172799.80
 STEP:  21 TIME =     0.02 SECS, INTEGRAL =      0.19 TIME LEFT: 172799.79
 STEP:  22 TIME =     0.02 SECS, INTEGRAL =      0.20 TIME LEFT: 172799.77
 STEP:  23 TIME =     0.02 SECS, INTEGRAL =      0.22 TIME LEFT: 172799.76
 STEP:  24 TIME =     0.01 SECS, INTEGRAL =      0.23 TIME LEFT: 172799.75
 STEP:  25                       INTEGRAL =      0.23 TIME LEFT: 172799.75
 STEP:  26                       INTEGRAL =      0.23 TIME LEFT: 172799.75
 STEP:  27                       INTEGRAL =      0.23 TIME LEFT: 172799.75
 STEP:  28 TIME =     0.01 SECS, INTEGRAL =      0.23 TIME LEFT: 172799.74
 STEP:  29 TIME =     0.02 SECS, INTEGRAL =      0.25 TIME LEFT: 172799.73
 STEP:  30 TIME =     0.02 SECS, INTEGRAL =      0.27 TIME LEFT: 172799.71
 STEP:  31 TIME =     0.02 SECS, INTEGRAL =      0.28 TIME LEFT: 172799.70
 STEP:  32 TIME =     0.02 SECS, INTEGRAL =      0.30 TIME LEFT: 172799.68
 STEP:  33 TIME =     0.02 SECS, INTEGRAL =      0.31 TIME LEFT: 172799.66
 STEP:  34 TIME =     0.02 SECS, INTEGRAL =      0.33 TIME LEFT: 172799.65
 STEP:  35 TIME =     0.02 SECS, INTEGRAL =      0.34 TIME LEFT: 172799.63
 STEP:  36 TIME =     0.02 SECS, INTEGRAL =      0.36 TIME LEFT: 172799.62
 STEP:  37                       INTEGRAL =      0.36 TIME LEFT: 172799.62
 STEP:  38                       INTEGRAL =      0.36 TIME LEFT: 172799.62
 STEP:  39                       INTEGRAL =      0.36 TIME LEFT: 172799.62

(To convert to Hartree/Bohr^2, multiply by (10^(-21) x N x a0^2)/(4.184 x 627.51) =  0.0642)


           FORCE MATRIX IN MILLIDYNES/ANGSTROM


                  C  1       C  2       C  3       C  4       H  5       H  6
 ------------------------------------------------------------------------------
     C    1  17.393855
     C    2   3.098399  15.480429
     C    3   1.074004   9.352478  15.480429
     C    4   2.244945   1.049124   3.098399  17.393855
     H    5   0.547025   3.546329   0.615369   0.175267   4.263762
     H    6   0.175263   0.615161   3.546451   0.545122   0.034229   4.263762
     C    7   0.483350   0.105825   0.105517   0.482865   0.015852   0.015648
     H    8   0.059921   0.022487   0.014371   0.134554   0.003762   0.002563
     H    9   0.099829   0.014735   0.022586   0.061928   0.002804   0.003874
     H   10   0.068226   0.012986   0.013360   0.069360   0.002151   0.002112
     N   11   3.661730   1.124194   1.124076   3.663492   0.067248   0.067321
     O   12   0.453130   0.079053   1.013147  11.479238   0.031695   0.047460
     O   13  11.454810   1.012895   0.077646   0.462996   0.047597   0.032578


                  C  7       H  8       H  9       H 10       N 11       O 12
 ------------------------------------------------------------------------------
     C    7  11.083354
     H    8   3.256694   4.181530
     H    9   3.256875   0.540051   4.181530
     H   10   3.248905   0.551883   0.547360   4.180656
     N   11   4.207086   0.747498   0.744466   0.722129  14.687914
     O   12   0.061495   0.074432   0.008784   0.019663   1.850705  13.588044
     O   13   0.057799   0.008099   0.117960   0.019397   1.863259   0.193596


                  O 13
 ------------------
     O   13  13.588044


          HEAT OF FORMATION =     -52.715799 KCALS/MOLE


          TRIVIAL VIBRATIONS, SHOULD BE ZERO

  35.7910=TX  44.4689=TY  11.8053=TZ -10.6846=RX -45.1303=RY -36.2505=RZ


      MOLECULAR POINT GROUP   :   Cs  


           EIGENVECTORS  


   Root No.       1         2         3         4         5         6         7         8

                 1 A"      1 A'      2 A'      2 A"      3 A"      3 A'      4 A'      5 A'  

                   0.0       0.1       0.1       0.2       0.2       0.7       0.7       0.8
  
           1    0.0069    0.0055    0.0073   -0.0103    0.0412   -0.0801    0.0551   -0.0008
           2   -0.0442   -0.0081    0.0088    0.0661   -0.1798   -0.0322    0.0293    0.0080
           3   -0.1471    0.1962    0.0191   -0.0479    0.0015    0.0052    0.0033    0.2609
           4    0.0085    0.0075    0.0071   -0.0182    0.0602   -0.0851    0.0641   -0.0041
           5   -0.0108   -0.0026   -0.0004    0.0059   -0.0233    0.0175   -0.0174    0.0111
           6   -0.0581   -0.1041   -0.0147    0.1527    0.0673    0.0022    0.0006    0.4416
           7   -0.0182    0.0058    0.0112    0.0199   -0.0535   -0.0782    0.0636    0.0023
           8   -0.0011   -0.0014   -0.0021   -0.0077    0.0168    0.0396   -0.0235    0.0088
           9    0.0872   -0.0748    0.0228   -0.1493   -0.0616    0.0004   -0.0014    0.4439
          10   -0.0348    0.0033    0.0112    0.0511   -0.1417   -0.0423    0.0256   -0.0020
          11   -0.0291   -0.0055    0.0019    0.0424   -0.1208    0.0690   -0.0506    0.0074
          12    0.0639    0.2379   -0.0143    0.0517    0.0061    0.0046   -0.0004    0.2609
          13    0.0274    0.0139   -0.0003   -0.0606    0.1694   -0.1953   -0.5407   -0.0302
          14   -0.0002    0.0012   -0.0048   -0.0187    0.0382   -0.0334   -0.3731   -0.0014
          15   -0.0978   -0.3493   -0.0414    0.5245    0.2104    0.0020   -0.0050   -0.3608
          16   -0.0317    0.0054    0.0143    0.0343   -0.0974   -0.1398   -0.1691    0.0146
          17    0.0278    0.0013   -0.0096   -0.0486    0.1332    0.1732    0.6139   -0.0206
          18    0.2204   -0.2889    0.1007   -0.5194   -0.2157   -0.0060   -0.0017   -0.3510
          19    0.0258   -0.0062   -0.0126   -0.0092    0.0188    0.1734    0.0031   -0.0042
          20    0.0364    0.0010   -0.0004   -0.0278    0.0770   -0.0606    0.0005   -0.0070
          21    0.0373   -0.0830    0.1309    0.0227   -0.0031   -0.0029    0.0010   -0.0500
          22   -0.0383    0.1223    0.1286   -0.1400    0.4341    0.4432    0.0003   -0.1155
          23   -0.1696   -0.0797   -0.0169   -0.0738    0.1534   -0.0661   -0.0009   -0.0213
          24   -0.4348   -0.2819    0.0796   -0.0508    0.0886   -0.0196   -0.0004   -0.0864
          25   -0.0753    0.1305    0.1564    0.0986   -0.2219    0.3458    0.0055   -0.1064
          26   -0.1688   -0.0991   -0.0490   -0.1555    0.3598   -0.1966    0.0026    0.0920
          27    0.4899   -0.1301   -0.0085    0.0529   -0.0719   -0.0196    0.0006   -0.0868
          28    0.1899   -0.2812   -0.3484   -0.0472    0.0047    0.3304   -0.0120    0.2456
          29    0.5049    0.2069    0.0525   -0.0123    0.1828   -0.1493   -0.0013   -0.0752
          30    0.0670   -0.1814    0.0222    0.0098   -0.0107    0.0411   -0.0034    0.0287
          31   -0.0133    0.0058    0.0064    0.0295   -0.0801    0.0979    0.0007   -0.0012
          32   -0.0462   -0.0075    0.0068    0.0785   -0.2156   -0.0371    0.0012    0.0012
          33   -0.0179    0.3614    0.6096    0.0836    0.0402    0.0113   -0.0010   -0.0700
          34   -0.0891   -0.0112    0.0151    0.1149   -0.3270   -0.4000    0.2565   -0.0164
          35   -0.0279   -0.0032    0.0028    0.0425   -0.1189    0.0711   -0.0501    0.0068
          36    0.0759    0.3794   -0.5290    0.2993    0.0695   -0.0118    0.0026   -0.2148
          37    0.0422   -0.0012    0.0038   -0.0630    0.1932   -0.3700    0.2475    0.0184
          38   -0.0711   -0.0032    0.0105    0.1089   -0.3027    0.2050   -0.1307   -0.0097
          39   -0.2858    0.3186   -0.3770   -0.4298   -0.1206   -0.0069    0.0053   -0.2163


   Root No.       9        10        11        12        13        14        15        16

                 4 A"      5 A"      6 A'      7 A'     13 ????    6 A"     15 ????   16 ????

                   0.8       1.0       1.1       1.4       1.6       1.8       1.9       1.9
  
           1   -0.0456   -0.0206    0.0040   -0.1648    0.0015    0.0330   -0.1833   -0.1639
           2   -0.0984   -0.1083   -0.0076   -0.0307    0.0079    0.0191   -0.1098   -0.0909
           3    0.0094    0.0118    0.0071    0.0002    0.0160    0.4591    0.0725    0.0123
           4    0.0055   -0.0016    0.0093   -0.2593    0.0048    0.0225   -0.1299   -0.1030
           5   -0.1455   -0.1091   -0.0020    0.1121    0.1279   -0.0416    0.1864    0.1231
           6    0.0186    0.0212   -0.1707   -0.0055    0.0565    0.4183    0.0053    0.0753
           7   -0.0913   -0.0679    0.0084   -0.2748    0.1047   -0.0417    0.1945    0.1730
           8   -0.1116   -0.0847    0.0006    0.0834    0.0943   -0.0184    0.0683    0.0242
           9    0.0189    0.0116   -0.1660   -0.0111   -0.0078   -0.4290   -0.0722   -0.0171
          10   -0.0249   -0.0550   -0.0028   -0.1131    0.0094   -0.0107    0.0724    0.0615
          11   -0.1092   -0.0969   -0.0024    0.1349   -0.0054    0.0372   -0.1845   -0.1987
          12    0.0136   -0.0075    0.0154   -0.0069   -0.0645   -0.4492   -0.0028   -0.0796
          13    0.4765    0.1672   -0.0137   -0.0794   -0.1405    0.0351   -0.1513   -0.0772
          14    0.1053   -0.0360   -0.0169    0.3164    0.1038   -0.0649    0.3338    0.2549
          15   -0.0137   -0.0156    0.1147    0.0018   -0.0375   -0.2301   -0.0054   -0.0278
          16   -0.3015   -0.1562    0.0071   -0.2614    0.2043   -0.0660    0.2989    0.2424
          17    0.4007    0.0947    0.0166   -0.2001    0.0147   -0.0288    0.1474    0.1540
          18   -0.0106   -0.0152    0.1139    0.0048    0.0293    0.2325    0.0377   -0.0030
          19   -0.0169    0.0319   -0.0205   -0.0227   -0.1318    0.0095    0.0156    0.0398
          20   -0.0324    0.0899   -0.0405   -0.0064   -0.3537    0.0183    0.0353    0.1375
          21    0.0027   -0.0170    0.0095    0.0231    0.0745   -0.0102   -0.2741    0.2968
          22    0.0855   -0.4240   -0.2908    0.2221    0.1713   -0.0003   -0.0619   -0.0681
          23   -0.0592    0.2361   -0.1711   -0.0357   -0.3663    0.0164    0.2558   -0.1097
          24   -0.0467    0.2916   -0.2547   -0.0465    0.3010   -0.0200    0.1501   -0.2992
          25   -0.1295    0.4925   -0.1434    0.1792   -0.1940   -0.0072   -0.1536    0.3395
          26    0.0391   -0.1513    0.3049   -0.1175   -0.1101    0.0099   -0.2006    0.2492
          27    0.0267   -0.2490   -0.3591   -0.0787   -0.3560    0.0274    0.1742   -0.0626
          28   -0.0120    0.1478    0.4923    0.1789    0.0038    0.0024    0.2147   -0.2494
          29   -0.0455    0.4177   -0.0771   -0.0472    0.4711   -0.0295   -0.0648   -0.1037
          30    0.0060    0.0096    0.1923    0.1001    0.1315   -0.0159   -0.2983    0.3061
          31   -0.0145   -0.0148    0.0093   -0.0807   -0.0289    0.0110   -0.0310   -0.0489
          32   -0.0319   -0.0444   -0.0145    0.0265   -0.0690    0.0223   -0.1187   -0.0870
          33    0.0054   -0.0278    0.4514    0.0146   -0.1297    0.0157    0.2218   -0.2105
          34    0.4562   -0.0950   -0.0398    0.4300    0.1175   -0.0237    0.0806   -0.0203
          35   -0.1028   -0.0923   -0.0010    0.1397   -0.0143    0.0407   -0.1999   -0.2148
          36   -0.0104   -0.0124    0.0251    0.0064    0.0257    0.2193    0.0222    0.0169
          37   -0.3875   -0.0044   -0.0195    0.2460   -0.1221    0.0363   -0.1657   -0.1253
          38    0.1914   -0.1155    0.0111   -0.3754    0.0990    0.0192   -0.1486   -0.1381
          39   -0.0199   -0.0014    0.0210   -0.0024   -0.0389   -0.2179   -0.0310   -0.0075


   Root No.      17        18        19        20        21        22        23        24

                 8 A'      9 A'      7 A"     10 A'      8 A"     11 A'      9 A"     12 A'  

                   2.7       3.3       3.4       3.9       4.3       5.2       6.7       7.8
  
           1   -0.0283    0.0029   -0.3586   -0.2142   -0.0004    0.2268   -0.3369   -0.1323
           2   -0.2573   -0.0000    0.3346   -0.2609    0.0047   -0.2262    0.1354    0.2334
           3   -0.0057    0.5475   -0.0031    0.0080    0.4553   -0.0048   -0.0017   -0.0014
           4   -0.0754   -0.0005   -0.2989   -0.0006    0.0001    0.0883    0.3199   -0.2473
           5    0.0171    0.0019   -0.1759   -0.0601    0.0002   -0.0028    0.3490    0.0501
           6    0.0094   -0.3377   -0.0000   -0.0088   -0.5111   -0.0006    0.0016   -0.0016
           7   -0.0661   -0.0017    0.1175    0.0400    0.0002    0.0695   -0.0285   -0.2223
           8    0.0382    0.0009   -0.3260    0.0410   -0.0008   -0.0512    0.4743    0.1154
           9    0.0097   -0.3298    0.0011    0.0022    0.5128    0.0033   -0.0013    0.0002
          10    0.1342    0.0011    0.4909    0.0105    0.0032    0.3237    0.3439   -0.2520
          11    0.2065   -0.0006    0.0272    0.3375   -0.0039    0.0332   -0.1102   -0.0951
          12   -0.0127    0.5469    0.0032    0.0042   -0.4593   -0.0006    0.0006   -0.0009
          13   -0.0927   -0.0040    0.1602    0.1876   -0.0001   -0.1901    0.1175    0.1156
          14    0.0770    0.0073    0.0787   -0.3435    0.0031    0.2529   -0.3051   -0.1667
          15    0.0002    0.1169   -0.0005    0.0026    0.0932   -0.0010   -0.0001   -0.0004
          16   -0.1133   -0.0063   -0.0813    0.3644   -0.0030   -0.3088   -0.2811    0.1964
          17    0.0084   -0.0038    0.1590    0.1481    0.0005   -0.0796   -0.1597    0.0544
          18   -0.0135    0.1153    0.0029    0.0038   -0.0942    0.0063    0.0007    0.0021
          19    0.4337    0.0141   -0.0126   -0.1277    0.0010    0.0999    0.0166    0.6344
          20   -0.1597   -0.0063   -0.0439    0.0543    0.0051   -0.0306    0.0406   -0.2282
          21    0.0166    0.0160   -0.0051    0.0002   -0.0002   -0.0079    0.0021   -0.0253
          22   -0.2267    0.0004    0.0532    0.0316    0.0004   -0.0435   -0.0039   -0.0483
          23   -0.2800   -0.0032   -0.1202    0.1718   -0.0006    0.3688   -0.0322    0.2031
          24    0.1506    0.0028    0.0578   -0.0824   -0.0034   -0.1560    0.0115   -0.0803
          25    0.0098    0.0031   -0.1090   -0.0822    0.0015   -0.2646   -0.0157   -0.1624
          26    0.3516    0.0012   -0.0538   -0.1458    0.0022   -0.2417   -0.0234   -0.1141
          27    0.1483   -0.0018   -0.0514   -0.0792    0.0032   -0.1696   -0.0127   -0.0932
          28   -0.1226   -0.0130    0.0013   -0.0307   -0.0002   -0.1561   -0.0019   -0.1080
          29    0.0717    0.0070    0.0288   -0.0061   -0.0040    0.0258   -0.0037    0.0228
          30   -0.3068   -0.0243    0.0021    0.1745   -0.0012    0.3520    0.0001    0.1916
          31    0.2967   -0.0018    0.0877    0.0056   -0.0024    0.2768   -0.0145    0.0716
          32   -0.1150   -0.0015    0.2424    0.0009   -0.0034   -0.0959   -0.0391   -0.0227
          33   -0.0003   -0.2911   -0.0038   -0.0156    0.0027   -0.0175   -0.0000    0.0084
          34   -0.0017    0.0028   -0.2292    0.0394   -0.0023   -0.0557    0.0115    0.0393
          35    0.2235   -0.0030   -0.0039    0.4062   -0.0053    0.0346   -0.1882   -0.1318
          36   -0.0050   -0.1818   -0.0014    0.0003    0.1422    0.0033    0.0000    0.0024
          37   -0.1475    0.0028    0.1788   -0.2237    0.0021   -0.0662   -0.1269    0.1153
          38   -0.1819    0.0000   -0.1469   -0.3432    0.0023    0.0127   -0.1378    0.0795
          39    0.0093   -0.1790   -0.0016   -0.0099   -0.1399   -0.0068   -0.0007   -0.0017


   Root No.      25        26        27        28        29        30        31        32

                13 A'     10 A"     14 A'     11 A"     12 A"     15 A'     16 A'     13 A"  

                   8.6       8.9      10.1      10.4      11.0      15.7      23.0      25.2
  
           1    0.0045    0.0504   -0.3454    0.1403    0.0242   -0.2048   -0.0255    0.3678
           2   -0.0045   -0.1220    0.2007   -0.0863   -0.2573    0.1915   -0.0472    0.3633
           3   -0.0204   -0.0018   -0.0010    0.0006    0.0054    0.0010    0.0001   -0.0011
           4   -0.0023    0.0246    0.4968   -0.4878    0.0419   -0.0351    0.1759   -0.0238
           5   -0.0012   -0.0064   -0.0976    0.3713    0.0580   -0.0199    0.6771   -0.0185
           6    0.0078   -0.0011    0.0000   -0.0003   -0.0008   -0.0011    0.0000   -0.0001
           7   -0.0038   -0.0223    0.4391    0.6175    0.0108   -0.0146   -0.2939    0.0046
           8    0.0004    0.0099   -0.2396   -0.0254    0.0678    0.0379   -0.6348   -0.0312
           9    0.0092    0.0008    0.0008    0.0001    0.0008   -0.0009    0.0001   -0.0000
          10   -0.0048   -0.1192   -0.3889   -0.1673   -0.1840   -0.2800    0.0105   -0.0532
          11   -0.0025   -0.0642    0.0660    0.0234   -0.1804   -0.0186    0.0513    0.5090
          12   -0.0190    0.0023   -0.0009   -0.0004   -0.0045    0.0009    0.0001   -0.0000
          13   -0.0011   -0.0146   -0.0825    0.1664   -0.0030    0.0105    0.0358   -0.0010
          14   -0.0002    0.0123    0.1706   -0.2470   -0.0176   -0.0085   -0.0690    0.0049
          15   -0.0014   -0.0006   -0.0000   -0.0001    0.0006    0.0000   -0.0001    0.0001
          16    0.0026    0.0183   -0.1691   -0.2874   -0.0112    0.0135    0.0715    0.0045
          17    0.0004    0.0001   -0.0781   -0.0860   -0.0164   -0.0002    0.0305    0.0032
          18    0.0011    0.0032   -0.0000    0.0002   -0.0001    0.0001   -0.0002   -0.0004
          19    0.0386    0.2586    0.2285    0.0074   -0.0948   -0.3401   -0.0112    0.0031
          20    0.0236    0.7213   -0.0805    0.0177   -0.2678    0.1206    0.0039    0.0080
          21    0.7947   -0.0383   -0.0051    0.0003    0.0016    0.0191    0.0010   -0.0003
          22   -0.0040    0.0069   -0.0049   -0.0002    0.0395   -0.0090   -0.0002   -0.0003
          23    0.1639   -0.3909    0.0312   -0.0057    0.0695   -0.0037    0.0008    0.0022
          24   -0.1118    0.1552   -0.0126    0.0024   -0.0299    0.0030   -0.0003   -0.0014
          25   -0.1596   -0.2174   -0.0221   -0.0036    0.0106   -0.0053   -0.0007    0.0017
          26   -0.1763   -0.2487   -0.0188   -0.0045    0.0705    0.0081   -0.0005    0.0012
          27   -0.1728   -0.1618   -0.0145   -0.0033    0.0353    0.0048   -0.0003    0.0007
          28    0.1331   -0.0296   -0.0148   -0.0002    0.0049   -0.0102   -0.0007    0.0005
          29   -0.0125   -0.0298    0.0028   -0.0005    0.0169    0.0047    0.0002    0.0009
          30   -0.4701    0.0468    0.0283    0.0004   -0.0064   -0.0105    0.0005    0.0001
          31   -0.0040    0.0773   -0.0898   -0.0176    0.2796    0.7876    0.0435    0.0043
          32    0.0116    0.2150    0.0264   -0.0484    0.7882   -0.2799   -0.0157    0.0105
          33   -0.0251   -0.0018    0.0039    0.0001   -0.0009   -0.0154   -0.0007    0.0013
          34   -0.0000   -0.0190    0.0217    0.0108   -0.0477    0.0274   -0.0115    0.0051
          35   -0.0015   -0.0487    0.1342    0.0493   -0.1676   -0.0613   -0.0224   -0.4821
          36    0.0056   -0.0002    0.0009    0.0004   -0.0011   -0.0004   -0.0001    0.0003
          37    0.0009   -0.0140   -0.0684    0.0216   -0.0708    0.0601    0.0065   -0.3134
          38   -0.0012   -0.0478   -0.1174    0.0419   -0.1637    0.0292    0.0259   -0.3713
          39    0.0022   -0.0028    0.0003   -0.0004   -0.0000   -0.0007   -0.0001    0.0008


   Root No.      33

                17 A'  

                  27.6
  
           1   -0.3429
           2   -0.4112
           3    0.0003
           4    0.0289
           5   -0.0623
           6    0.0004
           7    0.0629
           8    0.0293
           9    0.0000
          10   -0.0039
          11    0.5403
          12   -0.0001
          13   -0.0033
          14    0.0024
          15   -0.0004
          16   -0.0042
          17    0.0001
          18   -0.0004
          19    0.0061
          20   -0.0022
          21   -0.0008
          22    0.0019
          23    0.0029
          24   -0.0015
          25   -0.0003
          26   -0.0032
          27   -0.0014
          28    0.0013
          29   -0.0005
          30    0.0016
          31   -0.0404
          32    0.0142
          33    0.0023
          34    0.0043
          35   -0.4549
          36    0.0003
          37    0.2897
          38    0.3450
          39   -0.0004


          FORCE CONSTANTS IN MILLIDYNES/ANGSTROM (= 10**5 DYNES/CM)

   0.00182   0.06038   0.13445   0.15583   0.17302   0.70033   0.72063   0.78550
   0.79942   0.95017   1.08508   1.36654   1.60497   1.80252   1.87882   1.92284
   2.66755   3.32217   3.37790   3.90394   4.30985   5.19607   6.67548   7.81810
   8.61593   8.87184  10.08020  10.43936  11.03587  15.69882  22.95612  25.22934
  27.56600


           ASSOCIATED EIGENVECTORS




    ROOT NO.    1           2           3           4           5           6

             0.00182     0.06038     0.13445     0.15583     0.17302     0.70033
  
         1   0.00690     0.00547     0.00727    -0.01027     0.04119    -0.08006
         2  -0.04423    -0.00807     0.00876     0.06612    -0.17981    -0.03219
         3  -0.14714     0.19618     0.01915    -0.04786     0.00154     0.00523
         4   0.00847     0.00750     0.00711    -0.01817     0.06024    -0.08511
         5  -0.01082    -0.00258    -0.00038     0.00592    -0.02326     0.01749
         6  -0.05814    -0.10407    -0.01472     0.15272     0.06726     0.00225
         7  -0.01817     0.00577     0.01117     0.01995    -0.05351    -0.07818
         8  -0.00112    -0.00138    -0.00213    -0.00772     0.01683     0.03959
         9   0.08722    -0.07484     0.02281    -0.14935    -0.06165     0.00036
        10  -0.03481     0.00329     0.01117     0.05114    -0.14171    -0.04232
        11  -0.02915    -0.00552     0.00187     0.04241    -0.12083     0.06899
        12   0.06385     0.23789    -0.01434     0.05168     0.00613     0.00460
        13   0.02742     0.01388    -0.00033    -0.06056     0.16936    -0.19527
        14  -0.00025     0.00120    -0.00478    -0.01867     0.03815    -0.03342
        15  -0.09780    -0.34926    -0.04141     0.52445     0.21040     0.00198
        16  -0.03170     0.00536     0.01433     0.03428    -0.09742    -0.13980
        17   0.02783     0.00127    -0.00962    -0.04863     0.13324     0.17318
        18   0.22040    -0.28894     0.10072    -0.51938    -0.21573    -0.00599
        19   0.02584    -0.00625    -0.01260    -0.00920     0.01884     0.17339
        20   0.03635     0.00102    -0.00043    -0.02776     0.07697    -0.06057
        21   0.03735    -0.08298     0.13085     0.02269    -0.00308    -0.00291
        22  -0.03828     0.12226     0.12862    -0.14005     0.43411     0.44322
        23  -0.16957    -0.07970    -0.01692    -0.07376     0.15340    -0.06614
        24  -0.43480    -0.28188     0.07963    -0.05083     0.08859    -0.01960
        25  -0.07533     0.13051     0.15639     0.09859    -0.22193     0.34578
        26  -0.16880    -0.09914    -0.04901    -0.15545     0.35975    -0.19661
        27   0.48993    -0.13014    -0.00853     0.05293    -0.07190    -0.01955
        28   0.18991    -0.28120    -0.34839    -0.04720     0.00468     0.33037
        29   0.50495     0.20688     0.05249    -0.01231     0.18275    -0.14927
        30   0.06702    -0.18139     0.02218     0.00976    -0.01069     0.04114
        31  -0.01333     0.00582     0.00638     0.02951    -0.08010     0.09794
        32  -0.04619    -0.00755     0.00683     0.07852    -0.21560    -0.03713
        33  -0.01793     0.36138     0.60965     0.08362     0.04020     0.01125
        34  -0.08908    -0.01120     0.01509     0.11495    -0.32699    -0.39996
        35  -0.02793    -0.00325     0.00278     0.04249    -0.11894     0.07110
        36   0.07588     0.37943    -0.52899     0.29934     0.06954    -0.01182
        37   0.04217    -0.00122     0.00378    -0.06296     0.19325    -0.37001
        38  -0.07108    -0.00319     0.01053     0.10885    -0.30266     0.20498
        39  -0.28584     0.31861    -0.37698    -0.42977    -0.12061    -0.00693




    ROOT NO.    7           8           9          10          11          12

             0.72063     0.78550     0.79942     0.95017     1.08508     1.36654
  
         1   0.05508    -0.00078    -0.04561    -0.02057     0.00403    -0.16481
         2   0.02929     0.00798    -0.09843    -0.10831    -0.00763    -0.03069
         3   0.00325     0.26092     0.00936     0.01175     0.00715     0.00017
         4   0.06409    -0.00411     0.00547    -0.00160     0.00935    -0.25927
         5  -0.01736     0.01109    -0.14549    -0.10911    -0.00204     0.11213
         6   0.00061     0.44163     0.01865     0.02123    -0.17066    -0.00551
         7   0.06361     0.00232    -0.09130    -0.06787     0.00836    -0.27484
         8  -0.02347     0.00882    -0.11161    -0.08467     0.00060     0.08336
         9  -0.00145     0.44390     0.01886     0.01164    -0.16601    -0.01106
        10   0.02558    -0.00204    -0.02494    -0.05499    -0.00279    -0.11307
        11  -0.05060     0.00736    -0.10918    -0.09692    -0.00239     0.13488
        12  -0.00041     0.26091     0.01361    -0.00748     0.01539    -0.00693
        13  -0.54071    -0.03017     0.47649     0.16721    -0.01368    -0.07942
        14  -0.37307    -0.00140     0.10529    -0.03597    -0.01692     0.31643
        15  -0.00498    -0.36078    -0.01368    -0.01558     0.11468     0.00181
        16  -0.16909     0.01463    -0.30152    -0.15615     0.00714    -0.26144
        17   0.61387    -0.02056     0.40068     0.09474     0.01659    -0.20013
        18  -0.00170    -0.35105    -0.01058    -0.01519     0.11390     0.00477
        19   0.00307    -0.00423    -0.01689     0.03190    -0.02055    -0.02270
        20   0.00047    -0.00704    -0.03238     0.08994    -0.04054    -0.00642
        21   0.00096    -0.04997     0.00266    -0.01700     0.00948     0.02314
        22   0.00029    -0.11555     0.08548    -0.42400    -0.29085     0.22214
        23  -0.00086    -0.02127    -0.05919     0.23613    -0.17107    -0.03570
        24  -0.00036    -0.08638    -0.04668     0.29161    -0.25468    -0.04653
        25   0.00545    -0.10637    -0.12948     0.49251    -0.14335     0.17917
        26   0.00264     0.09197     0.03906    -0.15132     0.30489    -0.11748
        27   0.00058    -0.08684     0.02670    -0.24902    -0.35911    -0.07869
        28  -0.01202     0.24557    -0.01197     0.14779     0.49231     0.17889
        29  -0.00134    -0.07523    -0.04548     0.41770    -0.07708    -0.04719
        30  -0.00339     0.02870     0.00600     0.00960     0.19229     0.10012
        31   0.00067    -0.00122    -0.01446    -0.01478     0.00935    -0.08065
        32   0.00125     0.00120    -0.03189    -0.04438    -0.01450     0.02652
        33  -0.00097    -0.06999     0.00544    -0.02776     0.45141     0.01463
        34   0.25650    -0.01644     0.45623    -0.09504    -0.03982     0.43001
        35  -0.05013     0.00675    -0.10278    -0.09233    -0.00099     0.13970
        36   0.00257    -0.21478    -0.01044    -0.01241     0.02511     0.00644
        37   0.24747     0.01838    -0.38750    -0.00442    -0.01951     0.24599
        38  -0.13069    -0.00967     0.19140    -0.11549     0.01107    -0.37542
        39   0.00529    -0.21626    -0.01990    -0.00138     0.02102    -0.00237




    ROOT NO.   13          14          15          16          17          18

             1.60497     1.80252     1.87882     1.92284     2.66755     3.32217
  
         1   0.00155     0.03299    -0.18333    -0.16387    -0.02833     0.00293
         2   0.00794     0.01911    -0.10983    -0.09094    -0.25731    -0.00002
         3   0.01597     0.45907     0.07255     0.01226    -0.00568     0.54747
         4   0.00476     0.02253    -0.12993    -0.10299    -0.07540    -0.00047
         5   0.12794    -0.04163     0.18636     0.12308     0.01708     0.00193
         6   0.05646     0.41826     0.00527     0.07531     0.00939    -0.33775
         7   0.10471    -0.04171     0.19452     0.17304    -0.06614    -0.00168
         8   0.09426    -0.01838     0.06831     0.02421     0.03820     0.00086
         9  -0.00783    -0.42905    -0.07223    -0.01713     0.00973    -0.32982
        10   0.00942    -0.01074     0.07244     0.06154     0.13417     0.00108
        11  -0.00540     0.03724    -0.18452    -0.19865     0.20654    -0.00056
        12  -0.06452    -0.44916    -0.00278    -0.07965    -0.01273     0.54692
        13  -0.14053     0.03514    -0.15128    -0.07720    -0.09272    -0.00401
        14   0.10384    -0.06492     0.33380     0.25491     0.07700     0.00725
        15  -0.03750    -0.23011    -0.00544    -0.02780     0.00017     0.11693
        16   0.20428    -0.06604     0.29889     0.24239    -0.11329    -0.00632
        17   0.01466    -0.02884     0.14742     0.15400     0.00843    -0.00381
        18   0.02933     0.23245     0.03770    -0.00303    -0.01355     0.11534
        19  -0.13184     0.00948     0.01556     0.03975     0.43369     0.01406
        20  -0.35371     0.01833     0.03531     0.13747    -0.15971    -0.00626
        21   0.07452    -0.01018    -0.27411     0.29683     0.01656     0.01595
        22   0.17134    -0.00035    -0.06191    -0.06813    -0.22674     0.00040
        23  -0.36628     0.01645     0.25576    -0.10973    -0.28000    -0.00324
        24   0.30100    -0.02005     0.15009    -0.29919     0.15058     0.00285
        25  -0.19404    -0.00724    -0.15359     0.33950     0.00980     0.00315
        26  -0.11009     0.00990    -0.20056     0.24923     0.35157     0.00125
        27  -0.35597     0.02744     0.17424    -0.06261     0.14830    -0.00180
        28   0.00383     0.00237     0.21469    -0.24943    -0.12257    -0.01298
        29   0.47108    -0.02951    -0.06478    -0.10365     0.07168     0.00705
        30   0.13145    -0.01590    -0.29830     0.30612    -0.30683    -0.02425
        31  -0.02893     0.01104    -0.03098    -0.04894     0.29671    -0.00178
        32  -0.06898     0.02232    -0.11873    -0.08702    -0.11503    -0.00150
        33  -0.12973     0.01573     0.22183    -0.21048    -0.00029    -0.29111
        34   0.11751    -0.02374     0.08060    -0.02034    -0.00172     0.00284
        35  -0.01426     0.04070    -0.19993    -0.21482     0.22347    -0.00299
        36   0.02570     0.21935     0.02217     0.01690    -0.00496    -0.18175
        37  -0.12207     0.03627    -0.16569    -0.12533    -0.14749     0.00279
        38   0.09899     0.01924    -0.14861    -0.13810    -0.18193     0.00005
        39  -0.03890    -0.21785    -0.03099    -0.00753     0.00931    -0.17898




    ROOT NO.   19          20          21          22          23          24

             3.37790     3.90394     4.30985     5.19607     6.67548     7.81810
  
         1  -0.35859    -0.21417    -0.00042     0.22677    -0.33692    -0.13226
         2   0.33464    -0.26088     0.00471    -0.22621     0.13543     0.23335
         3  -0.00309     0.00801     0.45527    -0.00484    -0.00168    -0.00136
         4  -0.29895    -0.00061     0.00010     0.08826     0.31989    -0.24728
         5  -0.17592    -0.06014     0.00016    -0.00283     0.34898     0.05012
         6  -0.00004    -0.00879    -0.51112    -0.00057     0.00159    -0.00159
         7   0.11745     0.03999     0.00023     0.06948    -0.02850    -0.22225
         8  -0.32602     0.04099    -0.00082    -0.05118     0.47429     0.11535
         9   0.00109     0.00220     0.51279     0.00325    -0.00126     0.00020
        10   0.49093     0.01053     0.00317     0.32366     0.34391    -0.25200
        11   0.02719     0.33745    -0.00394     0.03317    -0.11015    -0.09513
        12   0.00320     0.00417    -0.45934    -0.00058     0.00058    -0.00093
        13   0.16019     0.18761    -0.00013    -0.19007     0.11745     0.11564
        14   0.07867    -0.34353     0.00310     0.25295    -0.30511    -0.16667
        15  -0.00052     0.00263     0.09318    -0.00096    -0.00013    -0.00037
        16  -0.08127     0.36442    -0.00299    -0.30876    -0.28111     0.19640
        17   0.15897     0.14814     0.00048    -0.07958    -0.15966     0.05435
        18   0.00293     0.00380    -0.09424     0.00634     0.00065     0.00214
        19  -0.01256    -0.12772     0.00097     0.09994     0.01664     0.63440
        20  -0.04395     0.05429     0.00513    -0.03058     0.04057    -0.22821
        21  -0.00514     0.00019    -0.00018    -0.00793     0.00207    -0.02532
        22   0.05319     0.03157     0.00044    -0.04350    -0.00387    -0.04829
        23  -0.12018     0.17180    -0.00063     0.36885    -0.03215     0.20308
        24   0.05776    -0.08239    -0.00340    -0.15605     0.01149    -0.08031
        25  -0.10895    -0.08217     0.00146    -0.26465    -0.01567    -0.16242
        26  -0.05378    -0.14580     0.00221    -0.24172    -0.02341    -0.11413
        27  -0.05141    -0.07920     0.00319    -0.16961    -0.01271    -0.09323
        28   0.00131    -0.03068    -0.00024    -0.15605    -0.00192    -0.10802
        29   0.02882    -0.00609    -0.00405     0.02577    -0.00371     0.02284
        30   0.00207     0.17454    -0.00116     0.35197     0.00012     0.19163
        31   0.08767     0.00561    -0.00236     0.27683    -0.01447     0.07156
        32   0.24236     0.00085    -0.00339    -0.09592    -0.03913    -0.02272
        33  -0.00376    -0.01557     0.00271    -0.01753    -0.00000     0.00841
        34  -0.22923     0.03935    -0.00229    -0.05573     0.01146     0.03925
        35  -0.00389     0.40617    -0.00530     0.03458    -0.18819    -0.13178
        36  -0.00144     0.00032     0.14216     0.00330     0.00004     0.00237
        37   0.17880    -0.22373     0.00207    -0.06620    -0.12689     0.11528
        38  -0.14691    -0.34325     0.00232     0.01270    -0.13777     0.07955
        39  -0.00165    -0.00992    -0.13986    -0.00682    -0.00074    -0.00165




    ROOT NO.   25          26          27          28          29          30

             8.61593     8.87184    10.08020    10.43936    11.03587    15.69882
  
         1   0.00446     0.05037    -0.34538     0.14030     0.02422    -0.20477
         2  -0.00452    -0.12201     0.20067    -0.08628    -0.25727     0.19147
         3  -0.02041    -0.00176    -0.00097     0.00060     0.00536     0.00097
         4  -0.00234     0.02464     0.49680    -0.48775     0.04194    -0.03508
         5  -0.00120    -0.00640    -0.09756     0.37134     0.05803    -0.01989
         6   0.00779    -0.00108     0.00005    -0.00029    -0.00078    -0.00108
         7  -0.00381    -0.02233     0.43905     0.61754     0.01076    -0.01465
         8   0.00040     0.00990    -0.23962    -0.02538     0.06778     0.03791
         9   0.00925     0.00082     0.00080     0.00009     0.00075    -0.00090
        10  -0.00479    -0.11923    -0.38893    -0.16732    -0.18403    -0.28003
        11  -0.00255    -0.06418     0.06600     0.02340    -0.18040    -0.01855
        12  -0.01902     0.00227    -0.00088    -0.00041    -0.00446     0.00091
        13  -0.00108    -0.01456    -0.08250     0.16639    -0.00304     0.01049
        14  -0.00020     0.01228     0.17061    -0.24698    -0.01756    -0.00848
        15  -0.00143    -0.00056    -0.00001    -0.00007     0.00065     0.00004
        16   0.00264     0.01830    -0.16913    -0.28737    -0.01124     0.01351
        17   0.00037     0.00005    -0.07812    -0.08598    -0.01644    -0.00022
        18   0.00113     0.00320    -0.00005     0.00017    -0.00011     0.00013
        19   0.03858     0.25862     0.22848     0.00742    -0.09476    -0.34015
        20   0.02357     0.72131    -0.08050     0.01775    -0.26783     0.12064
        21   0.79467    -0.03828    -0.00506     0.00028     0.00165     0.01915
        22  -0.00402     0.00688    -0.00495    -0.00025     0.03948    -0.00897
        23   0.16391    -0.39089     0.03124    -0.00571     0.06953    -0.00365
        24  -0.11181     0.15523    -0.01264     0.00244    -0.02985     0.00302
        25  -0.15964    -0.21740    -0.02209    -0.00360     0.01063    -0.00530
        26  -0.17625    -0.24874    -0.01876    -0.00446     0.07046     0.00810
        27  -0.17277    -0.16178    -0.01455    -0.00332     0.03528     0.00482
        28   0.13307    -0.02964    -0.01476    -0.00023     0.00488    -0.01025
        29  -0.01246    -0.02984     0.00280    -0.00049     0.01689     0.00467
        30  -0.47007     0.04676     0.02831     0.00042    -0.00644    -0.01048
        31  -0.00397     0.07730    -0.08983    -0.01756     0.27958     0.78763
        32   0.01162     0.21502     0.02643    -0.04842     0.78816    -0.27990
        33  -0.02512    -0.00179     0.00386     0.00011    -0.00095    -0.01540
        34  -0.00003    -0.01896     0.02165     0.01081    -0.04767     0.02745
        35  -0.00148    -0.04874     0.13421     0.04927    -0.16761    -0.06126
        36   0.00557    -0.00024     0.00085     0.00041    -0.00107    -0.00044
        37   0.00093    -0.01399    -0.06842     0.02163    -0.07076     0.06012
        38  -0.00121    -0.04776    -0.11741     0.04195    -0.16374     0.02917
        39   0.00222    -0.00279     0.00028    -0.00044    -0.00002    -0.00074




    ROOT NO.   31          32          33

            22.95612    25.22934    27.56600
  
         1  -0.02546     0.36782    -0.34287
         2  -0.04717     0.36335    -0.41122
         3   0.00011    -0.00111     0.00028
         4   0.17594    -0.02378     0.02889
         5   0.67706    -0.01850    -0.06226
         6   0.00003    -0.00012     0.00036
         7  -0.29388     0.00462     0.06288
         8  -0.63477    -0.03120     0.02929
         9   0.00014    -0.00003     0.00003
        10   0.01050    -0.05323    -0.00394
        11   0.05135     0.50902     0.54029
        12   0.00013    -0.00004    -0.00008
        13   0.03580    -0.00101    -0.00331
        14  -0.06903     0.00489     0.00242
        15  -0.00011     0.00015    -0.00044
        16   0.07147     0.00451    -0.00417
        17   0.03046     0.00316     0.00011
        18  -0.00015    -0.00042    -0.00040
        19  -0.01121     0.00315     0.00612
        20   0.00390     0.00800    -0.00218
        21   0.00104    -0.00026    -0.00076
        22  -0.00023    -0.00029     0.00190
        23   0.00077     0.00215     0.00286
        24  -0.00034    -0.00137    -0.00150
        25  -0.00070     0.00167    -0.00028
        26  -0.00050     0.00120    -0.00316
        27  -0.00034     0.00068    -0.00142
        28  -0.00071     0.00048     0.00126
        29   0.00022     0.00089    -0.00046
        30   0.00046     0.00012     0.00162
        31   0.04351     0.00433    -0.04044
        32  -0.01573     0.01053     0.01421
        33  -0.00074     0.00130     0.00234
        34  -0.01147     0.00510     0.00428
        35  -0.02244    -0.48215    -0.45494
        36  -0.00009     0.00034     0.00034
        37   0.00645    -0.31337     0.28967
        38   0.02587    -0.37133     0.34503
        39  -0.00015     0.00075    -0.00037

          ZERO POINT ENERGY      56.789 KCAL/MOL


           FREQUENCIES, REDUCED MASSES AND VIBRATIONAL DIPOLES



   I         1         2         3         4         5         6
 FREQ(I)  126.0154  197.5384  253.0734  263.7480  351.0191  503.0732

 MASS(I)   4.00365   2.98515   1.61943   1.35158   4.34854   0.34094

 DIPX(I)  -0.03801  -0.05057   0.02193   0.01705  -1.60562  -0.09044
 DIPY(I)   0.01384   0.01803   0.06144   0.04774   0.57569  -0.25220
 DIPZ(I)   0.47875  -0.80404  -0.00025  -0.00010   0.03876   0.00001

 DIPT(I)   0.48045   0.80583   0.06523   0.05070   1.70615   0.26793


   I         7         8         9        10        11        12
 FREQ(I)  542.8798  545.5457  548.4166  647.6764  674.3938  838.3285

 MASS(I)   0.95003   1.95895   2.29862   2.39097   3.05039   1.82804

 DIPX(I)   0.22512   0.22622  -0.00041   0.29625   0.00244  -0.71250
 DIPY(I)   0.62725  -0.08360   0.00037   0.82633   0.00680   0.25496
 DIPZ(I)  -0.00024   0.04160   0.91724  -0.00021   0.00001  -0.08913

 DIPT(I)   0.66642   0.24473   0.91724   0.87783   0.00722   0.76198


   I        13        14        15        16        17        18
 FREQ(I)  880.4650  958.6081  988.9512 1050.2706 1053.4156 1097.8214

 MASS(I)   0.58280   1.07208   1.08383   1.20883   0.60160   0.64565

 DIPX(I)  -0.00624   0.00011  -0.34424   0.88270  -0.83213   0.03163
 DIPY(I)   0.00257   0.00030  -0.96015   2.45845   0.30079  -0.01249
 DIPZ(I)   1.34116   0.00000  -0.00017   0.00014  -0.00362   0.15458

 DIPT(I)   1.34118   0.00032   1.02000   2.61211   0.88484   0.15828


   I        19        20        21        22        23        24
 FREQ(I) 1174.1075 1218.7896 1265.1073 1391.4054 1401.8056 1404.1883

 MASS(I)   0.88446   0.76223   1.86134   1.15306   0.33465   0.92224

 DIPX(I)  -0.57784   0.04228  -0.53398  -0.83846   0.24137  -0.68073
 DIPY(I)   0.20736   0.11810  -1.48923   0.30574   0.62499   0.26176
 DIPZ(I)  -0.03910   0.00030   0.00118  -0.49812  -0.00729   0.56819

 DIPT(I)   0.61517   0.12545   1.58207   1.02207   0.67002   0.92453


   I        25        26        27        28        29        30
 FREQ(I) 1468.4254 1736.4225 1777.6054 1873.0771 2603.8068 2612.3614

 MASS(I)   0.94937   5.48455   3.42798   3.48229   0.49707   0.47366

 DIPX(I)   1.08875   0.42956   4.19813  -0.57308   0.21720   0.07159
 DIPY(I)  -0.39078  -0.15403  11.70944   0.20545   0.60489  -0.02676
 DIPZ(I)  -0.02337   0.00204  -0.00258   0.00750   0.00118   0.73477

 DIPT(I)   1.15699   0.45635  12.43927   0.60885   0.64270   0.73873


   I        31        32        33        34        35        36
 FREQ(I) 2736.5267 2753.9039 2785.5434   59.7418   21.4273   38.3139

 MASS(I)   0.46514   0.46119   0.32635   1.58856   1.58856   1.58855

 DIPX(I)   0.42231   1.32078  -0.39665   0.00700   0.02408   0.00759
 DIPY(I)   1.17794  -0.47352   0.14212   0.02408   0.06553  -0.00274
 DIPZ(I)  -0.00026  -0.00688   0.02951   0.00116  -0.00043  -0.00317

 DIPT(I)   1.25136   1.40311   0.42237   0.02511   0.06982   0.00867


   I        37        38        39
 FREQ(I)  120.0817   71.3917   80.3181

 MASS(I)   2.38807   4.87861   2.21939

 DIPX(I)  -0.01136   0.02637  -0.03925
 DIPY(I)   0.00284   0.10461  -0.11212
 DIPZ(I)  -0.11204   0.00002   0.00289

 DIPT(I)   0.11265   0.10789   0.11882


           NORMAL COORDINATE ANALYSIS (Total motion = 1 Angstrom)


   Root No.       1         2         3         4         5         6         7         8

                 1 A'      2 A'      1 A"      2 A"      3 A'      3 A"      4 A"      4 A'  

                 126.0     197.5     253.1     263.7     351.0     503.1     542.9     545.5
  
           1    0.0005    0.0015   -0.0037   -0.0022   -0.0350    0.0143   -0.0269   -0.0459
           2    0.0007    0.0006   -0.0134   -0.0079    0.0212   -0.0143    0.0491   -0.0692
           3    0.0067    0.0227   -0.0219    0.0326   -0.0030   -0.0042   -0.0019    0.0136
           4    0.0007    0.0020    0.0002    0.0000   -0.0416    0.0163   -0.0422   -0.0589
           5   -0.0001   -0.0005   -0.0016   -0.0015    0.0198    0.0073   -0.0291    0.0166
           6    0.0515   -0.0482   -0.0445    0.0754    0.0028   -0.0019   -0.0013   -0.0023
           7    0.0006    0.0019   -0.0011   -0.0010   -0.0447   -0.0079    0.0139   -0.0562
           8   -0.0003   -0.0008   -0.0011   -0.0011    0.0111    0.0161   -0.0492    0.0249
           9    0.0515   -0.0483    0.0447   -0.0753    0.0028    0.0019    0.0011   -0.0024
          10   -0.0001    0.0007   -0.0056   -0.0033   -0.0405   -0.0201    0.0520    0.0082
          11   -0.0009   -0.0013   -0.0127   -0.0075    0.0058   -0.0020    0.0211    0.0825
          12    0.0067    0.0227    0.0219   -0.0325   -0.0029    0.0042    0.0019    0.0135
          13    0.0004    0.0008    0.0017    0.0010   -0.0528    0.0382   -0.1018   -0.0036
          14   -0.0004   -0.0011   -0.0008   -0.0011    0.0129    0.0206   -0.0651    0.0471
          15    0.0819   -0.0898   -0.1030    0.1756    0.0064   -0.0036   -0.0027   -0.0309
          16    0.0005    0.0013   -0.0018   -0.0015   -0.0490   -0.0164    0.0372   -0.0329
          17    0.0002    0.0005    0.0006   -0.0003    0.0236    0.0402   -0.1151   -0.0334
          18    0.0819   -0.0898    0.1032   -0.1754    0.0064    0.0035    0.0025   -0.0310
          19   -0.0031   -0.0091    0.0303    0.0187   -0.0818   -0.0073   -0.0107    0.0935
          20    0.0011    0.0031    0.0846    0.0522    0.0293   -0.0204   -0.0304   -0.0334
          21    0.0713   -0.0894   -0.0002   -0.0001    0.0073    0.0000    0.0001   -0.0075
          22    0.0174    0.0406    0.0733    0.0449   -0.0751   -0.0589   -0.0886    0.0693
          23   -0.0096   -0.0071    0.0512    0.0323    0.0269   -0.1235   -0.0832   -0.0299
          24    0.0488   -0.1167   -0.0787   -0.0457    0.0038   -0.2062   -0.0983   -0.0014
          25    0.0195    0.0359   -0.0240   -0.0141   -0.0752   -0.0330    0.0158    0.0725
          26   -0.0036   -0.0207    0.0861    0.0534    0.0269   -0.1327   -0.1205   -0.0203
          27    0.0487   -0.1169    0.0784    0.0455    0.0037    0.2062    0.0985   -0.0020
          28   -0.0490   -0.1277    0.0698    0.0427   -0.0776    0.0829    0.0249    0.0843
          29    0.0176    0.0454    0.1952    0.1192    0.0278    0.2310    0.0688   -0.0305
          30    0.0557   -0.1280   -0.0002   -0.0001    0.0079   -0.0000    0.0001   -0.0074
          31   -0.0005   -0.0013   -0.0046   -0.0028   -0.0736   -0.0040    0.0151    0.0615
          32    0.0002    0.0005   -0.0128   -0.0078    0.0264   -0.0111    0.0418   -0.0222
          33    0.1632    0.1123    0.0000    0.0000   -0.0085    0.0000    0.0000    0.0016
          34    0.0010    0.0033   -0.0474   -0.0295    0.1537    0.0298   -0.0353    0.0215
          35   -0.0007   -0.0009   -0.0122   -0.0073    0.0068   -0.0008    0.0197    0.0928
          36   -0.1518    0.0206   -0.0174    0.0381    0.0002    0.0084    0.0036   -0.0041
          37    0.0013    0.0032    0.0289    0.0181    0.1144   -0.0235    0.0397   -0.0426
          38   -0.0001   -0.0014   -0.0395   -0.0244   -0.1029    0.0183   -0.0075   -0.0852
          39   -0.1518    0.0206    0.0174   -0.0381    0.0002   -0.0084   -0.0036   -0.0040


   Root No.       9        10        11        12        13        14        15        16

                 5 A'      5 A"      6 A"      6 A'      7 A'      7 A"      8 A"      9 A"  

                 548.4     647.7     674.4     838.3     880.5     958.6     989.0    1050.3
  
           1    0.0035   -0.0906   -0.0008   -0.0061   -0.0004    0.0002   -0.0389   -0.0439
           2    0.0065    0.0144    0.0004    0.0621    0.0002    0.0003    0.0056    0.0555
           3    0.1259   -0.0017    0.1512   -0.0000    0.0520    0.0283    0.0005   -0.0005
           4    0.0043   -0.0451   -0.0002   -0.0706   -0.0001   -0.0002    0.0483    0.0391
           5   -0.0011    0.1346    0.0012    0.0296    0.0001    0.0002   -0.0202   -0.0193
           6   -0.0073    0.0007   -0.0413   -0.0010   -0.0590   -0.0890   -0.0009    0.0006
           7    0.0040    0.1204    0.0009   -0.0734   -0.0001    0.0003   -0.0501   -0.0426
           8   -0.0019    0.0753    0.0008    0.0220   -0.0000    0.0001    0.0151    0.0100
           9   -0.0073   -0.0008    0.0413   -0.0010   -0.0590    0.0891    0.0005    0.0001
          10   -0.0014    0.0791    0.0009   -0.0442   -0.0004    0.0000    0.0336    0.0693
          11   -0.0072   -0.0464   -0.0002   -0.0441    0.0001    0.0003   -0.0204    0.0149
          12    0.1259    0.0017   -0.1512   -0.0000    0.0520   -0.0283   -0.0005    0.0005
          13   -0.0012   -0.0809   -0.0012   -0.1037   -0.0014   -0.0023    0.1655    0.0791
          14   -0.0039    0.1110    0.0009    0.0118   -0.0009   -0.0013    0.0560    0.0128
          15   -0.2692    0.0030   -0.2628   -0.0021    0.3620    0.3740    0.0020   -0.0003
          16    0.0015    0.1330    0.0015   -0.0876   -0.0005    0.0009   -0.0922   -0.0528
          17    0.0036    0.0343    0.0001    0.0567    0.0017   -0.0026    0.1484    0.0595
          18   -0.2692   -0.0031    0.2628   -0.0021    0.3620   -0.3740   -0.0026    0.0012
          19   -0.0068   -0.0066    0.0002    0.1050    0.0011   -0.0001    0.0059   -0.0128
          20    0.0024   -0.0183    0.0006   -0.0376   -0.0004   -0.0002    0.0165   -0.0356
          21   -0.0055    0.0000   -0.0000   -0.0085   -0.0004   -0.0000    0.0003   -0.0004
          22   -0.0102   -0.0231   -0.0007    0.0711    0.0027    0.0014   -0.1356    0.2087
          23    0.0043   -0.0325   -0.0001   -0.0277   -0.0013    0.0001   -0.0009   -0.0078
          24   -0.0054   -0.0212    0.0009    0.0037   -0.0045    0.0007   -0.0044    0.0055
          25   -0.0106   -0.0029    0.0005    0.0726    0.0029   -0.0010    0.1041   -0.1661
          26    0.0032   -0.0397   -0.0005   -0.0238   -0.0007    0.0010   -0.0868    0.1265
          27   -0.0055    0.0213   -0.0009    0.0037   -0.0045   -0.0007    0.0049   -0.0063
          28    0.0077    0.0018    0.0021    0.0988   -0.0041    0.0006   -0.0174    0.0276
          29   -0.0028    0.0050    0.0058   -0.0354    0.0015    0.0018   -0.0490    0.0777
          30   -0.0032    0.0000   -0.0000   -0.0008   -0.0037   -0.0000    0.0003   -0.0005
          31   -0.0065   -0.0057   -0.0005    0.0123   -0.0005   -0.0005    0.0223   -0.0200
          32    0.0023   -0.0160   -0.0015   -0.0044    0.0002   -0.0013    0.0623   -0.0559
          33   -0.0678    0.0000   -0.0000    0.0074   -0.0176   -0.0000    0.0001   -0.0001
          34   -0.0009    0.0008   -0.0003    0.0070    0.0002    0.0001   -0.0061    0.0009
          35   -0.0082   -0.0627   -0.0005   -0.0638    0.0000    0.0003   -0.0295    0.0069
          36   -0.0399    0.0006    0.0393    0.0006   -0.0094    0.0054    0.0000    0.0000
          37    0.0045   -0.0405   -0.0001    0.0459    0.0002    0.0002   -0.0140    0.0037
          38    0.0069   -0.0480   -0.0006    0.0448   -0.0002    0.0003   -0.0267    0.0060
          39   -0.0399   -0.0006   -0.0393    0.0006   -0.0094   -0.0054    0.0000   -0.0001


   Root No.      17        18        19        20        21        22        23        24

                 8 A'      9 A'     10 A'     10 A"     11 A"     11 A'     12 A"     12 A'  

                1053.4    1097.8    1174.1    1218.8    1265.1    1391.4    1401.8    1404.2
  
           1   -0.0432    0.0014   -0.0574    0.0087    0.0068   -0.0277   -0.0013   -0.0269
           2    0.0266   -0.0008    0.0447   -0.0098   -0.0224    0.0239    0.0025    0.0233
           3    0.0002    0.0046   -0.0002    0.0003    0.0005   -0.0003   -0.0005   -0.0001
           4    0.0519   -0.0007    0.0425   -0.0594    0.0230    0.0014   -0.0008    0.0015
           5   -0.0211    0.0005   -0.0103   -0.0071    0.0083   -0.0009   -0.0011   -0.0010
           6    0.0001   -0.0002   -0.0001   -0.0001    0.0002   -0.0013   -0.0000    0.0006
           7    0.0533   -0.0009    0.0393    0.0414   -0.0125    0.0016   -0.0001    0.0018
           8   -0.0167   -0.0004   -0.0190   -0.0432    0.0210   -0.0003   -0.0014   -0.0001
           9    0.0001   -0.0002   -0.0001    0.0004    0.0003   -0.0013   -0.0006    0.0007
          10   -0.0501    0.0018   -0.0727   -0.0129   -0.0194   -0.0365    0.0043   -0.0355
          11    0.0069   -0.0005    0.0020   -0.0021   -0.0130   -0.0009    0.0012   -0.0008
          12    0.0002    0.0047   -0.0002   -0.0003   -0.0004   -0.0001    0.0004    0.0000
          13   -0.2472    0.0361    0.2656    0.2180   -0.1005    0.0186    0.0045    0.0180
          14   -0.1886    0.0217    0.1243    0.1461   -0.0616    0.0148    0.0020    0.0140
          15   -0.0010    0.0053   -0.0009    0.0008    0.0005   -0.0027   -0.0004    0.0020
          16   -0.0711    0.0142    0.1261   -0.0755    0.0384    0.0050   -0.0024    0.0049
          17    0.3028   -0.0404   -0.2647    0.2513   -0.1114   -0.0233    0.0054   -0.0218
          18   -0.0011    0.0053   -0.0008   -0.0005    0.0003   -0.0025   -0.0006    0.0021
          19    0.0296   -0.0166    0.0545   -0.0080   -0.0164   -0.0562   -0.0080   -0.0536
          20   -0.0106    0.0063   -0.0195   -0.0224   -0.0458    0.0200   -0.0261    0.0185
          21   -0.0074   -0.0597    0.0002   -0.0002   -0.0003    0.0358    0.0007   -0.0313
          22   -0.0008   -0.1550    0.0230    0.1023    0.1798    0.0380   -0.1590    0.2095
          23   -0.0017    0.0546   -0.0123    0.0031    0.0114   -0.1151    0.1013    0.1350
          24    0.0091    0.0860   -0.0020    0.0125    0.0364   -0.2414    0.2134    0.2351
          25    0.0001   -0.1543    0.0255   -0.0770   -0.1316    0.1045    0.1831    0.0847
          26    0.0021    0.0571   -0.0051    0.0673    0.1228    0.0648   -0.0153   -0.2386
          27    0.0091    0.0860   -0.0020   -0.0128   -0.0368   -0.2443   -0.2179    0.2254
          28    0.0601    0.4013    0.0035    0.0200    0.0448    0.1557    0.1210   -0.0423
          29   -0.0214   -0.1436   -0.0013    0.0564    0.1259   -0.0533    0.3365    0.0235
          30    0.0102    0.1132   -0.0090   -0.0003   -0.0005    0.0675    0.0003   -0.0157
          31   -0.0093    0.0009   -0.0387    0.0095    0.0277    0.0695   -0.0076    0.0689
          32    0.0033   -0.0002    0.0138    0.0265    0.0773   -0.0250   -0.0161   -0.0252
          33    0.0038    0.0250    0.0009   -0.0001   -0.0001   -0.0001    0.0002   -0.0043
          34    0.0030    0.0009    0.0039   -0.0028   -0.0035    0.0024    0.0004    0.0025
          35    0.0192   -0.0008    0.0091    0.0050   -0.0181   -0.0042    0.0031   -0.0035
          36   -0.0000   -0.0012    0.0002   -0.0000   -0.0002    0.0012   -0.0008   -0.0009
          37   -0.0099    0.0006   -0.0027    0.0053   -0.0088    0.0045    0.0015    0.0044
          38   -0.0167    0.0004   -0.0095    0.0021   -0.0162    0.0018    0.0026    0.0011
          39    0.0000   -0.0012    0.0002    0.0000    0.0001    0.0009    0.0009   -0.0010


   Root No.      25        26        27        28        29        30        31        32

                13 A'     14 A'     13 A"     15 A'     14 A"     16 A'     15 A"     17 A'  

                1468.4    1736.4    1777.6    1873.1    2603.8    2612.4    2736.5    2753.9
  
           1    0.0196    0.0057    0.1810   -0.1576    0.0004    0.0005    0.0028   -0.0025
           2   -0.0141    0.0186    0.1790   -0.1900    0.0015    0.0003    0.0000    0.0007
           3   -0.0005    0.0000   -0.0004    0.0001    0.0004    0.0002   -0.0000    0.0001
           4   -0.0005   -0.1073   -0.0199    0.0172   -0.0001    0.0001    0.0155   -0.0157
           5    0.0008   -0.2548   -0.0091   -0.0238    0.0001    0.0001   -0.0324    0.0333
           6   -0.0007   -0.0000   -0.0000   -0.0001   -0.0001   -0.0003    0.0000   -0.0000
           7   -0.0009    0.0791    0.0096    0.0284    0.0001    0.0000   -0.0326   -0.0333
           8   -0.0002    0.2649   -0.0196    0.0074    0.0001    0.0001   -0.0152   -0.0157
           9   -0.0005   -0.0001   -0.0000   -0.0001   -0.0004   -0.0003    0.0000   -0.0000
          10    0.0241   -0.0074   -0.0260   -0.0009    0.0007    0.0000   -0.0021   -0.0023
          11   -0.0016   -0.0180    0.2533    0.2469    0.0014   -0.0005    0.0018    0.0010
          12   -0.0002    0.0000    0.0003   -0.0000   -0.0004    0.0002    0.0000    0.0000
          13   -0.0089    0.1217    0.0231   -0.0041    0.0002    0.0002   -0.2303    0.2128
          14   -0.0086   -0.1496   -0.0047   -0.0241   -0.0002    0.0001    0.3985   -0.3688
          15   -0.0015    0.0004   -0.0000   -0.0007   -0.0001   -0.0004    0.0003   -0.0003
          16   -0.0014    0.1890   -0.0209    0.0122   -0.0003   -0.0000    0.4310    0.3987
          17    0.0124    0.0381    0.0111    0.0212   -0.0000    0.0001    0.1614    0.1495
          18   -0.0012    0.0003   -0.0000   -0.0007   -0.0006   -0.0004   -0.0004   -0.0004
          19   -0.0114    0.0022    0.0027    0.0002   -0.0181   -0.0017    0.0000   -0.0014
          20    0.0040   -0.0008    0.0074   -0.0000   -0.0504    0.0006    0.0000    0.0005
          21    0.0019   -0.0003    0.0000   -0.0014    0.0002   -0.0472    0.0000    0.0002
          22    0.2943   -0.0013   -0.0086    0.0270   -0.0376    0.0116   -0.0002    0.0003
          23   -0.0088    0.0006   -0.0030   -0.0104    0.3869   -0.2319    0.0004   -0.0192
          24   -0.0482   -0.0007    0.0102    0.0022   -0.2142    0.0800   -0.0002    0.0096
          25    0.2326   -0.0014    0.0048    0.0274    0.2756    0.1553    0.0004    0.0124
          26   -0.1801    0.0003   -0.0077   -0.0091    0.2759    0.1704    0.0001    0.0146
          27   -0.0482   -0.0007   -0.0102    0.0022    0.2153    0.0792    0.0002    0.0096
          28    0.2031    0.0011    0.0046    0.0191   -0.0162   -0.1481    0.0000    0.0061
          29   -0.0731   -0.0004    0.0126   -0.0068   -0.0448    0.0531    0.0000   -0.0022
          30    0.0731    0.0009    0.0000    0.0031    0.0012    0.4303    0.0000   -0.0216
          31   -0.0692   -0.0065   -0.0029   -0.0205   -0.0011    0.0000    0.0000    0.0014
          32    0.0248    0.0023   -0.0080    0.0073   -0.0031   -0.0000    0.0001   -0.0005
          33    0.0009    0.0002    0.0000    0.0009    0.0001   -0.0018    0.0000    0.0000
          34   -0.0020    0.0042    0.0025    0.0017    0.0005   -0.0002   -0.0001    0.0000
          35    0.0069    0.0007   -0.1713   -0.1485   -0.0006    0.0004   -0.0005   -0.0007
          36    0.0007    0.0000   -0.0002    0.0000   -0.0001    0.0000   -0.0000   -0.0001
          37   -0.0059    0.0028   -0.1108    0.0957   -0.0008   -0.0002   -0.0003    0.0005
          38   -0.0041   -0.0032   -0.1307    0.1136   -0.0001   -0.0003   -0.0005    0.0005
          39    0.0002    0.0000    0.0002   -0.0001    0.0002    0.0001    0.0000    0.0001


   Root No.      33

                18 A'  

                2785.5
  
           1   -0.0008
           2   -0.0007
           3   -0.0006
           4   -0.0010
           5    0.0018
           6   -0.0000
           7   -0.0020
           8   -0.0008
           9    0.0004
          10   -0.0002
          11    0.0011
          12    0.0003
          13    0.0105
          14   -0.0190
          15   -0.0001
          16    0.0202
          17    0.0079
          18    0.0009
          19    0.0174
          20   -0.0063
          21   -0.0022
          22   -0.0046
          23    0.2703
          24   -0.1362
          25   -0.1750
          26   -0.2053
          27   -0.1367
          28   -0.0869
          29    0.0308
          30    0.3053
          31    0.0048
          32   -0.0017
          33   -0.0005
          34    0.0000
          35   -0.0007
          36    0.0007
          37    0.0005
          38    0.0005
          39   -0.0008


           MASS-WEIGHTED COORDINATE ANALYSIS (NORMAL COORDINATES)


   Root No.       1         2         3         4         5         6         7         8

                 1 A'      2 A'      1 A"      2 A"      3 A'      3 A"      4 A"      4 A'  

                 126.0     197.5     253.1     263.7     351.0     503.1     542.9     545.5
  
           1    0.0015    0.0076   -0.0218   -0.0126   -0.1181    0.1000   -0.1658   -0.1831
           2    0.0023    0.0032   -0.0790   -0.0452    0.0717   -0.1001    0.3031   -0.2758
           3    0.0207    0.1189   -0.1293    0.1865   -0.0100   -0.0291   -0.0116    0.0541
           4    0.0021    0.0107    0.0011    0.0002   -0.1405    0.1146   -0.2602   -0.2349
           5   -0.0004   -0.0027   -0.0094   -0.0084    0.0670    0.0515   -0.1797    0.0662
           6    0.1588   -0.2525   -0.2634    0.4320    0.0096   -0.0135   -0.0080   -0.0093
           7    0.0019    0.0099   -0.0068   -0.0055   -0.1511   -0.0558    0.0859   -0.2238
           8   -0.0008   -0.0041   -0.0064   -0.0065    0.0376    0.1126   -0.3037    0.0992
           9    0.1588   -0.2525    0.2641   -0.4314    0.0096    0.0132    0.0071   -0.0094
          10   -0.0004    0.0034   -0.0333   -0.0191   -0.1367   -0.1409    0.3207    0.0326
          11   -0.0027   -0.0069   -0.0748   -0.0430    0.0197   -0.0137    0.1300    0.3288
          12    0.0207    0.1188    0.1296   -0.1864   -0.0100    0.0292    0.0116    0.0539
          13    0.0003    0.0012    0.0030    0.0017   -0.0517    0.0776   -0.1821   -0.0042
          14   -0.0003   -0.0017   -0.0013   -0.0018    0.0126    0.0418   -0.1164    0.0544
          15    0.0732   -0.1361   -0.1765    0.2914    0.0062   -0.0074   -0.0049   -0.0357
          16    0.0005    0.0020   -0.0031   -0.0025   -0.0479   -0.0334    0.0665   -0.0380
          17    0.0002    0.0008    0.0010   -0.0004    0.0231    0.0816   -0.2057   -0.0386
          18    0.0732   -0.1362    0.1768   -0.2911    0.0062    0.0072    0.0044   -0.0357
          19   -0.0094   -0.0475    0.1794    0.1072   -0.2762   -0.0513   -0.0663    0.3724
          20    0.0034    0.0161    0.5007    0.2992    0.0989   -0.1431   -0.1873   -0.1331
          21    0.2199   -0.4677   -0.0010   -0.0006    0.0248    0.0000    0.0006   -0.0300
          22    0.0155    0.0616    0.1256    0.0745   -0.0735   -0.1196   -0.1584    0.0801
          23   -0.0086   -0.0108    0.0878    0.0535    0.0264   -0.2510   -0.1486   -0.0345
          24    0.0436   -0.1770   -0.1349   -0.0759    0.0037   -0.4189   -0.1757   -0.0016
          25    0.0174    0.0545   -0.0411   -0.0234   -0.0735   -0.0671    0.0282    0.0837
          26   -0.0032   -0.0313    0.1476    0.0886    0.0263   -0.2696   -0.2154   -0.0234
          27    0.0436   -0.1773    0.1342    0.0755    0.0036    0.4190    0.1761   -0.0023
          28   -0.0438   -0.1936    0.1197    0.0708   -0.0759    0.1684    0.0445    0.0974
          29    0.0157    0.0689    0.3344    0.1978    0.0272    0.4693    0.1229   -0.0352
          30    0.0498   -0.1941   -0.0004   -0.0002    0.0077   -0.0000    0.0002   -0.0086
          31   -0.0018   -0.0074   -0.0294   -0.0173   -0.2686   -0.0302    0.1004    0.2647
          32    0.0007    0.0027   -0.0819   -0.0483    0.0963   -0.0841    0.2784   -0.0955
          33    0.5438    0.6349    0.0001    0.0000   -0.0312    0.0002    0.0002    0.0070
          34    0.0034    0.0198   -0.3236   -0.1948    0.5992    0.2409   -0.2517    0.0987
          35   -0.0026   -0.0054   -0.0833   -0.0482    0.0265   -0.0068    0.1401    0.4268
          36   -0.5407    0.1243   -0.1186    0.2518    0.0006    0.0680    0.0259   -0.0187
          37    0.0045    0.0195    0.1971    0.1198    0.4458   -0.1904    0.2826   -0.1961
          38   -0.0005   -0.0085   -0.2699   -0.1612   -0.4012    0.1478   -0.0533   -0.3921
          39   -0.5407    0.1245    0.1187   -0.2518    0.0007   -0.0680   -0.0259   -0.0182


   Root No.       9        10        11        12        13        14        15        16

                 5 A'      5 A"      6 A"      6 A'      7 A'      7 A"      8 A"      9 A"  

                 548.4     647.7     674.4     838.3     880.5     958.6     989.0    1050.3
  
           1    0.0152   -0.3380   -0.0031   -0.0281   -0.0021    0.0010   -0.2468   -0.2602
           2    0.0279    0.0539    0.0017    0.2865    0.0011    0.0013    0.0355    0.3289
           3    0.5415   -0.0064    0.5937   -0.0001    0.2783    0.1398    0.0030   -0.0027
           4    0.0185   -0.1683   -0.0010   -0.3258   -0.0004   -0.0011    0.3065    0.2317
           5   -0.0049    0.5021    0.0046    0.1365    0.0005    0.0011   -0.1282   -0.1145
           6   -0.0315    0.0026   -0.1621   -0.0044   -0.3153   -0.4397   -0.0056    0.0033
           7    0.0174    0.4490    0.0037   -0.3384   -0.0007    0.0016   -0.3180   -0.2524
           8   -0.0080    0.2808    0.0030    0.1014   -0.0002    0.0003    0.0957    0.0590
           9   -0.0315   -0.0028    0.1622   -0.0044   -0.3153    0.4397    0.0031    0.0003
          10   -0.0059    0.2952    0.0034   -0.2037   -0.0022    0.0000    0.2132    0.4105
          11   -0.0310   -0.1731   -0.0008   -0.2035    0.0006    0.0016   -0.1294    0.0885
          12    0.5415    0.0064   -0.5937   -0.0000    0.2783   -0.1398   -0.0033    0.0031
          13   -0.0015   -0.0875   -0.0013   -0.1385   -0.0022   -0.0032    0.3041    0.1358
          14   -0.0048    0.1199    0.0010    0.0158   -0.0013   -0.0018    0.1029    0.0220
          15   -0.3353    0.0033   -0.2988   -0.0028    0.5608    0.5349    0.0036   -0.0005
          16    0.0019    0.1437    0.0017   -0.1170   -0.0008    0.0013   -0.1695   -0.0906
          17    0.0045    0.0371    0.0001    0.0758    0.0027   -0.0037    0.2727    0.1021
          18   -0.3353   -0.0033    0.2989   -0.0028    0.5608   -0.5349   -0.0048    0.0020
          19   -0.0291   -0.0245    0.0008    0.4844    0.0056   -0.0003    0.0374   -0.0759
          20    0.0105   -0.0684    0.0023   -0.1735   -0.0021   -0.0009    0.1045   -0.2112
          21   -0.0235    0.0001   -0.0000   -0.0391   -0.0019   -0.0000    0.0017   -0.0025
          22   -0.0127   -0.0249   -0.0008    0.0950    0.0041    0.0019   -0.2493    0.3583
          23    0.0053   -0.0351   -0.0001   -0.0370   -0.0020    0.0002   -0.0017   -0.0133
          24   -0.0068   -0.0230    0.0010    0.0049   -0.0070    0.0010   -0.0081    0.0095
          25   -0.0131   -0.0031    0.0005    0.0970    0.0044   -0.0014    0.1913   -0.2851
          26    0.0040   -0.0429   -0.0006   -0.0317   -0.0011    0.0014   -0.1596    0.2171
          27   -0.0068    0.0230   -0.0011    0.0049   -0.0070   -0.0010    0.0090   -0.0108
          28    0.0096    0.0020    0.0024    0.1320   -0.0064    0.0009   -0.0320    0.0475
          29   -0.0035    0.0055    0.0066   -0.0473    0.0023    0.0025   -0.0901    0.1333
          30   -0.0040    0.0000   -0.0000   -0.0011   -0.0057   -0.0000    0.0006   -0.0008
          31   -0.0300   -0.0231   -0.0023    0.0615   -0.0026   -0.0024    0.1529   -0.1280
          32    0.0107   -0.0644   -0.0064   -0.0220    0.0009   -0.0068    0.4267   -0.3574
          33   -0.3150    0.0000   -0.0000    0.0368   -0.1016   -0.0000    0.0004   -0.0006
          34   -0.0043    0.0033   -0.0012    0.0375    0.0014    0.0003   -0.0450    0.0063
          35   -0.0408   -0.2701   -0.0025   -0.3395    0.0003    0.0020   -0.2160    0.0472
          36   -0.1980    0.0028    0.1783    0.0032   -0.0579    0.0310    0.0001    0.0000
          37    0.0225   -0.1742   -0.0007    0.2444    0.0010    0.0010   -0.1025    0.0253
          38    0.0342   -0.2065   -0.0028    0.2384   -0.0012    0.0017   -0.1955    0.0408
          39   -0.1980   -0.0027   -0.1783    0.0031   -0.0579   -0.0310    0.0004   -0.0006


   Root No.      17        18        19        20        21        22        23        24

                 8 A'      9 A'     10 A'     10 A"     11 A"     11 A'     12 A"     12 A'  

                1053.4    1097.8    1174.1    1218.8    1265.1    1391.4    1401.8    1404.2
  
           1   -0.2485    0.0087   -0.3089    0.0574    0.0446   -0.1624   -0.0080   -0.1482
           2    0.1533   -0.0046    0.2404   -0.0651   -0.1477    0.1401    0.0158    0.1286
           3    0.0013    0.0282   -0.0008    0.0021    0.0031   -0.0015   -0.0030   -0.0005
           4    0.2987   -0.0045    0.2285   -0.3942    0.1518    0.0082   -0.0052    0.0083
           5   -0.1212    0.0032   -0.0556   -0.0468    0.0545   -0.0050   -0.0067   -0.0053
           6    0.0008   -0.0014   -0.0007   -0.0005    0.0016   -0.0079   -0.0001    0.0036
           7    0.3071   -0.0053    0.2118    0.2746   -0.0825    0.0095   -0.0007    0.0097
           8   -0.0963   -0.0026   -0.1022   -0.2866    0.1385   -0.0018   -0.0085   -0.0007
           9    0.0008   -0.0014   -0.0007    0.0025    0.0017   -0.0074   -0.0036    0.0038
          10   -0.2882    0.0111   -0.3913   -0.0857   -0.1283   -0.2140    0.0267   -0.1958
          11    0.0396   -0.0030    0.0107   -0.0138   -0.0857   -0.0051    0.0073   -0.0045
          12    0.0013    0.0283   -0.0008   -0.0019   -0.0027   -0.0007    0.0026    0.0001
          13   -0.4124    0.0636    0.4140    0.4189   -0.1923    0.0316    0.0082    0.0288
          14   -0.3146    0.0382    0.1938    0.2808   -0.1180    0.0251    0.0036    0.0224
          15   -0.0017    0.0093   -0.0014    0.0016    0.0010   -0.0046   -0.0006    0.0032
          16   -0.1187    0.0250    0.1966   -0.1450    0.0735    0.0084   -0.0044    0.0078
          17    0.5050   -0.0712   -0.4127    0.4830   -0.2133   -0.0396    0.0098   -0.0348
          18   -0.0019    0.0094   -0.0013   -0.0009    0.0005   -0.0043   -0.0010    0.0033
          19    0.1707   -0.1011    0.2932   -0.0531   -0.1083   -0.3292   -0.0498   -0.2954
          20   -0.0613    0.0381   -0.1051   -0.1483   -0.3023    0.1170   -0.1634    0.1019
          21   -0.0426   -0.3626    0.0012   -0.0013   -0.0023    0.2101    0.0045   -0.1729
          22   -0.0013   -0.2730    0.0358    0.1966    0.3442    0.0646   -0.2883    0.3347
          23   -0.0028    0.0960   -0.0191    0.0060    0.0219   -0.1954    0.1837    0.2157
          24    0.0151    0.1514   -0.0031    0.0240    0.0696   -0.4099    0.3869    0.3756
          25    0.0001   -0.2717    0.0398   -0.1479   -0.2518    0.1774    0.3320    0.1353
          26    0.0036    0.1006   -0.0080    0.1293    0.2351    0.1101   -0.0277   -0.3812
          27    0.0151    0.1514   -0.0031   -0.0246   -0.0704   -0.4149   -0.3951    0.3601
          28    0.1002    0.7065    0.0055    0.0385    0.0857    0.2643    0.2193   -0.0676
          29   -0.0357   -0.2529   -0.0020    0.1084    0.2409   -0.0905    0.6100    0.0375
          30    0.0170    0.1992   -0.0140   -0.0005   -0.0009    0.1146    0.0006   -0.0251
          31   -0.0576    0.0061   -0.2247    0.0682    0.1978    0.4402   -0.0515    0.4104
          32    0.0202   -0.0013    0.0805    0.1901    0.5516   -0.1583   -0.1090   -0.1500
          33    0.0238    0.1644    0.0052   -0.0005   -0.0008   -0.0009    0.0013   -0.0259
          34    0.0203    0.0060    0.0245   -0.0211   -0.0268    0.0165    0.0027    0.0160
          35    0.1276   -0.0059    0.0562    0.0385   -0.1377   -0.0286    0.0225   -0.0222
          36   -0.0001   -0.0083    0.0012   -0.0003   -0.0014    0.0081   -0.0057   -0.0056
          37   -0.0658    0.0043   -0.0167    0.0408   -0.0668    0.0305    0.0107    0.0281
          38   -0.1111    0.0025   -0.0590    0.0164   -0.1233    0.0120    0.0186    0.0072
          39    0.0000   -0.0085    0.0014    0.0000    0.0009    0.0064    0.0064   -0.0064


   Root No.      25        26        27        28        29        30        31        32

                13 A'     14 A'     13 A"     15 A'     14 A"     16 A'     15 A"     17 A'  

                1468.4    1736.4    1777.6    1873.1    2603.8    2612.4    2736.5    2753.9
  
           1    0.1192    0.0142    0.3959   -0.3682    0.0020    0.0026    0.0141   -0.0134
           2   -0.0858    0.0465    0.3915   -0.4440    0.0078    0.0020    0.0001    0.0039
           3   -0.0029    0.0000   -0.0009    0.0001    0.0019    0.0012   -0.0001    0.0004
           4   -0.0033   -0.2682   -0.0435    0.0402   -0.0004    0.0007    0.0795   -0.0861
           5    0.0046   -0.6371   -0.0198   -0.0555    0.0008    0.0004   -0.1661    0.1824
           6   -0.0040   -0.0000   -0.0000   -0.0002   -0.0007   -0.0016    0.0000   -0.0000
           7   -0.0055    0.1977    0.0210    0.0663    0.0008    0.0003   -0.1669   -0.1824
           8   -0.0012    0.6623   -0.0429    0.0173    0.0004    0.0004   -0.0777   -0.0861
           9   -0.0031   -0.0003   -0.0000   -0.0002   -0.0019   -0.0016    0.0000   -0.0001
          10    0.1463   -0.0186   -0.0569   -0.0022    0.0034    0.0001   -0.0109   -0.0129
[...]
 FORCE CONSTANT      0.6245

 VIBRATION         16    9A"          ATOM PAIR      ENERGY CONTRIBUTION    RADIAL
 FREQUENCY          1050.27         C  4 -- N 11         +14.2% ( 59.5%)     99.5%
 TRANSITION DIPOLE   2.6121         C  1 -- N 11         +14.2% ( 59.4%)     99.5%
 TRAVEL (Ang.)       0.2305         C  3 -- C  4         +10.7% ( 51.7%)     55.2%
 REDUCED MASS        1.2088         C  1 -- C  2         +10.7% ( 51.6%)     55.2%
 EFFECTIVE MASS      9.3216
 FORCE CONSTANT      0.7856

 VIBRATION         17    8A'          ATOM PAIR      ENERGY CONTRIBUTION    RADIAL
 FREQUENCY          1053.42         C  2 -- H  5         +21.8% ( 64.0%)      6.7%
 TRANSITION DIPOLE   0.8848         C  3 -- H  6         +21.8% ( 64.0%)      6.7%
 TRAVEL (Ang.)       0.3262         C  1 -- C  2         +12.2% ( 47.9%)     79.9%
 REDUCED MASS        0.6016         C  3 -- C  4         +12.1% ( 47.8%)     80.0%
 EFFECTIVE MASS      6.6930
 FORCE CONSTANT      0.3933

 VIBRATION         18    9A'          ATOM PAIR      ENERGY CONTRIBUTION    RADIAL
 FREQUENCY          1097.82         C  7 -- H 10         +57.0% ( 90.7%)      7.0%
 TRANSITION DIPOLE   0.1583         C  7 -- H  9         +17.2% ( 49.9%)     15.0%
 TRAVEL (Ang.)       0.3084         C  7 -- H  8         +17.2% ( 49.8%)      7.2%
 REDUCED MASS        0.6456         C  7 -- N 11          +7.4% ( 32.6%)      3.3%
 EFFECTIVE MASS      2.5059
 FORCE CONSTANT      0.4585

 VIBRATION         19   10A'          ATOM PAIR      ENERGY CONTRIBUTION    RADIAL
 FREQUENCY          1174.11         C  7 -- N 11         +11.5% ( 43.1%)    100.0%
 TRANSITION DIPOLE   0.6152         C  1 -- C  2         +11.4% ( 42.9%)     76.7%
 TRAVEL (Ang.)       0.2548         C  3 -- C  4         +11.4% ( 42.9%)     76.7%
 REDUCED MASS        0.8845         C  2 -- H  5         +11.4% ( 42.9%)     15.4%
 EFFECTIVE MASS      7.2965         C  3 -- H  6         +11.4% ( 42.9%)     15.4%
 FORCE CONSTANT      0.7184

 VIBRATION         20   10A"          ATOM PAIR      ENERGY CONTRIBUTION    RADIAL
 FREQUENCY          1218.79         C  2 -- H  5         +25.0% ( 61.4%)      2.1%
 TRANSITION DIPOLE   0.1254         C  3 -- H  6         +25.0% ( 61.4%)      2.1%
 TRAVEL (Ang.)       0.2694         C  2 -- C  3         +13.2% ( 44.7%)      0.0%
 REDUCED MASS        0.7622         C  3 -- C  4          +8.8% ( 36.3%)     99.8%
 EFFECTIVE MASS      4.7893
 FORCE CONSTANT      0.6671

 VIBRATION         21   11A"          ATOM PAIR      ENERGY CONTRIBUTION    RADIAL
 FREQUENCY          1265.11         C  7 -- N 11         +19.2% ( 56.1%)      0.0%
 TRANSITION DIPOLE   1.5821         C  4 -- N 11         +16.6% ( 52.1%)     79.0%
 TRAVEL (Ang.)       0.1692         C  1 -- N 11         +16.6% ( 52.1%)     79.0%
 REDUCED MASS        1.8613         C  7 -- H  8         +11.5% ( 43.5%)     20.9%
 EFFECTIVE MASS      7.5761         C  7 -- H  9         +11.5% ( 43.4%)     14.4%
 FORCE CONSTANT      1.7552

 VIBRATION         22   11A'          ATOM PAIR      ENERGY CONTRIBUTION    RADIAL
 FREQUENCY          1391.41         C  7 -- N 11         +21.6% ( 57.9%)     95.1%
 TRANSITION DIPOLE   1.0221         C  7 -- H  9         +17.3% ( 51.8%)      0.2%
 TRAVEL (Ang.)       0.2050         C  7 -- H  8         +17.0% ( 51.4%)      0.4%
 REDUCED MASS        1.1531         C  1 -- N 11         +14.4% ( 47.2%)     43.5%
 EFFECTIVE MASS      6.6256         C  4 -- N 11         +14.3% ( 47.2%)     43.4%
 FORCE CONSTANT      1.3153

 VIBRATION         23   12A"          ATOM PAIR      ENERGY CONTRIBUTION    RADIAL
 FREQUENCY          1401.81         C  7 -- H 10         +37.7% ( 53.0%)      0.6%
 TRANSITION DIPOLE   0.6700         C  7 -- H  8         +28.6% ( 46.2%)      9.3%
 TRAVEL (Ang.)       0.3791         C  7 -- H  9         +28.6% ( 46.2%)      2.8%
 REDUCED MASS        0.3347         C  7 -- N 11          +2.4% ( 13.5%)     13.2%
 EFFECTIVE MASS      1.3870
 FORCE CONSTANT      0.3875

 VIBRATION         24   12A'          ATOM PAIR      ENERGY CONTRIBUTION    RADIAL
 FREQUENCY          1404.19         C  7 -- H  8         +21.7% ( 54.6%)      2.4%
 TRANSITION DIPOLE   0.9245         C  7 -- H  9         +21.4% ( 54.2%)      7.8%
 TRAVEL (Ang.)       0.2282         C  7 -- N 11         +19.7% ( 52.1%)     95.1%
 REDUCED MASS        0.9222         C  1 -- N 11         +13.8% ( 43.6%)     43.6%
 EFFECTIVE MASS      5.6408         C  4 -- N 11         +13.8% ( 43.5%)     42.7%
 FORCE CONSTANT      1.0714

 VIBRATION         25   13A'          ATOM PAIR      ENERGY CONTRIBUTION    RADIAL
 FREQUENCY          1468.43         C  7 -- H  8         +19.5% ( 46.1%)      0.1%
 TRANSITION DIPOLE   1.1570         C  7 -- H  9         +19.4% ( 46.0%)      0.1%
 TRAVEL (Ang.)       0.2199         C  1 -- N 11         +17.3% ( 43.4%)     38.5%
 REDUCED MASS        0.9494         C  4 -- N 11         +17.3% ( 43.4%)     38.5%
 EFFECTIVE MASS      4.1290         C  7 -- N 11         +12.9% ( 37.5%)     99.8%
 FORCE CONSTANT      1.2061

 VIBRATION         26   14A'          ATOM PAIR      ENERGY CONTRIBUTION    RADIAL
 FREQUENCY          1736.42         C  2 -- C  3         +46.3% (100.2%)    100.0%
 TRANSITION DIPOLE   0.4563         C  1 -- C  2         +13.8% ( 54.8%)     14.6%
 TRAVEL (Ang.)       0.0841         C  3 -- C  4         +13.8% ( 54.8%)     14.6%
 REDUCED MASS        5.4846         C  2 -- H  5         +12.8% ( 52.8%)     18.9%
 EFFECTIVE MASS     11.8923         C  3 -- H  6         +12.8% ( 52.8%)     18.9%
 FORCE CONSTANT      9.7432

 VIBRATION         27   13A"          ATOM PAIR      ENERGY CONTRIBUTION    RADIAL
 FREQUENCY          1777.61         C  1 -- O 13         +26.7% ( 72.1%)     99.7%
 TRANSITION DIPOLE  12.4393         C  4 -- O 12         +26.7% ( 72.1%)     99.7%
 TRAVEL (Ang.)       0.1052         C  1 -- C  2         +11.7% ( 47.7%)     53.3%
 REDUCED MASS        3.4280         C  3 -- C  4         +11.7% ( 47.7%)     53.3%
 EFFECTIVE MASS     13.4384         C  1 -- N 11         +11.5% ( 47.3%)     26.0%
 FORCE CONSTANT      6.3820         C  4 -- N 11         +11.5% ( 47.3%)     26.0%

 VIBRATION         28   15A'          ATOM PAIR      ENERGY CONTRIBUTION    RADIAL
 FREQUENCY          1873.08         C  1 -- O 13         +25.6% ( 68.1%)    100.0%
 TRANSITION DIPOLE   0.6088         C  4 -- O 12         +25.6% ( 68.1%)    100.0%
 TRAVEL (Ang.)       0.1017         C  1 -- C  2         +12.1% ( 46.8%)     52.5%
 REDUCED MASS        3.4823         C  3 -- C  4         +12.1% ( 46.8%)     52.5%
 EFFECTIVE MASS     13.2248         C  1 -- N 11         +12.0% ( 46.6%)     42.5%
 FORCE CONSTANT      7.1983         C  4 -- N 11         +12.0% ( 46.6%)     42.5%

 VIBRATION         29   14A"          ATOM PAIR      ENERGY CONTRIBUTION    RADIAL
 FREQUENCY          2603.81         C  7 -- H  9         +49.2% ( 72.9%)     95.4%
 TRANSITION DIPOLE   0.6427         C  7 -- H  8         +48.9% ( 72.7%)     99.4%
 TRAVEL (Ang.)       0.2283         C  7 -- N 11          +1.0% ( 10.2%)      0.0%
 REDUCED MASS        0.4971         C  7 -- H 10          +0.9% (  9.8%)      0.5%
 EFFECTIVE MASS      1.4666
 FORCE CONSTANT      1.9856

 VIBRATION         30   16A'          ATOM PAIR      ENERGY CONTRIBUTION    RADIAL
 FREQUENCY          2612.36         C  7 -- H 10         +63.1% ( 82.4%)     99.0%
 TRANSITION DIPOLE   0.7387         C  7 -- H  8         +18.1% ( 44.2%)     85.1%
 TRAVEL (Ang.)       0.2334         C  7 -- H  9         +17.9% ( 43.9%)     94.0%
 REDUCED MASS        0.4737         C  7 -- N 11          +0.8% (  9.5%)      0.0%
 EFFECTIVE MASS      1.4377
 FORCE CONSTANT      1.9045

 VIBRATION         31   15A"          ATOM PAIR      ENERGY CONTRIBUTION    RADIAL
 FREQUENCY          2736.53         C  2 -- H  5         +48.8% ( 70.9%)    100.0%
 TRANSITION DIPOLE   1.2514         C  3 -- H  6         +48.8% ( 70.9%)    100.0%
 TRAVEL (Ang.)       0.2302         C  2 -- C  3          +0.9% (  9.5%)      0.0%
 REDUCED MASS        0.4651         C  1 -- C  2          +0.7% (  8.5%)     13.4%
 EFFECTIVE MASS      1.4004
 FORCE CONSTANT      2.0523

 VIBRATION         32   17A'          ATOM PAIR      ENERGY CONTRIBUTION    RADIAL
 FREQUENCY          2753.90         C  3 -- H  6         +47.8% ( 70.3%)     99.9%
 TRANSITION DIPOLE   1.4031         C  2 -- H  5         +47.8% ( 70.3%)     99.9%
 TRAVEL (Ang.)       0.2304         C  2 -- C  3          +2.3% ( 15.5%)    100.0%
 REDUCED MASS        0.4612         C  1 -- C  2          +0.8% (  9.2%)     14.2%
 EFFECTIVE MASS      1.5572
 FORCE CONSTANT      2.0607

 VIBRATION         33   18A'          ATOM PAIR      ENERGY CONTRIBUTION    RADIAL
 FREQUENCY          2785.54         C  7 -- H 10         +35.9% ( 56.3%)     97.2%
 TRANSITION DIPOLE   0.4224         C  7 -- H  8         +31.7% ( 52.9%)     97.0%
 TRAVEL (Ang.)       0.2724         C  7 -- H  9         +31.7% ( 52.9%)     96.0%
 REDUCED MASS        0.3263         C  2 -- H  5          +0.2% (  4.2%)    100.0%
 EFFECTIVE MASS      1.0981
 FORCE CONSTANT      1.4919

      SYMMETRY NUMBER FOR POINT-GROUP Cs  =  1


          SYSTEM IS A GROUND STATE



 DA_SM2_PM6_D3H4_THERMO


          MOLECULE IS NOT LINEAR

          THERE ARE 33 GENUINE VIBRATIONS IN THIS SYSTEM
          THIS THERMODYNAMICS CALCULATION IS LIMITED TO
          MOLECULES WHICH HAVE NO INTERNAL ROTATIONS




                    CALCULATED THERMODYNAMIC PROPERTIES
                                          *
   TEMP. (K)   PARTITION FUNCTION   H.O.F.    ENTHALPY  HEAT CAPACITY ENTROPY
                                   KCAL/MOL   CAL/MOLE    CAL/K/MOL  CAL/K/MOL


 298.00  VIB.     0.1392D+02                  2501.7480    19.2590    13.6287
         ROT.     0.2753D+06                   888.2813     2.9808    27.8721
         INT.     0.3834D+07                  3390.0293    22.2398    41.5008
         TRA.     0.1132D+28                  1480.4688     4.9680    40.0295
         TOT.                      -52.716    4870.4982    27.2078    81.5303

 200.00  VIB.     0.3776D+01                   972.8042    11.9187     7.5044
         ROT.     0.1514D+06                   596.1620     2.9808    26.6834
         INT.     0.5717D+06                  1568.9661    14.8996    34.1878
         TRA.     0.6225D+27                   993.6033     4.9680    38.0484
         TOT.                      -55.024    2562.5694    19.8676    72.2362

 210.00  VIB.     0.4274D+01                  1095.7482    12.6703     8.1041
         ROT.     0.1629D+06                   625.9700     2.9808    26.8288
         INT.     0.6961D+06                  1721.7182    15.6511    34.9330
         TRA.     0.6697D+27                  1043.2834     4.9680    38.2908
         TOT.                      -54.821    2765.0016    20.6191    73.2237

 220.00  VIB.     0.4849D+01                  1226.2147    13.4232     8.7109
         ROT.     0.1747D+06                   655.7781     2.9808    26.9675
         INT.     0.8468D+06                  1881.9929    16.4040    35.6784
         TRA.     0.7181D+27                  1092.9636     4.9680    38.5219
         TOT.                      -54.611    2974.9565    21.3720    74.2003

 230.00  VIB.     0.5514D+01                  1364.2136    14.1767     9.3242
         ROT.     0.1867D+06                   685.5862     2.9808    27.1000
         INT.     0.1030D+07                  2049.7999    17.1575    36.4242
         TRA.     0.7676D+27                  1142.6437     4.9680    38.7427
         TOT.                      -54.394    3192.4436    22.1255    75.1670

 240.00  VIB.     0.6285D+01                  1509.7480    14.9301     9.9435
         ROT.     0.1990D+06                   715.3943     2.9808    27.2268
         INT.     0.1251D+07                  2225.1424    17.9110    37.1704
         TRA.     0.8183D+27                  1192.3239     4.9680    38.9542
         TOT.                      -54.169    3417.4663    22.8790    76.1245

 250.00  VIB.     0.7179D+01                  1662.8139    15.6828    10.5683
         ROT.     0.2116D+06                   745.2024     2.9808    27.3485
         INT.     0.1519D+07                  2408.0164    18.6636    37.9168
         TRA.     0.8699D+27                  1242.0041     4.9680    39.1570
         TOT.                      -53.936    3650.0204    23.6317    77.0738

 260.00  VIB.     0.8215D+01                  1823.3994    16.4339    11.1980
         ROT.     0.2244D+06                   775.0105     2.9808    27.4654
         INT.     0.1843D+07                  2598.4100    19.4147    38.6634
         TRA.     0.9226D+27                  1291.6842     4.9680    39.3518
         TOT.                      -53.696    3890.0942    24.3828    78.0153

 270.00  VIB.     0.9417D+01                  1991.4846    17.1826    11.8323
         ROT.     0.2375D+06                   804.8186     2.9808    27.5779
         INT.     0.2236D+07                  2796.3032    20.1634    39.4102
         TRA.     0.9764D+27                  1341.3644     4.9680    39.5393
         TOT.                      -53.449    4137.6676    25.1314    78.9495

 280.00  VIB.     0.1081D+02                  2167.0410    17.9281    12.4706
         ROT.     0.2508D+06                   834.6267     2.9808    27.6863
         INT.     0.2712D+07                  3001.6677    20.9089    40.1570
         TRA.     0.1031D+28                  1391.0445     4.9680    39.7200
         TOT.                      -53.194    4392.7123    25.8769    79.8770

 290.00  VIB.     0.1244D+02                  2350.0321    18.6694    13.1127
         ROT.     0.2643D+06                   864.4348     2.9808    27.7909
         INT.     0.3287D+07                  3214.4669    21.6502    40.9036
         TRA.     0.1087D+28                  1440.7247     4.9680    39.8943
         TOT.                      -52.931    4655.1916    26.6182    80.7980

 300.00  VIB.     0.1433D+02                  2540.4129    19.4059    13.7581
         ROT.     0.2781D+06                   894.2429     2.9808    27.8920
         INT.     0.3984D+07                  3434.6559    22.3867    41.6500
         TRA.     0.1144D+28                  1490.4049     4.9680    40.0628
         TOT.                      -52.661    4925.0607    27.3547    81.7128

 310.00  VIB.     0.1652D+02                  2738.1310    20.1367    14.4063
         ROT.     0.2921D+06                   924.0510     2.9808    27.9897
         INT.     0.4827D+07                  3662.1820    23.1175    42.3960
         TRA.     0.1201D+28                  1540.0850     4.9680    40.2257
         TOT.                      -52.384    5202.2670    28.0855    82.6217

 320.00  VIB.     0.1908D+02                  2943.1259    20.8612    15.0571
         ROT.     0.3064D+06                   953.8591     2.9808    28.0844
         INT.     0.5846D+07                  3896.9850    23.8420    43.1414
         TRA.     0.1260D+28                  1589.7652     4.9680    40.3834
         TOT.                      -52.100    5486.7502    28.8100    83.5248

 330.00  VIB.     0.2206D+02                  3155.3307    21.5786    15.7100
         ROT.     0.3209D+06                   983.6672     2.9808    28.1761
         INT.     0.7080D+07                  4138.9979    24.5594    43.8861
         TRA.     0.1319D+28                  1639.4454     4.9680    40.5363
         TOT.                      -51.808    5778.4433    29.5274    84.4224

 340.00  VIB.     0.2554D+02                  3374.6717    22.2883    16.3647
         ROT.     0.3355D+06                  1013.4753     2.9808    28.2651
         INT.     0.8571D+07                  4388.1471    25.2691    44.6298
         TRA.     0.1380D+28                  1689.1255     4.9680    40.6846
         TOT.                      -51.509    6077.2726    30.2371    85.3144

 350.00  VIB.     0.2960D+02                  3601.0698    22.9899    17.0210
         ROT.     0.3505D+06                  1043.2834     2.9808    28.3515
         INT.     0.1037D+08                  4644.3532    25.9707    45.3725
         TRA.     0.1441D+28                  1738.8057     4.9680    40.8286
         TOT.                      -51.203    6383.1589    30.9387    86.2010

 360.00  VIB.     0.3434D+02                  3834.4403    23.6827    17.6784
         ROT.     0.3656D+06                  1073.0915     2.9808    28.4355
         INT.     0.1255D+08                  4907.5318    26.6636    46.1138
         TRA.     0.1503D+28                  1788.4859     4.9680    40.9685
         TOT.                      -50.890    6696.0176    31.6316    87.0824

 370.00  VIB.     0.3987D+02                  4074.6943    24.3665    18.3366
         ROT.     0.3809D+06                  1102.8996     2.9808    28.5171
         INT.     0.1519D+08                  5177.5939    27.3473    46.8537
         TRA.     0.1566D+28                  1838.1660     4.9680    41.1047
         TOT.                      -50.571    7015.7599    32.3153    87.9584

 380.00  VIB.     0.4633D+02                  4321.7390    25.0408    18.9954
         ROT.     0.3965D+06                  1132.7077     2.9808    28.5966
         INT.     0.1837D+08                  5454.4467    28.0216    47.5920
         TRA.     0.1630D+28                  1887.8462     4.9680    41.2372
         TOT.                      -50.244    7342.2929    32.9896    88.8291

 390.00  VIB.     0.5388D+02                  4575.4782    25.7054    19.6544
         ROT.     0.4122D+06                  1162.5158     2.9808    28.6740
         INT.     0.2221D+08                  5737.9940    28.6862    48.3285
         TRA.     0.1695D+28                  1937.5263     4.9680    41.3662
         TOT.                      -49.911    7675.5203    33.6542    89.6947

 400.00  VIB.     0.6271D+02                  4835.8129    26.3599    20.3135
         ROT.     0.4282D+06                  1192.3239     2.9808    28.7495
         INT.     0.2685D+08                  6028.1368    29.3407    49.0630
         TRA.     0.1761D+28                  1987.2065     4.9680    41.4920
         TOT.                      -49.571    8015.3433    34.3087    90.5550

   *: NOTE: HEATS OF FORMATION ARE RELATIVE TO THE
            ELEMENTS IN THEIR STANDARD STATE AT 298K
              (=  Standard Enthalpy of Formation).

            Hvib:  Zero-point energy is not included.
                   frequencies of less than zero cm-1 are not included.
            Hrot = (3/2)RT
            Htra = (3/2)RT + pV = (5/2)RT

            Heat capacity is Cp, not Cv

          For more information, see: HTTP://OpenMOPAC.net/Manual/thermochemistry.html


           FORCE CONSTANT IN CARTESIAN COORDINATES (Millidynes/A)

    ATOM   CHEMICAL       X               Y               Z
   NUMBER   SYMBOL  FORCE CONSTANT  FORCE CONSTANT  FORCE CONSTANT

      1       C       10.701907       11.680102        2.353452
      2       C        7.431059       13.347050        2.025434
      3       C        8.784249       11.993856        2.025438
      4       C        6.368170       16.013857        2.353432
      5       H        1.579951        3.319734        0.350237
      6       H        3.762438        1.137245        0.350239
      7       C        6.867743        6.474571        5.803807
      8       H        0.932856        3.330161        1.404166
      9       H        2.091213        2.172773        1.403196
     10       H        1.067371        0.705178        3.655791
     11       N       11.516138        8.902751        0.766905
     12       O        0.905004       13.569710        0.383926
     13       O        6.052058        8.422669        0.383913

 **********************
 *                    *
 * JOB ENDED NORMALLY *
 *                    *
 **********************



 TOTAL JOB TIME:             0.41 SECONDS

 == MOPAC DONE ==
