 *******************************************************************************
 ** Site#: 37381        For non-commercial use only           Version 21.125L **
 *******************************************************************************
 ** Cite this program as: MOPAC2016, Version: 21.125L, James J. P. Stewart,   **
 ** Stewart Computational Chemistry, web: HTTP://OpenMOPAC.net. Days left: 191**
 *******************************************************************************
 **                                                                           **
 **                                MOPAC2016                                  **
 **                                                                           **
 *******************************************************************************

                              PM6-D3H4 CALCULATION RESULTS

 *******************************************************************************
 *  CALCULATION DONE:                                Tue Oct 26 21:00:42 2021  *
 *  PM6-D3H4   - CORRECT DISPERSION AND HYDROGEN BOND TERMS USING THE D3H4 METHOD
 *  EPS=2.38   - USE ANDREAS KLAMT'S COSMO IMPLICIT SOLVATION MODEL
 *  RSOLV=  3.480
 *  FORCE      - FORCE CALCULATION SPECIFIED
 *  T=         - A TIME OF 172800.0 SECONDS REQUESTED
 *  DUMP=N     - RESTART FILE WRITTEN EVERY 7200.0 SECONDS REQUESTED
 *  AUX        - OUTPUT AUXILIARY INFORMATION
 *  LARGE      - EXPANDED OUTPUT TO BE PRINTED
 *  THERMO     - THERMODYNAMIC QUANTITIES TO BE CALCULATED
 *******************************************************************************
 AUX LARGE FORCE THERMO PM6-D3H4 EPS=2.38 RSOLV=3.48
 DA_TS_PM6_D3H4_THERMO

   ATOM   CHEMICAL          X               Y               Z
  NUMBER   SYMBOL      (ANGSTROMS)     (ANGSTROMS)     (ANGSTROMS)
 
     1       C         -2.30657000  *   0.80437000  *  -0.63699000  *
     2       C         -1.33493000  *  -0.22357000  *  -1.04468000  *
     3       C         -0.04841000  *   0.12746000  *  -0.62550000  *
     4       C         -0.14482000  *   1.51636000  *   0.00347000  *
     5       H         -1.58312000  *  -0.96338000  *  -1.78754000  *
     6       H          0.86525000  *  -0.15665000  *  -1.14656000  *
     7       C         -2.07962000  *   3.10035000  *   0.55470000  *
     8       H         -1.57486000  *   3.97581000  *   0.07099000  *
     9       H         -3.17969000  *   3.12632000  *   0.33730000  *
    10       H         -1.90798000  *   3.12914000  *   1.66053000  *
    11       N         -1.52207000  *   1.85024000  *   0.00371000  *
    12       O          0.74607000  *   2.22487000  *   0.42508000  *
    13       O         -3.50951000  *   0.87577000  *  -0.74841000  *
    14       C         -1.03995000  *  -2.66855000  *   0.26487000  *
    15       H         -1.10349000  *  -3.64002000  *  -0.23697000  *
    16       C          0.24335000  *  -2.18414000  *   0.58080000  *
    17       H          1.10932000  *  -2.81295000  *   0.32605000  *
    18       C         -2.17874000  *  -1.91096000  *   0.42567000  *
    19       H         -2.20991000  *  -1.06893000  *   1.12683000  *
    20       C         -3.49823000  *  -2.31802000  *  -0.12036000  *
    21       H         -4.07341000  *  -1.41280000  *  -0.45595000  *
    22       H         -3.40318000  *  -3.01404000  *  -0.98665000  *
    23       H         -4.09221000  *  -2.82695000  *   0.68139000  *
    24       C          0.48009000  *  -0.88277000  *   1.02698000  *
    25       H         -0.26072000  *  -0.37457000  *   1.66041000  *
    26       C          1.89871000  *  -0.46990000  *   1.34211000  *
    27       H          2.29953000  *  -1.03976000  *   2.21573000  *
    28       H          1.98335000  *   0.62923000  *   1.49155000  *
    29       C          3.55935000  *  -0.09711000  *  -0.49621000  *
    30       C          3.72640000  *   1.32937000  *  -0.13264000  *
    31       H          4.16254000  *   1.43509000  *   0.89115000  *
    32       H          4.42273000  *   1.81940000  *  -0.86178000  *
    33       H          2.74648000  *   1.88262000  *  -0.16801000  *
    34       O          2.73603000  *  -0.92919000  *   0.24423000  *
    35       O          4.09850000  *  -0.67876000  *  -1.41487000  *
 


          CARTESIAN COORDINATES 

    NO.       ATOM           X           Y           Z

     1         C         -2.3066      0.8044     -0.6370
     2         C         -1.3349     -0.2236     -1.0447
     3         C         -0.0484      0.1275     -0.6255
     4         C         -0.1448      1.5164      0.0035
     5         H         -1.5831     -0.9634     -1.7875
     6         H          0.8653     -0.1567     -1.1466
     7         C         -2.0796      3.1004      0.5547
     8         H         -1.5749      3.9758      0.0710
     9         H         -3.1797      3.1263      0.3373
    10         H         -1.9080      3.1291      1.6605
    11         N         -1.5221      1.8502      0.0037
    12         O          0.7461      2.2249      0.4251
    13         O         -3.5095      0.8758     -0.7484
    14         C         -1.0399     -2.6686      0.2649
    15         H         -1.1035     -3.6400     -0.2370
    16         C          0.2434     -2.1841      0.5808
    17         H          1.1093     -2.8129      0.3261
    18         C         -2.1787     -1.9110      0.4257
    19         H         -2.2099     -1.0689      1.1268
    20         C         -3.4982     -2.3180     -0.1204
    21         H         -4.0734     -1.4128     -0.4560
    22         H         -3.4032     -3.0140     -0.9867
    23         H         -4.0922     -2.8270      0.6814
    24         C          0.4801     -0.8828      1.0270
    25         H         -0.2607     -0.3746      1.6604
    26         C          1.8987     -0.4699      1.3421
    27         H          2.2995     -1.0398      2.2157
    28         H          1.9833      0.6292      1.4915
    29         C          3.5594     -0.0971     -0.4962
    30         C          3.7264      1.3294     -0.1326
    31         H          4.1625      1.4351      0.8911
    32         H          4.4227      1.8194     -0.8618
    33         H          2.7465      1.8826     -0.1680
    34         O          2.7360     -0.9292      0.2442
    35         O          4.0985     -0.6788     -1.4149

 General Reference for PM6:
 "Optimization of Parameters for Semiempirical Methods V: Modification of NDDO Approximations
 and Application to 70 Elements", J. J. P. Stewart, J. Mol. Mod., 13, 1173-1213 (2007)
 URL: https://link.springer.com/article/10.1007/s00894-007-0233-4

           Empirical Formula: C13 H17 N O4  =    35 atoms



      MOLECULAR POINT GROUP   :   C1  


      RHF CALCULATION, NO. OF DOUBLY OCCUPIED LEVELS = 49



          HEAT OF FORMATION =    -103.229615 KCALS/MOLE


          CARTESIAN COORDINATE DERIVATIVES

   NUMBER  ATOM         X            Y            Z

     1       C     -0.000264    -0.013749    -0.008772
     2       C      0.017062     0.019010     0.004074
     3       C     -0.004120     0.000450     0.014691
     4       C      0.008276    -0.012191    -0.031702
     5       H      0.001867    -0.010543    -0.005711
     6       H     -0.008349     0.003257    -0.002110
     7       C      0.033179     0.021472    -0.053566
     8       H      0.017377    -0.012349     0.012922
     9       H     -0.027823     0.004226    -0.002648
    10       H     -0.008620     0.019374     0.007388
    11       N      0.003639    -0.020399     0.001028
    12       O      0.004184    -0.008644     0.005405
    13       O     -0.015388    -0.011777     0.021039
    14       C      0.006716     0.031163    -0.002959
    15       H     -0.004585    -0.014164     0.004246
    16       C      0.009249    -0.016140    -0.002971
    17       H     -0.030098     0.006359     0.018220
    18       C     -0.025844     0.016204    -0.024201
    19       H      0.017373    -0.003931     0.001096
    20       C     -0.011242     0.020161     0.000436
    21       H      0.011112     0.003135    -0.007782
    22       H      0.004272    -0.018984    -0.000908
    23       H      0.011137    -0.001841     0.013421
    24       C     -0.017567    -0.012030    -0.004787
    25       H      0.011064     0.006216    -0.004682
    26       C      0.020902     0.022021     0.041855
    27       H      0.013999    -0.034136    -0.009673
    28       H     -0.019330     0.004379    -0.012378
    29       C     -0.012062    -0.050859     0.040087
    30       C     -0.018469    -0.023614    -0.015768
    31       H     -0.014692     0.011546    -0.009624
    32       H      0.002779     0.002309     0.011227
    33       H     -0.000832    -0.000142     0.001650
    34       O     -0.043561     0.067138    -0.016429
    35       O      0.068657     0.007075     0.017888
 
 DIPOLE           X         Y         Z       TOTAL
 POINT-CHG.    -2.465    -0.176     4.365     5.016
 HYBRID        -0.071     0.068    -0.167     0.193
 SUM           -2.536    -0.108     4.198     4.906


          GRADIENT NORM =   0.19914


          TIME FOR SCF CALCULATION =    0.05

          TIME FOR DERIVATIVES     =    0.02

          MOLECULAR WEIGHT =  251.28



          ROTATIONAL CONSTANTS IN CM(-1)

          A =    0.02046844   B =    0.01046250   C =    0.00780618



           PRINCIPAL MOMENTS OF INERTIA IN UNITS OF 10**(-40)*GRAM-CM**2

          A =     1367.6064   B =     2675.5332   C =     3585.9775


          ORIENTATION OF MOLECULE IN FORCE CALCULATION

    NO.       ATOM         X         Y         Z

     1          C      -1.9221   -1.5535   -0.5691
     2          C      -0.4500   -1.5535   -0.5691
     3          C       0.0379   -0.2436   -0.5691
     4          C      -1.1698    0.6851   -0.6832
     5          H       0.1085   -2.4413   -0.8154
     6          H       0.9837    0.0586   -1.0177
     7          C      -3.7056    0.3303   -0.6843
     8          H      -3.8498    0.9596   -1.6000
     9          H      -4.3896   -0.5579   -0.7203
    10          H      -3.9187    0.9399    0.2301
    11          N      -2.3120   -0.1525   -0.6388
    12          O      -1.1932    1.8936   -0.7948
    13          O      -2.7351   -2.4486   -0.5202
    14          C       1.0893   -2.0733    1.6981
    15          H       1.8648   -2.8455    1.7441
    16          C       1.5106   -0.7390    1.5450
    17          H       2.5919   -0.5413    1.4999
    18          C      -0.2359   -2.4437    1.6407
    19          H      -1.0386   -1.7252    1.8433
    20          C      -0.6713   -3.8611    1.5632
    21          H      -1.5902   -3.9486    0.9222
    22          H       0.1173   -4.5253    1.1380
    23          H      -0.9301   -4.2279    2.5895
    24          C       0.6346    0.3113    1.2658
    25          H      -0.3847    0.3023    1.6772
    26          C       1.1954    1.7072    1.1264
    27          H       1.6159    2.0710    2.0956
    28          H       0.4423    2.4131    0.7116
    29          C       2.5403    2.3488   -0.8874
    30          C       1.5537    3.3789   -1.2880
    31          H       1.4842    4.1891   -0.5210
    32          H       1.8731    3.8418   -2.2578
    33          H       0.5304    2.9346   -1.4396
    34          O       2.3728    1.6165    0.2763
    35          O       3.5567    2.0498   -1.4794


    FIRST DERIVATIVES WILL BE USED IN THE CALCULATION OF SECOND DERIVATIVES

          ESTIMATED TIME TO COMPLETE CALCULATION =       16.41 SECONDS

    FOR POINT-GROUP C1   THERE ARE   1 UNIQUE SYMMETRY FUNCTIONS.

 STEP:   1 TIME =     0.06 SECS, INTEGRAL =      0.06 TIME LEFT: 172799.86
 STEP:   2 TIME =     0.07 SECS, INTEGRAL =      0.13 TIME LEFT: 172799.79
 STEP:   3 TIME =     0.06 SECS, INTEGRAL =      0.20 TIME LEFT: 172799.73
 STEP:   4 TIME =     0.07 SECS, INTEGRAL =      0.27 TIME LEFT: 172799.66
 STEP:   5 TIME =     0.07 SECS, INTEGRAL =      0.34 TIME LEFT: 172799.59
 STEP:   6 TIME =     0.07 SECS, INTEGRAL =      0.41 TIME LEFT: 172799.52
 STEP:   7 TIME =     0.08 SECS, INTEGRAL =      0.48 TIME LEFT: 172799.44
 STEP:   8 TIME =     0.07 SECS, INTEGRAL =      0.55 TIME LEFT: 172799.37
 STEP:   9 TIME =     0.06 SECS, INTEGRAL =      0.62 TIME LEFT: 172799.30
 STEP:  10 TIME =     0.06 SECS, INTEGRAL =      0.68 TIME LEFT: 172799.24
 STEP:  11 TIME =     0.07 SECS, INTEGRAL =      0.75 TIME LEFT: 172799.17
 STEP:  12 TIME =     0.06 SECS, INTEGRAL =      0.81 TIME LEFT: 172799.11
 STEP:  13 TIME =     0.07 SECS, INTEGRAL =      0.88 TIME LEFT: 172799.04
 STEP:  14 TIME =     0.05 SECS, INTEGRAL =      0.94 TIME LEFT: 172798.98
 STEP:  15 TIME =     0.06 SECS, INTEGRAL =      1.00 TIME LEFT: 172798.92
 STEP:  16 TIME =     0.06 SECS, INTEGRAL =      1.06 TIME LEFT: 172798.86
 STEP:  17 TIME =     0.06 SECS, INTEGRAL =      1.12 TIME LEFT: 172798.80
 STEP:  18 TIME =     0.07 SECS, INTEGRAL =      1.20 TIME LEFT: 172798.73
 STEP:  19 TIME =     0.06 SECS, INTEGRAL =      1.26 TIME LEFT: 172798.66
 STEP:  20 TIME =     0.06 SECS, INTEGRAL =      1.32 TIME LEFT: 172798.60
 STEP:  21 TIME =     0.06 SECS, INTEGRAL =      1.38 TIME LEFT: 172798.54
 STEP:  22 TIME =     0.05 SECS, INTEGRAL =      1.44 TIME LEFT: 172798.48
 STEP:  23 TIME =     0.08 SECS, INTEGRAL =      1.52 TIME LEFT: 172798.41
 STEP:  24 TIME =     0.05 SECS, INTEGRAL =      1.57 TIME LEFT: 172798.35
 STEP:  25 TIME =     0.05 SECS, INTEGRAL =      1.62 TIME LEFT: 172798.30
 STEP:  26 TIME =     0.06 SECS, INTEGRAL =      1.69 TIME LEFT: 172798.23
 STEP:  27 TIME =     0.05 SECS, INTEGRAL =      1.74 TIME LEFT: 172798.18
 STEP:  28 TIME =     0.06 SECS, INTEGRAL =      1.80 TIME LEFT: 172798.12
 STEP:  29 TIME =     0.05 SECS, INTEGRAL =      1.86 TIME LEFT: 172798.06
 STEP:  30 TIME =     0.05 SECS, INTEGRAL =      1.91 TIME LEFT: 172798.01
 STEP:  31 TIME =     0.06 SECS, INTEGRAL =      1.98 TIME LEFT: 172797.95
 STEP:  32 TIME =     0.07 SECS, INTEGRAL =      2.05 TIME LEFT: 172797.88
 STEP:  33 TIME =     0.06 SECS, INTEGRAL =      2.11 TIME LEFT: 172797.81
 STEP:  34 TIME =     0.05 SECS, INTEGRAL =      2.16 TIME LEFT: 172797.76
 STEP:  35 TIME =     0.06 SECS, INTEGRAL =      2.23 TIME LEFT: 172797.70
 STEP:  36 TIME =     0.06 SECS, INTEGRAL =      2.29 TIME LEFT: 172797.63
 STEP:  37 TIME =     0.06 SECS, INTEGRAL =      2.35 TIME LEFT: 172797.57
 STEP:  38 TIME =     0.06 SECS, INTEGRAL =      2.41 TIME LEFT: 172797.51
 STEP:  39 TIME =     0.06 SECS, INTEGRAL =      2.48 TIME LEFT: 172797.45
 STEP:  40 TIME =     0.07 SECS, INTEGRAL =      2.55 TIME LEFT: 172797.38
 STEP:  41 TIME =     0.06 SECS, INTEGRAL =      2.61 TIME LEFT: 172797.31
 STEP:  42 TIME =     0.07 SECS, INTEGRAL =      2.68 TIME LEFT: 172797.24
 STEP:  43 TIME =     0.05 SECS, INTEGRAL =      2.73 TIME LEFT: 172797.19
 STEP:  44 TIME =     0.05 SECS, INTEGRAL =      2.79 TIME LEFT: 172797.13
 STEP:  45 TIME =     0.06 SECS, INTEGRAL =      2.85 TIME LEFT: 172797.07
 STEP:  46 TIME =     0.06 SECS, INTEGRAL =      2.91 TIME LEFT: 172797.01
 STEP:  47 TIME =     0.06 SECS, INTEGRAL =      2.98 TIME LEFT: 172796.95
 STEP:  48 TIME =     0.06 SECS, INTEGRAL =      3.04 TIME LEFT: 172796.88
 STEP:  49 TIME =     0.06 SECS, INTEGRAL =      3.10 TIME LEFT: 172796.82
 STEP:  50 TIME =     0.06 SECS, INTEGRAL =      3.16 TIME LEFT: 172796.76
 STEP:  51 TIME =     0.06 SECS, INTEGRAL =      3.23 TIME LEFT: 172796.70
 STEP:  52 TIME =     0.06 SECS, INTEGRAL =      3.29 TIME LEFT: 172796.63
 STEP:  53 TIME =     0.06 SECS, INTEGRAL =      3.35 TIME LEFT: 172796.57
 STEP:  54 TIME =     0.07 SECS, INTEGRAL =      3.42 TIME LEFT: 172796.50
 STEP:  55 TIME =     0.06 SECS, INTEGRAL =      3.48 TIME LEFT: 172796.44
 STEP:  56 TIME =     0.06 SECS, INTEGRAL =      3.55 TIME LEFT: 172796.38
 STEP:  57 TIME =     0.07 SECS, INTEGRAL =      3.62 TIME LEFT: 172796.30
 STEP:  58 TIME =     0.07 SECS, INTEGRAL =      3.69 TIME LEFT: 172796.23
 STEP:  59 TIME =     0.07 SECS, INTEGRAL =      3.76 TIME LEFT: 172796.16
 STEP:  60 TIME =     0.06 SECS, INTEGRAL =      3.82 TIME LEFT: 172796.10
 STEP:  61 TIME =     0.07 SECS, INTEGRAL =      3.89 TIME LEFT: 172796.03
 STEP:  62 TIME =     0.06 SECS, INTEGRAL =      3.95 TIME LEFT: 172795.97
 STEP:  63 TIME =     0.06 SECS, INTEGRAL =      4.02 TIME LEFT: 172795.91
 STEP:  64 TIME =     0.06 SECS, INTEGRAL =      4.08 TIME LEFT: 172795.84
 STEP:  65 TIME =     0.05 SECS, INTEGRAL =      4.13 TIME LEFT: 172795.79
 STEP:  66 TIME =     0.05 SECS, INTEGRAL =      4.19 TIME LEFT: 172795.73
 STEP:  67 TIME =     0.05 SECS, INTEGRAL =      4.24 TIME LEFT: 172795.68
 STEP:  68 TIME =     0.07 SECS, INTEGRAL =      4.31 TIME LEFT: 172795.61
 STEP:  69 TIME =     0.05 SECS, INTEGRAL =      4.37 TIME LEFT: 172795.55
 STEP:  70 TIME =     0.07 SECS, INTEGRAL =      4.44 TIME LEFT: 172795.48
 STEP:  71 TIME =     0.06 SECS, INTEGRAL =      4.50 TIME LEFT: 172795.42
 STEP:  72 TIME =     0.07 SECS, INTEGRAL =      4.57 TIME LEFT: 172795.35
 STEP:  73 TIME =     0.07 SECS, INTEGRAL =      4.64 TIME LEFT: 172795.28
 STEP:  74 TIME =     0.06 SECS, INTEGRAL =      4.70 TIME LEFT: 172795.22
 STEP:  75 TIME =     0.06 SECS, INTEGRAL =      4.77 TIME LEFT: 172795.16
 STEP:  76 TIME =     0.06 SECS, INTEGRAL =      4.83 TIME LEFT: 172795.09
 STEP:  77 TIME =     0.06 SECS, INTEGRAL =      4.89 TIME LEFT: 172795.03
 STEP:  78 TIME =     0.06 SECS, INTEGRAL =      4.95 TIME LEFT: 172794.97
 STEP:  79 TIME =     0.06 SECS, INTEGRAL =      5.02 TIME LEFT: 172794.91
 STEP:  80 TIME =     0.05 SECS, INTEGRAL =      5.07 TIME LEFT: 172794.85
 STEP:  81 TIME =     0.06 SECS, INTEGRAL =      5.13 TIME LEFT: 172794.79
 STEP:  82 TIME =     0.05 SECS, INTEGRAL =      5.19 TIME LEFT: 172794.73
 STEP:  83 TIME =     0.05 SECS, INTEGRAL =      5.24 TIME LEFT: 172794.68
 STEP:  84 TIME =     0.05 SECS, INTEGRAL =      5.30 TIME LEFT: 172794.62
 STEP:  85 TIME =     0.06 SECS, INTEGRAL =      5.36 TIME LEFT: 172794.56
 STEP:  86 TIME =     0.06 SECS, INTEGRAL =      5.42 TIME LEFT: 172794.50
 STEP:  87 TIME =     0.06 SECS, INTEGRAL =      5.48 TIME LEFT: 172794.44
 STEP:  88 TIME =     0.06 SECS, INTEGRAL =      5.55 TIME LEFT: 172794.38
 STEP:  89 TIME =     0.05 SECS, INTEGRAL =      5.60 TIME LEFT: 172794.32
 STEP:  90 TIME =     0.05 SECS, INTEGRAL =      5.66 TIME LEFT: 172794.27
 STEP:  91 TIME =     0.06 SECS, INTEGRAL =      5.72 TIME LEFT: 172794.20
 STEP:  92 TIME =     0.05 SECS, INTEGRAL =      5.77 TIME LEFT: 172794.15
 STEP:  93 TIME =     0.06 SECS, INTEGRAL =      5.84 TIME LEFT: 172794.09
 STEP:  94 TIME =     0.05 SECS, INTEGRAL =      5.89 TIME LEFT: 172794.03
 STEP:  95 TIME =     0.05 SECS, INTEGRAL =      5.95 TIME LEFT: 172793.98
 STEP:  96 TIME =     0.05 SECS, INTEGRAL =      6.00 TIME LEFT: 172793.92
 STEP:  97 TIME =     0.05 SECS, INTEGRAL =      6.05 TIME LEFT: 172793.87
 STEP:  98 TIME =     0.05 SECS, INTEGRAL =      6.11 TIME LEFT: 172793.81
 STEP:  99 TIME =     0.05 SECS, INTEGRAL =      6.16 TIME LEFT: 172793.76
 STEP: 100 TIME =     0.05 SECS, INTEGRAL =      6.22 TIME LEFT: 172793.70
 STEP: 101 TIME =     0.06 SECS, INTEGRAL =      6.28 TIME LEFT: 172793.64
 STEP: 102 TIME =     0.05 SECS, INTEGRAL =      6.34 TIME LEFT: 172793.59
 STEP: 103 TIME =     0.06 SECS, INTEGRAL =      6.40 TIME LEFT: 172793.52
 STEP: 104 TIME =     0.06 SECS, INTEGRAL =      6.46 TIME LEFT: 172793.46
 STEP: 105 TIME =     0.06 SECS, INTEGRAL =      6.52 TIME LEFT: 172793.40

(To convert to Hartree/Bohr^2, multiply by (10^(-21) x N x a0^2)/(4.184 x 627.51) =  0.0642)


           FORCE MATRIX IN MILLIDYNES/ANGSTROM


                  C  1       C  2       C  3       C  4       H  5       H  6
 ------------------------------------------------------------------------------
     C    1  17.142656
     C    2   3.334246  12.837509
     C    3   1.712114   5.629276  12.206775
     C    4   2.110117   1.074734   2.828553  17.156911
     H    5   0.563644   3.560559   0.697261   0.094075   4.332116
     H    6   0.143711   0.639981   3.428452   0.539307   0.043305   4.073016
     C    7   0.460474   0.099408   0.118331   0.511779   0.013972   0.016910
     H    8   0.075113   0.021231   0.013253   0.093660   0.003166   0.003456
     H    9   0.117416   0.020795   0.025748   0.066310   0.002508   0.004214
     H   10   0.062438   0.017691   0.013246   0.068916   0.002141   0.002921
     N   11   3.324161   1.263994   1.084057   4.173402   0.057832   0.069198
     O   12   0.508231   0.202929   0.962222  10.816303   0.018705   0.062779
     O   13  10.967390   1.274646   0.238993   0.361541   0.034511   0.040872
     C   14   0.401897   1.564615   1.720231   0.208868   0.144865   0.160481
     H   15   0.024800   0.042553   0.050071   0.021827   0.007637   0.007909
     C   16   0.525067   1.575439   2.277326   0.241706   0.154080   0.193223
     H   17   0.069608   0.071552   0.084867   0.021376   0.011501   0.008634
     C   18   0.428794   1.331660   1.267251   0.184544   0.251926   0.117581
     H   19   0.086309   0.248215   0.129763   0.025816   0.009584   0.011913
     C   20   0.196695   0.150711   0.133057   0.043217   0.022406   0.015937
     H   21   0.127017   0.048701   0.042370   0.017987   0.017203   0.004996
     H   22   0.023068   0.017412   0.020398   0.009117   0.016526   0.003064
     H   23   0.025919   0.017847   0.017709   0.009704   0.002697   0.002722
     C   24   0.812963   1.943927   2.949261   0.478542   0.172857   0.529677
     H   25   0.096096   0.180280   0.503232   0.108468   0.016468   0.014836
     C   26   0.053281   0.074917   0.327534   0.068415   0.007715   0.051886
     H   27   0.008561   0.011694   0.019442   0.016372   0.001211   0.004929
     H   28   0.027527   0.018755   0.026558   0.120073   0.001137   0.009892
     C   29   0.114355   0.139992   0.219254   0.155688   0.019458   0.116286
     C   30   0.056011   0.038685   0.030176   0.143267   0.005207   0.027166
     H   31   0.009818   0.005622   0.004435   0.025164   0.000982   0.004683
     H   32   0.008054   0.006164   0.003606   0.019107   0.001030   0.005561
     H   33   0.041824   0.015250   0.014916   0.154818   0.002229   0.016360
     O   34   0.080007   0.081954   0.159993   0.078815   0.013520   0.060337
     O   35   0.046236   0.086241   0.123290   0.060840   0.009374   0.080231


                  C  7       H  8       H  9       H 10       N 11       O 12
 ------------------------------------------------------------------------------
     C    7  11.152617
     H    8   3.265783   4.195248
     H    9   3.253671   0.544518   4.185192
     H   10   3.259655   0.554912   0.546185   4.196807
     N   11   4.269522   0.729631   0.747833   0.730660  14.814425
     O   12   0.052004   0.030242   0.012707   0.023963   1.946615  12.920831
     O   13   0.063821   0.020837   0.045223   0.013839   1.734546   0.179320
     C   14   0.011160   0.003071   0.003818   0.003707   0.053072   0.078547
     H   15   0.000534   0.000884   0.000719   0.000584   0.007333   0.010881
     C   16   0.009321   0.004086   0.004102   0.004613   0.070328   0.112573
     H   17   0.001650   0.001123   0.000919   0.000947   0.018577   0.016285
     C   18   0.011726   0.003394   0.004170   0.003016   0.077427   0.055179
     H   19   0.001374   0.000505   0.001013   0.001506   0.017868   0.010174
     C   20   0.004919   0.002675   0.003774   0.002380   0.043423   0.032197
     H   21   0.003242   0.000897   0.001638   0.000831   0.025203   0.008663
     H   22   0.000830   0.000613   0.000595   0.000416   0.008467   0.006585
     H   23   0.000950   0.000543   0.000801   0.000596   0.008751   0.006863
     C   24   0.015119   0.006334   0.006403   0.007113   0.165654   0.149048
     H   25   0.005458   0.001847   0.001477   0.003551   0.029518   0.031606
     C   26   0.004391   0.001628   0.000913   0.001855   0.021702   0.062619
     H   27   0.000508   0.000523   0.000354   0.000523   0.006619   0.007740
     H   28   0.003121   0.001128   0.000772   0.001086   0.034901   0.066253
     C   29   0.006408   0.006302   0.003356   0.002087   0.070135   0.121614
     C   30   0.005910   0.003334   0.002100   0.002309   0.069581   0.175958
     H   31   0.001039   0.000695   0.000436   0.000620   0.012472   0.021636
     H   32   0.000906   0.000749   0.000405   0.000365   0.009529   0.016004
     H   33   0.004749   0.002497   0.001522   0.001781   0.061690   0.103359
     O   34   0.002894   0.004302   0.002227   0.001257   0.031920   0.061579
     O   35   0.003239   0.002822   0.001855   0.000943   0.030416   0.040254


                  O 13       C 14       H 15       C 16       H 17       C 18
 ------------------------------------------------------------------------------
     O   13  13.125297
     C   14   0.163639  14.166364
     H   15   0.012599   3.464074   4.315321
     C   16   0.187830   4.985217   0.709993  13.774182
     H   17   0.020545   0.671537   0.044528   3.434873   4.244949
     C   18   0.151702   6.516784   0.712989   2.042819   0.100333  13.946729
     H   19   0.019214   0.673931   0.097356   0.154227   0.006577   3.423606
     C   20   0.120389   1.002487   0.045565   0.235752   0.020793   4.058497
     H   21   0.079457   0.066292   0.004432   0.053102   0.003333   0.691425
     H   22   0.009740   0.034456   0.025723   0.027988   0.002801   0.656931
     H   23   0.012388   0.048258   0.008213   0.033041   0.004064   0.675116
     C   24   0.242055   2.237707   0.103126   5.866009   0.657040   1.154392
     H   25   0.037812   0.184124   0.007053   0.715387   0.078319   0.126728
     C   26   0.015972   0.095661   0.010549   0.784971   0.051949   0.044653
     H   27   0.005539   0.012715   0.001948   0.020945   0.015100   0.010437
     H   28   0.007165   0.011117   0.002061   0.051421   0.003209   0.007362
     C   29   0.049429   0.043304   0.012126   0.039399   0.040756   0.038400
     C   30   0.024271   0.016489   0.003676   0.018370   0.008997   0.012401
     H   31   0.005380   0.004127   0.000870   0.003505   0.001761   0.003063
     H   32   0.004743   0.003375   0.000712   0.002800   0.001176   0.002517
     H   33   0.017303   0.006976   0.001664   0.010566   0.002776   0.005386
     O   34   0.033056   0.025242   0.009743   0.030219   0.028586   0.032642
     O   35   0.025160   0.019309   0.006248   0.017311   0.015971   0.018074


                  H 19       C 20       H 21       H 22       H 23       C 24
 ------------------------------------------------------------------------------
     H   19   4.222591
     C   20   0.617671  11.399317
     H   21   0.026524   3.227284   4.143207
     H   22   0.047986   3.338272   0.553356   4.258579
     H   23   0.020931   3.245887   0.561989   0.559504   4.190600
     C   24   0.123700   0.173490   0.049774   0.024713   0.023498  12.886916
     H   25   0.045160   0.019511   0.005582   0.003160   0.002923   3.353246
     C   26   0.014642   0.025079   0.005171   0.004805   0.004503   3.573276
     H   27   0.002968   0.006917   0.001379   0.001307   0.001446   0.606340
     H   28   0.002142   0.004450   0.001107   0.000794   0.000860   0.604730
     C   29   0.008719   0.034061   0.007628   0.007488   0.006819   0.150936
     C   30   0.002618   0.010462   0.002525   0.002289   0.002248   0.030957
     H   31   0.000671   0.002598   0.000595   0.000542   0.000593   0.006672
     H   32   0.000470   0.002204   0.000520   0.000477   0.000478   0.003550
     H   33   0.001064   0.004303   0.001193   0.000974   0.000922   0.017339
     O   34   0.007018   0.027839   0.006038   0.005943   0.005373   0.915508
     O   35   0.003732   0.016129   0.003450   0.003738   0.003193   0.068159


                  H 25       C 26       H 27       H 28       C 29       C 30
 ------------------------------------------------------------------------------
     H   25   4.197033
     C   26   0.580541  11.481015
     H   27   0.020809   3.226937   4.164501
     H   28   0.028079   3.228561   0.534583   4.132822
     C   29   0.044300   1.053661   0.113004   0.115403  16.785063
     C   30   0.009189   0.080029   0.014948   0.045844   3.798663  11.362332
     H   31   0.002549   0.025250   0.004117   0.037371   0.725821   3.287515
     H   32   0.001309   0.011666   0.001861   0.002547   0.735936   3.284561
     H   33   0.004165   0.035097   0.004211   0.053525   0.734936   3.158765
     O   34   0.085315   3.294938   0.731683   0.661028   3.729357   0.810170
     O   35   0.020581   0.286072   0.053500   0.040938  11.016222   1.178116


                  H 31       H 32       H 33       O 34       O 35
 ------------------------------------------------------------------
     H   31   4.203192
     H   32   0.551197   4.201304
     H   33   0.551144   0.547124   4.066689
     O   34   0.061170   0.065157   0.076583   9.402137
     O   35   0.067232   0.057118   0.069552   2.426649  13.382872


          HEAT OF FORMATION =    -103.229615 KCALS/MOLE


          TRIVIAL VIBRATIONS, SHOULD BE ZERO

 -27.6768=TX   9.9077=TY  10.6433=TZ  39.9704=RX  33.1975=RY  33.9578=RZ


      MOLECULAR POINT GROUP   :   C1  


           EIGENVECTORS  


   Root No.       1         2         3         4         5         6         7         8

                 1 A       2 A       3 A       4 A       5 A       6 A       7 A       8 A   

                  -3.9       0.0       0.0       0.0       0.0       0.0       0.0       0.0
  
           1    0.0889    0.0019    0.0255   -0.0896    0.0092   -0.0325   -0.0885   -0.0224
           2   -0.0194    0.0112   -0.0347   -0.0004   -0.0057    0.0280    0.0814   -0.0262
           3   -0.0131   -0.0048   -0.0086    0.0931   -0.0350    0.0120    0.0896   -0.0192
           4   -0.0324    0.0016    0.0230   -0.0850   -0.0050   -0.0424   -0.0925   -0.0308
           5   -0.1082    0.0192   -0.0539   -0.0815   -0.0025    0.0310    0.0411    0.0240
           6    0.3239   -0.0079    0.0161    0.0485   -0.0958   -0.0203    0.0501   -0.0429
           7    0.1599   -0.0054    0.0434   -0.0194    0.0060   -0.0327   -0.0531   -0.0704
           8    0.1875    0.0214   -0.0609   -0.1050   -0.0039    0.0282    0.0263    0.0394
           9    0.5747    0.0163   -0.0036   -0.0453   -0.0775    0.0119    0.0505   -0.0202
          10    0.0036   -0.0124    0.0564    0.0337   -0.0048   -0.0418   -0.0324   -0.1066
          11   -0.0061    0.0172   -0.0456   -0.0527   -0.0026    0.0334    0.0585    0.0062
          12    0.0158    0.0459   -0.0355   -0.1348   -0.0724    0.0562    0.0427    0.0090
          13   -0.0032    0.0063    0.0155   -0.1458   -0.0031   -0.0476   -0.1238   -0.0004
          14    0.0353    0.0257   -0.0683   -0.1207   -0.0115    0.0251    0.0254    0.0411
          15   -0.0505   -0.0196    0.0528    0.0504   -0.0465   -0.0004    0.0396   -0.0288
          16   -0.0545   -0.0132    0.0528    0.0150   -0.0130   -0.0657   -0.0569   -0.1023
          17   -0.0286    0.0338   -0.0785   -0.1732   -0.0076    0.0335    0.0027    0.0757
          18   -0.0790    0.0098   -0.0031   -0.0239   -0.1224   -0.0520    0.0240   -0.0633
          19    0.0161   -0.0074    0.0523    0.0145   -0.0026   -0.0350   -0.0322   -0.1035
          20   -0.0027    0.0015   -0.0136    0.0985    0.0007    0.0237    0.1376   -0.1167
          21   -0.0055   -0.0362   -0.0907    0.0104    0.1073   -0.1592   -0.1469   -0.0064
          22    0.0015   -0.1152    0.0886    0.0102   -0.0897    0.0841    0.1137   -0.1398
          23   -0.0008   -0.4738   -0.0192    0.0669   -0.0070    0.0294    0.1401   -0.1361
          24    0.0001   -0.3464   -0.1004   -0.0107    0.1167   -0.1757   -0.1706   -0.0130
          25    0.0101   -0.0196    0.0426   -0.0439   -0.0048   -0.0228   -0.0587   -0.0469
          26   -0.0012   -0.0108   -0.0055    0.1410   -0.0008    0.0185    0.1630   -0.1629
          27   -0.0008    0.5075   -0.1051    0.0851    0.1803   -0.2621   -0.2378   -0.0046
          28    0.0060    0.1177    0.0315    0.0969    0.0817   -0.1646   -0.1345   -0.1521
          29   -0.0033    0.4788   -0.0039    0.1549    0.0086    0.0140    0.1503   -0.1266
          30   -0.0039   -0.3256   -0.1022   -0.0075    0.1220   -0.1841   -0.1797   -0.0121
          31    0.0327   -0.0064    0.0449   -0.0133    0.0009   -0.0371   -0.0532   -0.0752
          32    0.0073    0.0112   -0.0303    0.0140    0.0007    0.0337    0.0924   -0.0346
          33   -0.0122    0.0468   -0.0443   -0.0349   -0.0149    0.0210    0.0368    0.0082
          34   -0.0044   -0.0193    0.0682    0.0956    0.0046   -0.0366    0.0000   -0.1259
          35    0.0112    0.0201   -0.0465   -0.0644   -0.0051    0.0393    0.0597    0.0079
          36   -0.0141    0.0749   -0.0482   -0.2723   -0.1070    0.1090    0.0378    0.0327
          37    0.0002    0.0069    0.0115   -0.1366    0.0055   -0.0379   -0.1111    0.0039
          38    0.0111    0.0050   -0.0221    0.0501   -0.0019    0.0336    0.1060   -0.0511
          39   -0.0054   -0.0273   -0.0021    0.2110    0.0033    0.0327    0.1559   -0.0173
          40    0.0992    0.0069   -0.0186    0.0202    0.0023    0.0551    0.0825   -0.0009
          41    0.0881   -0.0151   -0.0405    0.0103   -0.0430   -0.0702   -0.0188    0.0071
          42   -0.0132   -0.0162    0.0561   -0.0024   -0.0514   -0.0775   -0.0302   -0.0433
          43    0.0005    0.0044   -0.0404    0.0492    0.0079    0.0385    0.1250    0.0140
          44   -0.0120   -0.0184   -0.0602    0.0391   -0.0379   -0.0910    0.0188    0.0204
          45    0.0325   -0.0297    0.0897   -0.0047   -0.0452   -0.1412   -0.0868   -0.0606
          46    0.0223    0.0121    0.0181   -0.0342   -0.0044    0.0771    0.0206   -0.0256
          47   -0.1512   -0.0147   -0.0566    0.0235   -0.0457   -0.0782    0.0013    0.0120
          48   -0.0246   -0.0048    0.0126   -0.0097   -0.1235   -0.1284   -0.0310   -0.0769
          49   -0.0031    0.0131    0.0241   -0.0437   -0.0052    0.0797    0.0133   -0.0292
          50    0.0172   -0.0201   -0.0870    0.0719   -0.0456   -0.1059    0.0378    0.0243
          51    0.0329   -0.0117    0.0087   -0.0014   -0.1625   -0.2241   -0.0786   -0.1234
          52   -0.0819    0.0057   -0.0278    0.0317    0.0038    0.0422    0.0999    0.0049
          53    0.0498   -0.0093   -0.0065   -0.0414   -0.0434   -0.0277   -0.0820   -0.0117
          54   -0.2233   -0.0111    0.0585    0.0033    0.0400    0.0688    0.0455    0.0205
          55   -0.0193    0.0093   -0.0109    0.0062    0.0108    0.0812    0.0711   -0.0002
          56    0.0195   -0.0072    0.0236   -0.0813   -0.0159    0.0172   -0.1232   -0.0116
          57    0.0388   -0.0040    0.0192    0.0407   -0.0256    0.0648    0.0733   -0.0009
          58    0.0103   -0.0015   -0.0685    0.1016   -0.0302   -0.0278    0.1694    0.0184
          59    0.0315   -0.0064    0.0042   -0.0648   -0.0325   -0.0077   -0.1018   -0.0163
          60   -0.0334   -0.0233    0.1016    0.0049    0.1233    0.1558    0.0336    0.0686
          61   -0.0148    0.0013   -0.0557   -0.0316    0.1544   -0.1684    0.3296   -0.0166
          62   -0.0110    0.0038    0.0091   -0.0877   -0.0736    0.0298   -0.1664   -0.0381
          63   -0.0075   -0.0289    0.0819    0.2041   -0.1419    0.3547   -0.1879    0.1227
          64    0.0026   -0.0032   -0.0791    0.0557    0.0598   -0.1443    0.2941    0.0026
          65   -0.0001   -0.0076   -0.0362    0.0163   -0.1404   -0.0361   -0.1098   -0.0142
          66   -0.0030   -0.0245    0.1453   -0.2097    0.4624   -0.0172    0.2779    0.0350
          67    0.0082   -0.0090   -0.1057    0.3621   -0.3748    0.1881   -0.0850    0.0848
          68    0.0268   -0.0125    0.0506   -0.1484    0.1352   -0.0011   -0.0415   -0.0018
          69   -0.0102   -0.0275    0.1088    0.0413    0.0972    0.2141   -0.0085    0.0914
          70   -0.2140    0.0150    0.0427   -0.0753   -0.0195    0.0714   -0.0204   -0.0451
          71   -0.0907   -0.0073   -0.0436   -0.0175   -0.0533   -0.0586   -0.0166    0.0047
          72   -0.5383    0.0160   -0.0206   -0.0383   -0.1290   -0.0461    0.0216   -0.0540
          73    0.0044    0.0183    0.0436   -0.0810   -0.0064    0.0996   -0.0025   -0.0293
          74    0.0128   -0.0076   -0.0103   -0.0525   -0.0662   -0.0614   -0.0458    0.0026
          75    0.0741    0.0258   -0.0182   -0.0592   -0.0896    0.0318    0.0650   -0.0155
          76   -0.0176    0.0189    0.0710   -0.1271   -0.0462    0.0613   -0.0336   -0.0393
          77   -0.0327   -0.0078   -0.0592   -0.0002   -0.0356   -0.0488   -0.0067    0.0043
          78   -0.0425    0.0258   -0.0646   -0.0622   -0.0747    0.0095    0.0399   -0.0498
          79   -0.0271    0.0310    0.2054   -0.2131   -0.1204    0.0585   -0.0376   -0.0821
          80   -0.0559   -0.0206   -0.0817    0.0650   -0.0423   -0.0953   -0.0150    0.0214
          81   -0.0125    0.0253   -0.1166   -0.0504   -0.0399    0.0298    0.0445   -0.0388
          82    0.0007    0.0168    0.0358   -0.1283   -0.0450    0.0489   -0.0316   -0.0165
          83    0.0170   -0.0001   -0.0379   -0.0537   -0.0509   -0.0365   -0.0031    0.0012
          84   -0.0018    0.0424    0.0351   -0.1528   -0.1053    0.0525    0.0439   -0.0959
          85    0.0012   -0.0048   -0.1153    0.0207    0.0913    0.0674   -0.0690    0.0944
          86    0.0029    0.0028    0.0498    0.0259    0.1305    0.1274   -0.0930   -0.0091
          87   -0.0107    0.0123   -0.1502    0.0512    0.0757    0.0714   -0.0166    0.0347
          88    0.0018   -0.0163   -0.0584    0.0854    0.0429   -0.0626   -0.0190    0.2063
          89    0.0010   -0.0052    0.2089    0.0853    0.0643   -0.0186   -0.0389    0.1129
          90    0.0004    0.0194    0.1199    0.0453    0.0235    0.0163    0.0029    0.0678
          91   -0.0006   -0.0096    0.0503   -0.0206   -0.1109   -0.1784    0.0699    0.5564
          92    0.0001   -0.0010    0.0667   -0.0064    0.0221    0.0044   -0.0181    0.2388
          93   -0.0002    0.0157    0.2777    0.1315    0.0548   -0.0175   -0.0113   -0.0290
          94   -0.0011   -0.0315   -0.0929    0.2181    0.1063   -0.1097   -0.0348    0.1120
          95    0.0004   -0.0090    0.3704    0.2007    0.1422   -0.0147   -0.0847   -0.0919
          96   -0.0008    0.0125    0.1859    0.1443    0.0812    0.0028   -0.0237   -0.0628
          97   -0.0021   -0.0163   -0.0975    0.1080    0.0981   -0.0063   -0.0564    0.0839
          98   -0.0017   -0.0101    0.2996    0.0964   -0.0177   -0.1499    0.0256    0.3160
          99    0.0001    0.0360    0.1012   -0.1479   -0.1061    0.0229    0.0605    0.3352
         100    0.0041    0.0102   -0.0501   -0.0708    0.0061    0.0645   -0.0284   -0.0071
         101    0.0065    0.0002   -0.0966   -0.0074    0.0205    0.0277   -0.0011   -0.0400
         102    0.0093    0.0128   -0.2323    0.0155   -0.0051    0.0086    0.0474   -0.0012
         103    0.0018   -0.0064   -0.2266    0.0346    0.1943    0.1764   -0.1339    0.0864
         104   -0.0005    0.0125    0.0165   -0.0007    0.2678    0.3236   -0.2013   -0.0711
         105    0.0036    0.0048   -0.3249    0.0871    0.1836    0.1592   -0.0731    0.0537


   Root No.       9        10        11        12        13        14        15        16

                 9 A      10 A      11 A      12 A      13 A      14 A      15 A      16 A   

                   0.0       0.0       0.0       0.1       0.1       0.1       0.1       0.1
  
           1    0.0237   -0.1098   -0.0082   -0.0173    0.1441   -0.0157    0.0127    0.0415
           2    0.0020   -0.0646    0.0586   -0.0660    0.0759    0.0181   -0.0265    0.0247
           3   -0.0357    0.1840   -0.0837   -0.1193    0.1294    0.0670    0.1368    0.0398
           4    0.0220   -0.0827   -0.0224   -0.0045    0.1115   -0.0123    0.0261    0.0452
           5   -0.0495   -0.1141    0.0877   -0.0817    0.1233    0.0115   -0.0581    0.0549
           6   -0.0291    0.1726   -0.0620    0.0204   -0.0487   -0.0965   -0.0680   -0.0851
           7    0.0745   -0.0681   -0.0352   -0.0000    0.0907   -0.0070    0.0373    0.0121
           8   -0.0664   -0.1248    0.0901   -0.0862    0.1257    0.0044   -0.0583    0.0650
           9   -0.0463    0.0525    0.0401    0.0882    0.0246   -0.1055   -0.0526   -0.0284
          10    0.1078   -0.0270   -0.0610    0.0216    0.0462   -0.0218    0.0546   -0.0131
          11   -0.0308   -0.1014    0.0853   -0.0632    0.1030    0.0121   -0.0358    0.0384
          12   -0.1072    0.0467    0.0768    0.2125    0.0381    0.0217    0.1131    0.0059
          13   -0.0081   -0.1315    0.0119   -0.0102    0.1637   -0.0386   -0.0370    0.0575
          14   -0.0777   -0.1285    0.0992   -0.0763    0.1401    0.0075   -0.0462    0.0930
          15    0.0072    0.0907   -0.0060   -0.0258    0.0402   -0.1378   -0.2687   -0.1920
          16    0.1055   -0.0437   -0.0559    0.0068    0.0625   -0.0489    0.0313    0.0038
          17   -0.1093   -0.1661    0.1197   -0.0768    0.1726    0.0171   -0.0585    0.1002
          18   -0.0155    0.0841    0.0130    0.1144   -0.0141   -0.1813   -0.0567   -0.0217
          19    0.1095   -0.0514   -0.0486    0.0531    0.0642   -0.0229    0.0476    0.0115
          20    0.1159   -0.0494    0.0430    0.0697   -0.0109    0.0095   -0.0283    0.0250
          21    0.0264   -0.0328    0.0146    0.0233    0.0203    0.0170    0.0554    0.0207
          22    0.0873    0.0433   -0.0603    0.1759    0.1145    0.0557    0.2333    0.0873
          23    0.1399   -0.0645    0.0440    0.0897   -0.0477   -0.0142   -0.0805    0.0145
          24    0.0459   -0.0591    0.0172    0.0143   -0.0130   -0.0135   -0.0111   -0.0012
          25    0.0391   -0.0663   -0.0333   -0.0398    0.1374   -0.0120    0.0639    0.0053
          26    0.1712   -0.0369    0.0317    0.1501   -0.0669    0.0023   -0.0380    0.0343
          27    0.0746   -0.0802    0.0108   -0.0092   -0.0235   -0.0242   -0.0285   -0.0096
          28    0.2337   -0.1250   -0.0620    0.0811   -0.0718   -0.1188   -0.1356   -0.0461
          29    0.1288   -0.0312    0.0373    0.1058   -0.0053    0.0293    0.0141    0.0485
          30    0.0482   -0.0628    0.0157    0.0086   -0.0167   -0.0189   -0.0173   -0.0072
          31    0.0780   -0.0623   -0.0403    0.0091    0.0866   -0.0211    0.0400    0.0072
          32    0.0164   -0.0723    0.0657   -0.0497    0.0762    0.0218   -0.0177    0.0213
          33   -0.0875    0.0946    0.0183    0.0963    0.1645    0.1451    0.3250    0.1186
          34    0.1289   -0.0077   -0.0648    0.0217    0.0227   -0.0282    0.0585   -0.0557
          35   -0.0333   -0.1076    0.0932   -0.0408    0.0980    0.0145   -0.0359    0.0348
          36   -0.1551   -0.0002    0.1537    0.4261   -0.0326    0.0424    0.1304   -0.0412
          37   -0.0117   -0.1209    0.0000   -0.0174    0.1548   -0.0184    0.0003    0.0645
          38    0.0366   -0.0501    0.0462   -0.0776    0.0703    0.0270   -0.0105    0.0096
          39   -0.0037    0.2479   -0.1695   -0.4058    0.2926    0.1827    0.2251    0.1156
          40   -0.0314    0.0115   -0.1099    0.0503   -0.0118    0.0373   -0.0873    0.0618
          41   -0.0301    0.0250   -0.0117   -0.0265   -0.0941    0.0030    0.0001   -0.0070
          42    0.0404    0.0270    0.1706    0.0036    0.0735    0.1631   -0.1060   -0.0960
          43   -0.0269   -0.0121   -0.0791    0.0323    0.0092   -0.0083   -0.1049    0.1018
          44   -0.0230    0.0017    0.0232   -0.0426   -0.0825   -0.0128   -0.0152    0.0271
          45    0.0937    0.0023    0.3308    0.0091   -0.0042    0.6233   -0.0940   -0.2455
          46   -0.0344    0.0451   -0.1117    0.0704   -0.0272    0.0933   -0.0494   -0.0176
          47   -0.0311    0.0171   -0.0167   -0.0264   -0.0782   -0.0384   -0.0008    0.0416
          48    0.0235    0.0905    0.1005    0.0255    0.0127   -0.0545    0.0161    0.1215
          49   -0.0331    0.0477   -0.1003    0.0662   -0.0236    0.0995   -0.0427   -0.0308
          50   -0.0269    0.0005   -0.0463   -0.0270   -0.0986   -0.0823   -0.0156    0.1683
          51    0.0745    0.1112    0.1641   -0.0384   -0.0304   -0.1138    0.1822    0.4606
          52   -0.0246   -0.0043   -0.0707    0.0383    0.0039    0.0350   -0.0836    0.0667
          53   -0.0475    0.0558   -0.1037    0.0072   -0.1217    0.0450   -0.0126   -0.0135
          54    0.0060   -0.0559    0.0758   -0.0406    0.2107   -0.0490   -0.2123   -0.1044
          55   -0.0422    0.0164   -0.1590    0.0535    0.0211    0.0195   -0.1181    0.0918
          56   -0.0541    0.0368   -0.1606    0.0270   -0.1076    0.0938   -0.0319    0.0158
          57   -0.0418    0.0953   -0.0928   -0.0511    0.2428   -0.2880   -0.2786   -0.0943
          58   -0.0010   -0.0166    0.0951   -0.0099   -0.0861    0.0135   -0.0292   -0.0081
          59   -0.0553    0.0586   -0.1529    0.0172   -0.0752    0.0551   -0.0474    0.0091
          60    0.0185   -0.1752    0.0325    0.0074   -0.0126   -0.0474   -0.0118    0.0119
          61   -0.0088    0.0589    0.1058   -0.0196   -0.0871    0.0132   -0.0562   -0.0478
          62   -0.0766    0.1032   -0.2513    0.0168    0.1459    0.0761   -0.2272    0.0050
          63    0.0342   -0.2941    0.0384    0.0274   -0.0642   -0.0521    0.0594    0.0692
          64    0.0055    0.0249    0.1818   -0.0374   -0.1477    0.0097   -0.0171   -0.0777
          65   -0.0437    0.0717   -0.0346   -0.0259   -0.0685    0.0595   -0.0881   -0.0966
          66    0.0109   -0.1149   -0.0023    0.0254   -0.1343   -0.0630    0.0780    0.0582
          67    0.0239   -0.1584    0.1673   -0.0032   -0.1719    0.0123    0.0490    0.0089
          68   -0.0560    0.0092   -0.2356    0.0722   -0.2736    0.0504    0.1394    0.1563
          69    0.0253   -0.2327    0.0220    0.0300   -0.1085   -0.0527    0.0799    0.0743
          70   -0.0288    0.0706   -0.0536    0.0354   -0.0265    0.0942    0.0007   -0.0517
          71   -0.0408    0.0293    0.0023   -0.0398   -0.0756   -0.0564    0.0289   -0.0152
          72   -0.0415    0.1003   -0.0203    0.1071   -0.0177   -0.1114   -0.0087    0.0051
          73   -0.0477    0.0667   -0.0521    0.0702   -0.0110    0.1007   -0.0329   -0.0853
          74   -0.0509    0.0629    0.0850   -0.0932   -0.1070   -0.0924    0.0278   -0.0263
          75   -0.0843    0.0775   -0.0088    0.1932    0.0369   -0.0906   -0.0855   -0.0859
          76   -0.0395    0.0747    0.0630   -0.1183   -0.1033    0.0089    0.0087   -0.0389
          77   -0.0292    0.0050   -0.0451    0.0016   -0.0411   -0.0252    0.0406   -0.0410
          78    0.0085   -0.0598   -0.0946   -0.0684   -0.0537   -0.0574    0.0741   -0.1072
          79   -0.0273    0.1483    0.2066   -0.2229   -0.1532   -0.1963    0.0420   -0.0405
          80   -0.0787    0.0941   -0.0655    0.2352    0.0360    0.0310   -0.0761    0.1224
          81    0.0234   -0.1257   -0.1521   -0.1196   -0.0682    0.0086    0.1111   -0.1809
          82   -0.0477    0.0476    0.0858   -0.2044   -0.1480   -0.0140    0.0240   -0.0467
          83   -0.0066   -0.0328    0.0135   -0.1704   -0.1129   -0.1089    0.1087   -0.1114
          84    0.0650   -0.0753   -0.0353   -0.2332   -0.1097   -0.1679    0.1663   -0.2218
          85   -0.0552    0.1046    0.0698   -0.0434   -0.0615    0.0313   -0.0450    0.0453
          86    0.1046    0.1296    0.0405    0.0190    0.0241   -0.0163    0.0710   -0.0919
          87    0.0296    0.0005   -0.0783   -0.0176   -0.0347    0.0158    0.0071   -0.0237
          88   -0.1206    0.0343    0.0342    0.0052   -0.0048   -0.0220    0.0220   -0.0248
          89    0.0225    0.0602    0.0117    0.0527    0.0557   -0.0430    0.0988   -0.1140
          90   -0.0119   -0.0111   -0.0673   -0.0608   -0.0941    0.0754   -0.0963    0.1000
          91    0.1268    0.0462   -0.0251    0.0257    0.0040    0.0018   -0.0203    0.0329
          92    0.2352    0.1032   -0.0167    0.0723    0.0879   -0.0665    0.1480   -0.1793
          93   -0.2136   -0.0545   -0.0428   -0.0789   -0.1291    0.1062   -0.1553    0.1778
          94   -0.3536   -0.0319    0.0460    0.0625    0.0656   -0.1124    0.1561   -0.1753
          95   -0.2627    0.0221    0.0649    0.0207    0.0074   -0.0136    0.0432   -0.0425
          96   -0.2249   -0.0521   -0.0395   -0.0604   -0.0991    0.0655   -0.0879    0.0958
          97   -0.1884    0.0480    0.0597   -0.0095   -0.0238   -0.0193    0.0204   -0.0251
          98    0.0455    0.0087   -0.0278    0.1058    0.1162   -0.0742    0.1445   -0.1585
          99    0.3644    0.0639   -0.1116   -0.0827   -0.1303    0.1339   -0.1794    0.1927
         100   -0.0502    0.0096   -0.0352   -0.0993   -0.1036    0.1385   -0.0054   -0.0507
         101    0.0388   -0.0815   -0.1735   -0.0049   -0.0015    0.1088    0.1445   -0.2349
         102   -0.0094   -0.1510   -0.2278   -0.0418   -0.0539    0.1161    0.0552   -0.1257
         103    0.0146    0.2215    0.1618   -0.0224   -0.0404   -0.0261   -0.0640    0.0906
         104    0.2227    0.3313    0.1989    0.0120    0.0106   -0.0537   -0.0004    0.0223
         105    0.0872    0.0958   -0.0002    0.0209    0.0068   -0.0584    0.0036    0.0040


   Root No.      17        18        19        20        21        22        23        24

                17 A      18 A      19 A      20 A      21 A      22 A      23 A      24 A   

                   0.2       0.2       0.2       0.2       0.2       0.3       0.4       0.5
  
           1   -0.0751   -0.0279    0.0192   -0.0347   -0.0187    0.0134    0.0290    0.0002
           2    0.0622   -0.0115   -0.1258    0.0714    0.1326    0.0093    0.0418   -0.0009
           3   -0.0655   -0.0353   -0.0116   -0.0279   -0.0295   -0.0051    0.0570    0.0120
           4   -0.0721   -0.0365    0.0095   -0.0434   -0.0433    0.0169    0.0355    0.0007
           5    0.0269   -0.0155   -0.0649    0.0142   -0.0390    0.0231    0.0406   -0.0089
           6   -0.0110   -0.0252   -0.0744    0.0488   -0.0517   -0.0475    0.1579    0.0316
           7   -0.0445   -0.0169   -0.0162    0.0171    0.0859    0.0036    0.0033   -0.0032
           8    0.0116   -0.0255   -0.0537   -0.0057   -0.0839    0.0223    0.0412    0.0022
           9   -0.0030   -0.0277   -0.1153   -0.0132   -0.0542   -0.0668   -0.1044   -0.0243
          10   -0.0374   -0.0285   -0.0612    0.0338    0.1762   -0.0058    0.0017    0.0070
          11    0.0442   -0.0207   -0.0842    0.0434    0.0768    0.0171    0.0491    0.0053
          12   -0.0483   -0.0033    0.0781    0.0010    0.0667   -0.0193   -0.0091   -0.0033
          13   -0.1047   -0.0466    0.0434   -0.0856   -0.1843    0.0290    0.1561   -0.0198
          14    0.0038   -0.0388   -0.0687   -0.0343   -0.1257    0.0365   -0.0598    0.0093
          15    0.0036    0.0451    0.0203    0.1327   -0.0536   -0.0663    0.7963   -0.0862
          16   -0.0364   -0.0369   -0.1028    0.0038    0.1391   -0.0117   -0.0296   -0.1283
          17    0.0075   -0.0333   -0.0410   -0.0654   -0.2238    0.0489    0.0435   -0.0513
          18    0.0097   -0.0745   -0.2823   -0.0815   -0.0479   -0.0827   -0.1783   -0.3046
          19   -0.0880   -0.0299    0.0296   -0.0290    0.0484    0.0003    0.0085    0.0137
          20   -0.0002    0.0206    0.0207   -0.0132   -0.0389    0.0037    0.0121   -0.0041
          21   -0.0517    0.1136   -0.0252    0.0061    0.0095   -0.0030    0.0227   -0.0100
          22   -0.2788    0.2157    0.1298   -0.1147   -0.1148   -0.0000    0.0446   -0.0047
          23    0.0169   -0.0434    0.0735   -0.0453   -0.1165    0.0060   -0.0008   -0.0013
          24   -0.0063    0.0282   -0.0112    0.0024   -0.0058   -0.0021    0.0083   -0.0051
          25   -0.0403   -0.0302   -0.1224    0.0741    0.2993   -0.0004    0.0356    0.0226
          26   -0.0470    0.0256    0.1524   -0.1038   -0.2556    0.0053   -0.0071   -0.0108
          27    0.0074    0.0153   -0.0292    0.0115    0.0151   -0.0037    0.0104   -0.0077
          28   -0.0121   -0.2766    0.1706   -0.1119   -0.1344    0.0020   -0.0542    0.0444
          29   -0.0538    0.0894    0.0616   -0.0465   -0.1138    0.0052    0.0239   -0.0107
          30   -0.0000    0.0130   -0.0160    0.0060    0.0076   -0.0033    0.0023   -0.0001
          31   -0.0564   -0.0401   -0.0240    0.0074    0.1167    0.0014    0.0150    0.0116
          32    0.0568    0.0204   -0.1351    0.0877    0.1782    0.0057    0.0367   -0.0011
          33   -0.2463    0.4945   -0.0753    0.0137    0.0283   -0.0052    0.0743   -0.0289
          34    0.0003   -0.0056   -0.1300    0.0934    0.3221   -0.0301   -0.0291    0.0060
          35    0.0513   -0.0569   -0.0492    0.0468    0.1045    0.0192    0.0598    0.0031
          36    0.0411   -0.3790    0.4529    0.0162    0.3163    0.0108    0.1092   -0.0271
          37   -0.1010   -0.0212    0.0651   -0.0858   -0.1752    0.0258    0.0412   -0.0123
          38    0.0885   -0.0421   -0.1634    0.1096    0.2697    0.0024    0.0297    0.0074
          39    0.0007   -0.4886    0.1022   -0.1678   -0.0506    0.0410   -0.0062   -0.0413
          40    0.1854    0.0730    0.0044   -0.0880    0.0150   -0.0737    0.0016   -0.0206
          41   -0.0845    0.0052    0.0409   -0.0243    0.0457    0.0080   -0.0036    0.0421
          42    0.0427    0.0451    0.0288   -0.0274    0.0101    0.0028   -0.0664   -0.0043
          43    0.2061    0.1078    0.0572   -0.1401    0.0591   -0.2508   -0.0117   -0.0407
          44   -0.0567    0.0407    0.0902   -0.0947    0.0938   -0.1732   -0.0134    0.0261
          45    0.1464    0.0502   -0.0352   -0.2085    0.0087   -0.1124   -0.0417    0.0621
          46    0.1194    0.0099   -0.0629    0.0486   -0.0629    0.0980    0.0112    0.0745
          47   -0.0482    0.0221    0.0582   -0.0510    0.0595   -0.0633   -0.0004    0.0221
          48    0.1177    0.0047   -0.0183    0.0609   -0.0397    0.0153   -0.0440   -0.0129
          49    0.1132    0.0004   -0.0713    0.0817   -0.0831    0.1092    0.0074    0.0985
          50    0.0491    0.0885    0.1311   -0.1646    0.1439   -0.1351    0.0132   -0.0695
          51    0.4278    0.0672    0.1341    0.3492   -0.1271    0.1084   -0.0313    0.0686
          52    0.1819    0.0756    0.0195   -0.0939    0.0209   -0.1357   -0.0020   -0.0107
          53   -0.0529    0.0010   -0.0053   -0.0155    0.0265    0.2227    0.0055   -0.0222
          54   -0.0340    0.1070    0.1635    0.0630    0.0509    0.0545   -0.1520   -0.0091
          55    0.2384    0.1072    0.0346   -0.1056    0.0249   -0.1039   -0.0323   -0.0638
          56    0.0269    0.0283   -0.0081   -0.0662    0.0326    0.2285    0.0027   -0.1144
          57   -0.0892    0.1461    0.2473    0.1834    0.0554    0.1503   -0.2624    0.1149
          58    0.0063    0.0163    0.0005   -0.0048    0.0144    0.0517   -0.0075   -0.0076
          59    0.0069    0.0318    0.0158   -0.0509    0.0383    0.1798   -0.0050   -0.0384
          60   -0.0036    0.0174    0.0294    0.0244    0.0094    0.0189   -0.0837   -0.0043
          61   -0.0291    0.0244    0.0142    0.0214    0.0230    0.1257   -0.0298   -0.0221
          62    0.1490    0.1478    0.1492   -0.1291    0.0883   -0.0171   -0.1117   -0.0359
          63    0.0229   -0.0120   -0.0230    0.0062   -0.0085   -0.0319   -0.0371    0.0099
          64   -0.1181   -0.0108   -0.0064    0.0658    0.0210    0.2946   -0.0404   -0.0595
          65   -0.1364    0.0280    0.0539    0.0238    0.0567    0.4518   -0.0729   -0.0999
          66   -0.0010   -0.0284   -0.0420    0.0290   -0.0075    0.0267   -0.0389    0.0012
          67   -0.0381   -0.0297   -0.0647    0.0124   -0.0064    0.1475    0.0413   -0.0257
          68    0.0838   -0.0510   -0.1358   -0.1150   -0.0045    0.1197    0.1544   -0.0285
          69    0.0150   -0.0251   -0.0448    0.0070   -0.0119    0.0135   -0.0149   -0.0021
          70    0.0682   -0.0304   -0.0627    0.1711   -0.1195    0.0358    0.0016    0.0943
          71   -0.1158   -0.0270    0.0107    0.0096    0.0086   -0.1245   -0.0128    0.0505
          72   -0.0074   -0.0762   -0.2025   -0.0843   -0.0541   -0.0055   -0.0229    0.0096
          73    0.0381   -0.0504   -0.1202    0.1381   -0.1313    0.0202   -0.0499    0.1284
          74   -0.2036   -0.0621    0.0327    0.0510   -0.0029   -0.2954   -0.1033   -0.1272
          75   -0.0868   -0.1226   -0.3358   -0.1528   -0.0818   -0.0589   -0.1661    0.0728
          76   -0.0093   -0.0053    0.0067    0.1103   -0.0752   -0.0712   -0.0381   -0.0942
          77   -0.0760   -0.0274    0.0038    0.0435   -0.0096   -0.1082   -0.0095    0.1416
          78    0.0570    0.0113   -0.0412   -0.0504   -0.0355    0.0157   -0.0042    0.0443
          79    0.0333    0.0450   -0.0334   -0.1830   -0.0096    0.0078    0.0034    0.1037
          80   -0.1548   -0.1631   -0.1748    0.1643   -0.0709   -0.1467   -0.0162    0.2457
          81    0.0708    0.0460    0.0470    0.0287   -0.0444   -0.0078   -0.0221   -0.0663
          82   -0.0473    0.0287    0.0805    0.0840   -0.0368   -0.1407   -0.0599   -0.3191
          83   -0.0723    0.0537    0.1159   -0.0840    0.0654   -0.1440   -0.0093    0.1139
          84    0.1415    0.1081    0.0215   -0.2409    0.0181    0.0889    0.0320    0.3651
          85   -0.0565   -0.0054    0.0314    0.0557   -0.0111   -0.0548   -0.0117    0.0634
          86    0.0364   -0.0003    0.0085    0.0748   -0.0385   -0.0452   -0.0208    0.0136
          87    0.0057    0.0033   -0.0073   -0.0171   -0.0034    0.0194    0.0008   -0.1128
          88    0.0123    0.0069    0.0189   -0.0103   -0.0114   -0.0106   -0.0029    0.0763
          89    0.0689    0.0058    0.0049    0.0299   -0.0366   -0.0166   -0.0157    0.0010
          90   -0.0871   -0.0041    0.0046    0.0141    0.0191   -0.0089   -0.0021   -0.1091
          91   -0.0110    0.0089    0.0161   -0.0272   -0.0032    0.0103    0.0125    0.2051
          92    0.1192    0.0114   -0.0130    0.0339   -0.0612   -0.0124   -0.0303   -0.1631
          93   -0.1463   -0.0112    0.0269    0.0103    0.0458   -0.0130    0.0153    0.0791
          94    0.1463    0.0199    0.0197   -0.0953   -0.0558    0.0652    0.0058   -0.2213
          95    0.0041   -0.0026    0.0373    0.0458   -0.0204   -0.0493   -0.0122    0.2383
          96   -0.0841   -0.0048    0.0208   -0.0049    0.0188   -0.0016    0.0039   -0.0842
          97    0.0005    0.0043    0.0273    0.0071   -0.0130   -0.0343   -0.0107    0.1296
          98    0.1372    0.0105   -0.0038   -0.0276   -0.0549    0.0545    0.0045   -0.1632
          99   -0.1633   -0.0121    0.0039    0.0528    0.0516   -0.0393   -0.0015    0.0117
         100   -0.0457   -0.0163    0.0695    0.2845   -0.1097   -0.1400   -0.0655   -0.1766
         101    0.0380   -0.0051    0.0763    0.2946   -0.1260   -0.1431   -0.0553    0.1664
         102    0.0012   -0.0023    0.0411    0.1736   -0.0766   -0.0727   -0.0406   -0.0590
         103   -0.0478    0.0013    0.0103   -0.0567    0.0336    0.0056    0.0199    0.1502
         104    0.0132   -0.0046   -0.0107   -0.0070    0.0017    0.0043    0.0015   -0.1372
         105    0.0239    0.0164   -0.0320   -0.1641    0.0525    0.0909    0.0395    0.1201


   Root No.      25        26        27        28        29        30        31        32

                25 A      26 A      27 A      28 A      29 A      30 A      31 A      32 A   

                   0.5       0.5       0.6       0.7       0.7       0.7       0.8       0.8
  
           1   -0.0080    0.0062   -0.0030    0.0031   -0.0144    0.0522    0.1130   -0.0010
           2   -0.0076    0.0000    0.0144    0.0045   -0.0128    0.0004    0.0515    0.0018
           3   -0.0201    0.0073    0.0320   -0.0226    0.0157   -0.0074   -0.0109   -0.0068
           4   -0.0074    0.0060    0.0173    0.0136   -0.0183    0.0553    0.1045   -0.0087
           5    0.0120   -0.0015    0.0165   -0.0039   -0.0039   -0.0274    0.0015   -0.0026
           6   -0.0386    0.0166    0.0775   -0.0883    0.0129   -0.0024   -0.0605   -0.0050
           7    0.0137   -0.0053    0.0021   -0.0288   -0.0304    0.0445    0.1306   -0.0031
           8   -0.0060    0.0057    0.0186   -0.0107    0.0078   -0.0464   -0.0132   -0.0034
           9    0.0563   -0.0259   -0.0315   -0.1201    0.0201   -0.0152   -0.0238    0.0300
          10   -0.0174   -0.0015   -0.0011    0.0053   -0.0175    0.0380    0.0562   -0.0037
          11   -0.0256    0.0053    0.0087    0.0130    0.0159   -0.0521   -0.0624    0.0006
          12    0.0114   -0.0043   -0.0182   -0.0225    0.0119   -0.0085    0.0056    0.0137
          13   -0.0071    0.0224    0.0116    0.0442   -0.0282    0.4534   -0.4246   -0.0249
          14   -0.0161    0.0184    0.0579   -0.0295   -0.0049    0.2196   -0.3709   -0.0129
          15    0.0714   -0.0224   -0.1020    0.0557    0.0083   -0.0433    0.0429    0.0011
          16    0.2399   -0.0700    0.1129   -0.0754   -0.1011    0.1271    0.0243   -0.0447
          17    0.0877   -0.0036    0.0536    0.0572    0.0880   -0.4370    0.3554    0.0059
          18    0.5585   -0.1698    0.2115   -0.1666   -0.0540   -0.1088   -0.0646   -0.0414
          19   -0.0415    0.0047   -0.0150    0.0199    0.0426   -0.1278   -0.0641    0.0080
          20    0.0040    0.0004    0.0048   -0.0003   -0.0135    0.0628    0.0392   -0.0021
          21    0.0107   -0.0026    0.0000   -0.0020    0.0006    0.0024   -0.0057    0.0021
          22   -0.0234   -0.0016   -0.0242    0.0266    0.0935   -0.3169   -0.2156    0.0262
          23    0.0041    0.0016    0.0063   -0.0016   -0.0222    0.1041    0.0744   -0.0044
          24    0.0073   -0.0012    0.0018   -0.0040   -0.0109    0.0515    0.0344   -0.0018
          25   -0.0869    0.0103   -0.0247    0.0500    0.0883   -0.2300   -0.1104    0.0199
          26    0.0379   -0.0035    0.0120   -0.0221   -0.0471    0.1375    0.0758   -0.0111
          27    0.0088   -0.0026   -0.0012   -0.0034    0.0004    0.0055   -0.0091    0.0039
          28   -0.0792    0.0123   -0.0291    0.0325    0.0987   -0.3581   -0.1903    0.0152
          29    0.0141   -0.0005    0.0088   -0.0018   -0.0237    0.1122    0.0757   -0.0046
          30   -0.0016   -0.0006   -0.0047    0.0005    0.0167   -0.0718   -0.0513    0.0049
          31   -0.0360    0.0045   -0.0092    0.0150    0.0238   -0.0672   -0.0306    0.0034
          32   -0.0121    0.0033    0.0043    0.0087   -0.0053    0.0348    0.0232   -0.0000
          33    0.0320   -0.0080    0.0013   -0.0048   -0.0034    0.0057   -0.0044    0.0011
          34   -0.0096    0.0161   -0.0337    0.0240   -0.0456    0.2457    0.2868    0.0013
          35   -0.0217    0.0074    0.0133    0.0156    0.0161   -0.0448   -0.0572   -0.0009
          36    0.0583   -0.0025    0.0451   -0.0073   -0.0180    0.0490    0.0220   -0.0104
          37    0.0301    0.0014    0.0178   -0.0151   -0.0907    0.1570    0.4281   -0.0060
          38   -0.0385    0.0043   -0.0035    0.0256    0.0551   -0.0852   -0.2312    0.0031
          39    0.0638   -0.0172   -0.0396    0.0058   -0.0195    0.0309    0.0278   -0.0027
          40    0.0009    0.0009    0.0010   -0.0129    0.0715    0.0111    0.0033   -0.0123
          41   -0.0146    0.0006    0.0110   -0.0063   -0.1768   -0.0359   -0.0127   -0.0272
          42   -0.0083    0.0016   -0.0123    0.0253   -0.0027    0.0102   -0.0057    0.0599
          43   -0.0118   -0.0041   -0.0380    0.0022    0.0715    0.0089   -0.0141   -0.2000
          44   -0.0308   -0.0021   -0.0115    0.0161   -0.1945   -0.0429   -0.0309   -0.2312
          45   -0.0526    0.0310    0.2177    0.0597    0.0489   -0.0059    0.0110   -0.0604
          46   -0.0045   -0.0028    0.0205   -0.0602   -0.1302   -0.0368   -0.0156   -0.0576
          47   -0.0119   -0.0011   -0.0018    0.0104   -0.1041   -0.0209   -0.0143   -0.0306
          48   -0.0229    0.0048   -0.0087    0.0490    0.0389    0.0232   -0.0129    0.0523
          49   -0.0112   -0.0075    0.0248   -0.0947   -0.1379   -0.0404   -0.0161   -0.0451
          50    0.0095    0.0170   -0.0393    0.1404   -0.1333   -0.0274   -0.0172   -0.1459
          51   -0.0319   -0.0077   -0.1408    0.0597   -0.0241   -0.0138    0.0236   -0.0180
          52   -0.0027   -0.0023   -0.0047   -0.0087    0.0365    0.0047   -0.0023    0.0173
          53    0.0126    0.0005   -0.0015    0.0084   -0.0373   -0.0089   -0.0049    0.0179
          54    0.0186   -0.0156   -0.1339   -0.0457   -0.0191   -0.0037   -0.0055    0.0372
          55   -0.0036    0.0006    0.0180    0.0100    0.4114    0.0774    0.0408   -0.1334
          56    0.0498   -0.0201   -0.1548   -0.0502    0.3464    0.0636    0.0299   -0.1237
          57   -0.1210    0.0726    0.5131    0.2527    0.0384    0.0152    0.0386   -0.0571
          58    0.0003   -0.0009    0.0022   -0.0032   -0.0547   -0.0070   -0.0047    0.1458
          59    0.0180   -0.0009   -0.0123    0.0164   -0.0003   -0.0015   -0.0019    0.0125
          60    0.0171   -0.0145   -0.1419   -0.1008   -0.0201   -0.0017   -0.0095    0.0013
          61    0.0081   -0.0039   -0.0180   -0.0003   -0.0385    0.0001   -0.0078    0.2381
          62    0.0395   -0.0279   -0.2341   -0.1594   -0.2598   -0.0405   -0.0476    0.5546
          63    0.0026   -0.0058   -0.0796   -0.0781    0.0040   -0.0061   -0.0087   -0.1761
          64    0.0329   -0.0105   -0.1120   -0.0484    0.0708    0.0082   -0.0021   -0.0603
          65    0.0638   -0.0167   -0.1809   -0.0417    0.1334    0.0176    0.0025   -0.2897
          66    0.0044   -0.0065   -0.0833   -0.0906   -0.0254   -0.0074   -0.0151    0.0715
          67   -0.0049    0.0103    0.1064    0.0810   -0.0323    0.0086    0.0008    0.3502
          68   -0.0292    0.0442    0.4126    0.3313   -0.0166    0.0099    0.0177    0.1604
          69   -0.0035    0.0053    0.0391    0.0313   -0.0205    0.0058   -0.0023    0.0971
          70   -0.0300   -0.0131    0.0413   -0.0903   -0.0400   -0.0134   -0.0092   -0.0292
          71   -0.0450   -0.0037    0.0113   -0.0321   -0.0182   -0.0010    0.0017   -0.0101
          72   -0.0770    0.0252    0.0139    0.0714    0.0537    0.0208   -0.0479    0.0206
          73   -0.0741   -0.0144   -0.1089    0.0675   -0.1429   -0.0180    0.0331   -0.0846
          74   -0.1092   -0.0421   -0.0945    0.0407    0.4894    0.1530    0.1094    0.3261
          75   -0.1812    0.0183   -0.3954    0.5001   -0.1378    0.0300    0.0682   -0.0693
          76   -0.0586   -0.0121    0.0207   -0.0152    0.0168    0.0022   -0.0155    0.0049
          77   -0.0165   -0.0071    0.0177   -0.0885   -0.0292   -0.0096    0.0150   -0.0271
          78   -0.0660    0.0059    0.0254   -0.0548    0.0437    0.0124   -0.0102    0.0116
          79   -0.1074    0.0931    0.0517   -0.1779    0.0320    0.0019    0.0090    0.0002
          80   -0.2245    0.0954    0.1229   -0.4194    0.0560   -0.0035    0.0495   -0.0408
          81    0.0275   -0.0852   -0.0274    0.1367    0.0050    0.0112   -0.0374    0.0160
          82   -0.0920   -0.0512    0.0070    0.1024   -0.1625   -0.0469   -0.0485   -0.1016
          83    0.0091   -0.0405   -0.0104   -0.0432   -0.1927   -0.0526    0.0244   -0.1315
          84    0.0395    0.0146   -0.0017   -0.1485    0.0783    0.0236    0.0428    0.0239
          85    0.1221    0.0701   -0.0147    0.0336    0.0024   -0.0132   -0.0077   -0.0042
          86    0.0869    0.0986   -0.0152    0.0312    0.0135   -0.0010   -0.0068    0.0027
          87   -0.1059    0.1203    0.0126   -0.0518   -0.0079   -0.0013    0.0080    0.0017
          88    0.1110    0.1056   -0.0199    0.0297    0.0156   -0.0008   -0.0047    0.0050
          89    0.0745    0.1431   -0.0209    0.0327    0.0145    0.0059   -0.0078    0.0067
          90   -0.0766    0.1507    0.0077   -0.0579   -0.0342   -0.0113    0.0118   -0.0102
          91    0.0961   -0.3499   -0.0022    0.0878    0.0453    0.0141   -0.0295    0.0092
          92    0.0388    0.4526   -0.0295    0.0128   -0.0044   -0.0063   -0.0184    0.0051
          93   -0.0389   -0.2275    0.0185   -0.0308   -0.0116    0.0015    0.0194   -0.0082
          94   -0.2332    0.1350    0.0391   -0.1639   -0.0676   -0.0215    0.0312   -0.0222
          95    0.2951   -0.0044   -0.0560    0.1750    0.0808    0.0163   -0.0521    0.0274
          96   -0.0853    0.0907    0.0105   -0.0610   -0.0335   -0.0122    0.0071   -0.0106
          97    0.2409    0.3017   -0.0475    0.0744    0.0330   -0.0016   -0.0203    0.0113
          98   -0.2704   -0.3641    0.0541   -0.0693   -0.0241    0.0030    0.0177   -0.0071
          99    0.0583    0.2762   -0.0175   -0.0491   -0.0246   -0.0099    0.0208   -0.0059
         100   -0.0123   -0.0758    0.0107    0.0499   -0.0172   -0.0108   -0.0277   -0.0165
         101    0.1572   -0.1460   -0.0172    0.0454    0.0577    0.0112   -0.0111    0.0100
         102   -0.0405   -0.0735    0.0039    0.0065    0.0212    0.0078   -0.0125    0.0044
         103    0.0668   -0.1746    0.0005    0.0220    0.0162   -0.0001   -0.0003    0.0030
         104   -0.1350   -0.2128    0.0346   -0.0058   -0.0500   -0.0066   -0.0038   -0.0280
         105   -0.0747   -0.1478    0.0082   -0.0435    0.0486    0.0243    0.0137    0.0295


   Root No.      33        34        35        36        37        38        39        40

                33 A      34 A      35 A      36 A      37 A      38 A      39 A      40 A   

                   0.8       0.9       0.9       0.9       1.0       1.1       1.1       1.1
  
           1   -0.0012   -0.0119    0.0001    0.0038   -0.0462   -0.0013    0.0068   -0.0027
           2    0.0046   -0.0456    0.0080   -0.0414   -0.1441   -0.0285    0.0078    0.0112
           3   -0.0206    0.0106    0.0214    0.0930   -0.0855   -0.1296   -0.0810    0.0208
           4   -0.0151    0.0276    0.0014    0.0082   -0.0184   -0.0036   -0.0018    0.0101
           5    0.0213   -0.1122    0.0178   -0.0241   -0.1485   -0.0289    0.0111    0.0044
           6   -0.0488    0.0438    0.0357    0.1552   -0.1268   -0.0911    0.0230    0.0545
           7    0.0074   -0.0492   -0.0018   -0.0420   -0.0841    0.0072   -0.0040    0.0006
           8    0.0146   -0.0866    0.0173   -0.0135   -0.1155   -0.0105    0.0177    0.0011
           9   -0.0347    0.1051   -0.0255    0.1018   -0.0051   -0.0305    0.0408   -0.0043
          10   -0.0042    0.0229   -0.0017   -0.0236   -0.0452   -0.0072    0.0003    0.0052
          11    0.0192   -0.0831    0.0175   -0.0195   -0.1316   -0.0279    0.0165    0.0022
          12   -0.0208    0.0881   -0.0147    0.0656    0.0053   -0.0864   -0.0679   -0.0045
          13   -0.0243    0.2368   -0.0443   -0.0486    0.2811    0.0299   -0.0551   -0.0060
          14   -0.0028    0.0227   -0.0001    0.0028   -0.0371   -0.0525   -0.0077    0.0151
          15    0.0368   -0.0405   -0.0022   -0.0899    0.0324    0.0372   -0.0135   -0.0207
          16    0.0780   -0.3007    0.0337   -0.1624   -0.1468    0.0316   -0.0417   -0.0034
          17   -0.0982    0.3851   -0.0771   -0.0302    0.2559    0.0487   -0.0262    0.0144
          18    0.0228   -0.0476   -0.0141   -0.0916    0.1558    0.0380   -0.0495   -0.0039
          19    0.0007   -0.0243    0.0084    0.0335    0.0204   -0.0026    0.0017   -0.0003
          20   -0.0032   -0.0305    0.0142    0.0641    0.0482   -0.0022   -0.0028   -0.0008
          21    0.0019   -0.0063   -0.0018   -0.0163    0.0025   -0.0068   -0.0241   -0.0057
          22    0.0179    0.0047   -0.0329   -0.2079   -0.0744    0.2870    0.3628    0.0520
          23   -0.0042   -0.1146    0.0525    0.2495    0.2613    0.1177    0.1194    0.0207
          24   -0.0007   -0.0646    0.0285    0.1367    0.1563    0.0311    0.0022    0.0002
          25   -0.0016   -0.2171    0.0884    0.3913    0.3461    0.0138    0.0003   -0.0012
          26   -0.0010    0.1072   -0.0430   -0.1927   -0.1924   -0.0279   -0.0184   -0.0030
          27    0.0047   -0.0157   -0.0069   -0.0592    0.0347    0.2986    0.3728    0.0579
          28   -0.0016    0.0450   -0.0071    0.0026   -0.1245   -0.3221   -0.3489   -0.0534
          29   -0.0036   -0.1189    0.0556    0.2639    0.2549   -0.0411   -0.1036   -0.0166
          30    0.0012    0.0642   -0.0311   -0.1494   -0.1606   -0.0545   -0.0407   -0.0088
          31   -0.0000   -0.0070    0.0014   -0.0044   -0.0224   -0.0017    0.0055    0.0012
          32   -0.0019   -0.0047    0.0000   -0.0185   -0.0626   -0.0266   -0.0091   -0.0013
          33    0.0020   -0.0050    0.0006    0.0078   -0.0106   -0.2168   -0.2971   -0.0540
          34   -0.1072    0.5326   -0.0983   -0.0894    0.0754   -0.0373    0.0068   -0.0213
          35    0.0194   -0.0848    0.0161   -0.0309   -0.1254   -0.0137    0.0230    0.0015
          36    0.0081   -0.0292    0.0039   -0.0413    0.0029    0.0366    0.0148   -0.0059
          37    0.0142   -0.2021    0.0690    0.1412   -0.2130   -0.0618    0.0441   -0.0035
          38   -0.0114    0.1321   -0.0547   -0.1662    0.0169    0.0318   -0.0206    0.0099
          39    0.0116   -0.0026   -0.0124   -0.0385    0.0625    0.0550    0.0254   -0.0252
          40    0.0246    0.0122    0.0481    0.0003   -0.0065    0.0029    0.0008    0.1122
          41   -0.0618   -0.0151   -0.0504   -0.0046    0.0171    0.0055   -0.0413   -0.0082
          42   -0.0372    0.0232   -0.0936    0.0839   -0.0531   -0.0694    0.0457   -0.0394
          43   -0.0801   -0.0434   -0.3797    0.1142   -0.0642    0.0219    0.0580   -0.0367
          44   -0.1741   -0.0770   -0.4791    0.0983   -0.0301    0.0326    0.0021   -0.1929
          45    0.0503   -0.0139    0.1021   -0.0712    0.0389    0.0448   -0.0264    0.0406
          46   -0.0124    0.0059    0.0246   -0.0137    0.0235    0.0113   -0.0710    0.1738
          47   -0.0347   -0.0028   -0.0206    0.0025    0.0103   -0.0120   -0.0253   -0.0092
          48   -0.0441    0.0455   -0.0498    0.1169   -0.0791   -0.0769    0.0574   -0.0139
          49    0.0481   -0.0094   -0.1008    0.0022    0.0312    0.0179   -0.0857    0.1830
          50   -0.3391    0.0550    0.6106   -0.1212    0.0167   -0.0058   -0.0581    0.1881
          51    0.1110   -0.0606   -0.0475   -0.0987    0.0729    0.0497   -0.0340   -0.0134
          52    0.0279    0.0070    0.0060    0.0066   -0.0043   -0.0041   -0.0013    0.0990
          53   -0.0206    0.0044    0.0092    0.0017    0.0036    0.0003   -0.0142   -0.0191
          54   -0.0068   -0.0058   -0.0420    0.0084   -0.0096   -0.0318    0.0151   -0.0419
          55    0.2099    0.0077    0.1160   -0.0565    0.0307   -0.0302    0.0180   -0.1791
          56    0.1572    0.0069    0.0991   -0.0408    0.0251   -0.0530    0.0139   -0.3830
          57    0.0382   -0.0295    0.0272   -0.0910    0.0576    0.0541   -0.0166   -0.0136
          58    0.0170    0.0007    0.0067   -0.0047    0.0041    0.0050   -0.0042    0.0553
          59   -0.0108    0.0016   -0.0174    0.0088   -0.0025    0.0015    0.0012   -0.0107
          60   -0.0068    0.0082    0.0196    0.0051   -0.0023   -0.0023    0.0008   -0.0023
          61    0.0502    0.0047    0.0155   -0.0136    0.0132   -0.0246    0.0081   -0.1107
          62    0.0066    0.0351   -0.0030    0.0312   -0.0008    0.0390    0.0333    0.0174
          63   -0.0489    0.0075    0.0100    0.0158   -0.0133    0.0316   -0.0203    0.2306
          64   -0.0143    0.0105   -0.0179    0.0251   -0.0189    0.0366    0.0187    0.1595
          65   -0.0761    0.0049   -0.0953    0.0626   -0.0411    0.0254    0.0308    0.1857
          66    0.0107    0.0211    0.0727   -0.0092    0.0071    0.0228   -0.0023   -0.0827
          67    0.0800    0.0019    0.0238   -0.0245    0.0173   -0.0169    0.0251   -0.2724
          68   -0.0062   -0.0314   -0.1740    0.0290   -0.0203   -0.0101    0.0373    0.0836
          69    0.0087   -0.0037   -0.0312    0.0058   -0.0055   -0.0116    0.0214   -0.0517
          70    0.0005   -0.0072   -0.0201   -0.0085    0.0185   -0.0016   -0.0588    0.1372
          71    0.0323   -0.0047   -0.0086   -0.0054    0.0078   -0.0065   -0.0096   -0.0249
          72   -0.0436    0.0952    0.0421    0.1643   -0.1042   -0.0714    0.0636    0.0180
          73    0.0463   -0.0985   -0.0156   -0.1463    0.0892    0.0496   -0.0961    0.1080
          74    0.0013   -0.1440   -0.1613   -0.1275    0.0613    0.0374   -0.1356    0.3947
          75    0.0583   -0.1367    0.0323   -0.1669    0.0550    0.0381    0.0194   -0.1316
          76   -0.0908    0.0223    0.0380    0.0525   -0.0566    0.0331    0.0120    0.0261
          77    0.0913   -0.0047   -0.0018   -0.0407    0.0456   -0.0069   -0.0208   -0.0100
          78   -0.0510    0.0558    0.0482    0.0996   -0.0965    0.0121    0.0680    0.0120
          79   -0.3050   -0.0397    0.0781   -0.0078   -0.0519    0.2380   -0.0761   -0.2910
          80    0.1046    0.0909    0.1428    0.0268   -0.0385    0.0324    0.1464   -0.0559
          81    0.0332    0.0528   -0.0117    0.1126   -0.0777   -0.0865    0.0534    0.1645
          82    0.3288    0.1973    0.1114    0.2061   -0.1328    0.0881    0.0184   -0.0044
          83    0.5885    0.0891    0.0189   -0.0572    0.1315   -0.0640    0.0023    0.0046
          84   -0.0211   -0.0832   -0.0225   -0.1449    0.1264   -0.1594    0.1092    0.0932
          85   -0.0367   -0.0218    0.0053   -0.0295    0.0285    0.0136   -0.0427   -0.0338
          86   -0.0375   -0.0081    0.0071   -0.0134    0.0157   -0.0328    0.0205   -0.0322
          87    0.0036    0.0160    0.0070    0.0330   -0.0448    0.0428    0.0240   -0.0151
          88   -0.0085   -0.0002   -0.0014   -0.0011    0.0029    0.0229   -0.0387   -0.0082
          89    0.0045    0.0150    0.0027    0.0212   -0.0152    0.0044   -0.0016   -0.0049
          90    0.0082   -0.0145   -0.0096   -0.0261    0.0156   -0.0246    0.0377   -0.0021
          91   -0.0231    0.0432    0.0397    0.0868   -0.0546   -0.2181    0.2784    0.0261
          92    0.0394    0.0272    0.0131    0.0801   -0.0766    0.0553    0.0173    0.0204
          93   -0.0269   -0.0251   -0.0160   -0.0781    0.0715   -0.0817    0.0331   -0.0308
          94   -0.0475   -0.1417   -0.0566   -0.2069    0.1932   -0.1794    0.0408    0.0046
          95    0.0569    0.0909    0.0484    0.1886   -0.1559    0.1416   -0.0536    0.0284
          96    0.0245   -0.0278   -0.0110   -0.0248    0.0192   -0.0209    0.0321    0.0161
          97   -0.0077    0.0098    0.0084    0.0311   -0.0154   -0.0975    0.0989    0.0047
          98   -0.0179   -0.0009   -0.0012   -0.0195   -0.0065    0.2279   -0.2240   -0.0385
          99    0.0076   -0.0774   -0.0502   -0.1289    0.1169    0.0278   -0.1476   -0.0065
         100   -0.1756   -0.0123    0.0589   -0.0045   -0.0005   -0.0115    0.0562   -0.1276
         101   -0.2025   -0.0765    0.0292   -0.0999    0.0849    0.0086   -0.0211   -0.2102
         102   -0.1169    0.0020    0.0482    0.0222   -0.0353    0.0693    0.0198   -0.1408
         103    0.0052   -0.0064   -0.0047   -0.0094    0.0054    0.1113   -0.1356   -0.0031
         104   -0.0539   -0.0218    0.0075   -0.0639    0.0879   -0.3593    0.2929    0.0180
         105    0.0853    0.0504   -0.0056    0.0981   -0.1233    0.3624   -0.2587    0.0106


   Root No.      41        42        43        44        45        46        47        48

                41 A      42 A      43 A      44 A      45 A      46 A      47 A      48 A   

                   1.2       1.2       1.3       1.3       1.4       1.4       1.6       1.7
  
           1    0.0113   -0.0111   -0.0293    0.0296    0.0818   -0.1248   -0.0201   -0.0926
           2   -0.0226    0.0079    0.0299    0.0084    0.0062   -0.0303   -0.0057   -0.0205
           3   -0.0946    0.0466    0.1184   -0.0166   -0.0537   -0.0577    0.2935    0.0911
[...]
 REDUCED MASS        0.5742         C 29 -- C 30          +0.9% (  9.6%)      0.0%
 EFFECTIVE MASS      1.4433
 FORCE CONSTANT      2.2963

 VIBRATION         84   84A           ATOM PAIR      ENERGY CONTRIBUTION    RADIAL
 FREQUENCY          2614.77         C 26 -- H 28         +55.2% ( 77.6%)     98.6%
 TRANSITION DIPOLE   0.7673         C 26 -- H 27         +42.1% ( 67.8%)     97.6%
 TRAVEL (Ang.)       0.2250         C 26 -- O 34          +1.0% ( 10.7%)      2.0%
 REDUCED MASS        0.5094         C 24 -- C 26          +1.0% ( 10.7%)      0.1%
 EFFECTIVE MASS      1.4940
 FORCE CONSTANT      2.0519

 VIBRATION         85   85A           ATOM PAIR      ENERGY CONTRIBUTION    RADIAL
 FREQUENCY          2626.18         C 20 -- H 21         +65.9% ( 84.3%)     99.5%
 TRANSITION DIPOLE   0.9075         C 20 -- H 23         +27.7% ( 54.6%)     94.4%
 TRAVEL (Ang.)       0.2211         C 20 -- H 22          +5.1% ( 23.4%)     64.0%
 REDUCED MASS        0.5254         C 18 -- C 20          +0.8% (  9.5%)      0.0%
 EFFECTIVE MASS      1.4318
 FORCE CONSTANT      2.1350

 VIBRATION         86   86A           ATOM PAIR      ENERGY CONTRIBUTION    RADIAL
 FREQUENCY          2637.17         C  7 -- H  9         +50.1% ( 73.5%)     98.4%
 TRANSITION DIPOLE   0.7553         C  7 -- H  8         +48.1% ( 72.0%)     98.2%
 TRAVEL (Ang.)       0.2272         C  7 -- N 11          +0.9% (  9.8%)      0.0%
 REDUCED MASS        0.4952         C  7 -- H 10          +0.8% (  9.5%)      0.1%
 EFFECTIVE MASS      1.4450
 FORCE CONSTANT      2.0292

 VIBRATION         87   87A           ATOM PAIR      ENERGY CONTRIBUTION    RADIAL
 FREQUENCY          2637.72         C  7 -- H 10         +64.6% ( 83.4%)     99.6%
 TRANSITION DIPOLE   0.6984         C  7 -- H  8         +17.3% ( 43.1%)     88.9%
 TRAVEL (Ang.)       0.2289         C  7 -- H  9         +17.1% ( 42.9%)     88.9%
 REDUCED MASS        0.4879         C  7 -- N 11          +0.8% (  9.5%)      0.0%
 EFFECTIVE MASS      1.4388
 FORCE CONSTANT      1.9999

 VIBRATION         88   88A           ATOM PAIR      ENERGY CONTRIBUTION    RADIAL
 FREQUENCY          2640.64         C 30 -- H 31         +51.0% ( 74.3%)     98.3%
 TRANSITION DIPOLE   1.0842         C 30 -- H 32         +47.0% ( 71.3%)     97.9%
 TRAVEL (Ang.)       0.2275         C 30 -- H 33          +1.0% ( 10.4%)      6.2%
 REDUCED MASS        0.4935         C 29 -- C 30          +0.9% (  9.7%)      0.0%
 EFFECTIVE MASS      1.4433
 FORCE CONSTANT      2.0276

 VIBRATION         89   89A           ATOM PAIR      ENERGY CONTRIBUTION    RADIAL
 FREQUENCY          2649.86         C 20 -- H 22         +54.5% ( 76.7%)     99.0%
 TRANSITION DIPOLE   0.7704         C 20 -- H 23         +38.1% ( 64.1%)     96.6%
 TRAVEL (Ang.)       0.2366         C 20 -- H 21          +4.5% ( 22.1%)     59.5%
 REDUCED MASS        0.4545         C 18 -- H 19          +2.0% ( 14.8%)     99.7%
 EFFECTIVE MASS      1.4334
 FORCE CONSTANT      1.8803

 VIBRATION         90   90A           ATOM PAIR      ENERGY CONTRIBUTION    RADIAL
 FREQUENCY          2666.72         C  3 -- H  6         +95.2% ( 99.4%)     99.9%
 TRANSITION DIPOLE   1.2958         C  3 -- C 24          +1.2% ( 11.3%)      0.0%
 TRAVEL (Ang.)       0.1668         C  3 -- C  4          +1.2% ( 11.2%)     16.1%
 REDUCED MASS        0.9086         C  2 -- C  3          +1.2% ( 11.1%)     29.3%
 EFFECTIVE MASS      1.4465
 FORCE CONSTANT      3.8068

 VIBRATION         91   91A           ATOM PAIR      ENERGY CONTRIBUTION    RADIAL
 FREQUENCY          2681.74         C 24 -- H 25         +73.5% ( 87.1%)    100.0%
 TRANSITION DIPOLE   0.5943         C 16 -- H 17         +20.8% ( 46.4%)     99.8%
 TRAVEL (Ang.)       0.2087         C 18 -- H 19          +1.2% ( 11.1%)    100.0%
 REDUCED MASS        0.5771         C 16 -- C 24          +1.1% ( 10.7%)     23.0%
 EFFECTIVE MASS      1.3766
 FORCE CONSTANT      2.4455

 VIBRATION         92   92A           ATOM PAIR      ENERGY CONTRIBUTION    RADIAL
 FREQUENCY          2703.70         C 16 -- H 17         +65.4% ( 81.6%)    100.0%
 TRANSITION DIPOLE   0.9051         C 24 -- H 25         +22.8% ( 48.2%)     99.9%
 TRAVEL (Ang.)       0.2301         C 14 -- H 15          +5.7% ( 24.1%)     99.7%
 REDUCED MASS        0.4710         C 18 -- H 19          +3.6% ( 19.3%)     99.9%
 EFFECTIVE MASS      1.3973
 FORCE CONSTANT      2.0286

 VIBRATION         93   93A           ATOM PAIR      ENERGY CONTRIBUTION    RADIAL
 FREQUENCY          2707.86         C 18 -- H 19         +84.6% ( 93.0%)    100.0%
 TRANSITION DIPOLE   0.4995         C 16 -- H 17          +7.1% ( 26.9%)    100.0%
 TRAVEL (Ang.)       0.1883         C 14 -- H 15          +3.2% ( 18.2%)     99.9%
 REDUCED MASS        0.7027         C 14 -- C 18          +1.0% ( 10.2%)     35.6%
 EFFECTIVE MASS      1.3966
 FORCE CONSTANT      3.0356

 VIBRATION         94   94A           ATOM PAIR      ENERGY CONTRIBUTION    RADIAL
 FREQUENCY          2734.69         C 26 -- H 27         +56.8% ( 73.2%)     98.1%
 TRANSITION DIPOLE   0.6985         C 26 -- H 28         +41.7% ( 62.8%)     97.1%
 TRAVEL (Ang.)       0.2251         C 26 -- O 34          +0.4% (  6.1%)     17.4%
 REDUCED MASS        0.4865         C 24 -- C 26          +0.4% (  6.0%)     37.4%
 EFFECTIVE MASS      1.1929
 FORCE CONSTANT      2.1436

 VIBRATION         95   95A           ATOM PAIR      ENERGY CONTRIBUTION    RADIAL
 FREQUENCY          2747.65         C 14 -- H 15         +87.0% ( 93.9%)    100.0%
 TRANSITION DIPOLE   1.0708         C 18 -- H 19          +5.5% ( 23.5%)     99.7%
 TRAVEL (Ang.)       0.1828         C 16 -- H 17          +3.7% ( 19.3%)     99.2%
 REDUCED MASS        0.7345         C  2 -- H  5          +1.2% ( 11.2%)     99.9%
 EFFECTIVE MASS      1.3954
 FORCE CONSTANT      3.2670

 VIBRATION         96   96A           ATOM PAIR      ENERGY CONTRIBUTION    RADIAL
 FREQUENCY          2761.87         C  2 -- H  5         +95.7% ( 98.9%)    100.0%
 TRANSITION DIPOLE   1.1761         C 14 -- H 15          +1.2% ( 10.9%)     99.9%
 TRAVEL (Ang.)       0.1655         C  2 -- C  3          +1.1% ( 10.8%)     40.0%
 REDUCED MASS        0.8918         C  1 -- C  2          +1.1% ( 10.7%)     22.2%
 EFFECTIVE MASS      1.4180
 FORCE CONSTANT      4.0080

 VIBRATION         97   97A           ATOM PAIR      ENERGY CONTRIBUTION    RADIAL
 FREQUENCY          2817.76         C  7 -- H  8         +34.0% ( 54.8%)     97.5%
 TRANSITION DIPOLE   0.5489         C  7 -- H 10         +33.9% ( 54.7%)     97.6%
 TRAVEL (Ang.)       0.2702         C  7 -- H  9         +31.7% ( 52.9%)     97.1%
 REDUCED MASS        0.3277         C  7 -- N 11          +0.2% (  3.7%)     99.8%
 EFFECTIVE MASS      1.0922
 FORCE CONSTANT      1.5329

 VIBRATION         98   98A           ATOM PAIR      ENERGY CONTRIBUTION    RADIAL
 FREQUENCY          2829.92         C 30 -- H 31         +38.3% ( 57.9%)     97.9%
 TRANSITION DIPOLE   0.7373         C 30 -- H 32         +37.5% ( 57.3%)     97.8%
 TRAVEL (Ang.)       0.2664         C 30 -- H 33         +23.7% ( 45.6%)     95.9%
 REDUCED MASS        0.3358         C 29 -- C 30          +0.2% (  4.4%)     84.6%
 EFFECTIVE MASS      1.1195
 FORCE CONSTANT      1.5844

 VIBRATION         99   99A           ATOM PAIR      ENERGY CONTRIBUTION    RADIAL
 FREQUENCY          2833.67         C 20 -- H 22         +39.9% ( 59.3%)     98.2%
 TRANSITION DIPOLE   0.7956         C 20 -- H 23         +32.8% ( 53.7%)     97.3%
 TRAVEL (Ang.)       0.2681         C 20 -- H 21         +26.5% ( 48.4%)     96.4%
 REDUCED MASS        0.3311         C 18 -- C 20          +0.2% (  4.2%)     96.6%
 EFFECTIVE MASS      1.1116
 FORCE CONSTANT      1.5665

      SYMMETRY NUMBER FOR POINT-GROUP C1  =  1


          SYSTEM IS A GROUND STATE



 DA_TS_PM6_D3H4_THERMO


          MOLECULE IS NOT LINEAR

          THERE ARE 99 GENUINE VIBRATIONS IN THIS SYSTEM
          THIS THERMODYNAMICS CALCULATION IS LIMITED TO
          MOLECULES WHICH HAVE NO INTERNAL ROTATIONS




                    CALCULATED THERMODYNAMIC PROPERTIES
                                          *
   TEMP. (K)   PARTITION FUNCTION   H.O.F.    ENTHALPY  HEAT CAPACITY ENTROPY
                                   KCAL/MOL   CAL/MOLE    CAL/K/MOL  CAL/K/MOL


 298.00  VIB.     0.2339D+09                 10479.3285    64.7100    73.4597
         ROT.     0.4086D+07                   888.2813     2.9808    33.2324
         INT.     0.9557D+15                 11367.6098    67.6908   106.6920
         TRA.     0.3851D+28                  1480.4688     4.9680    42.4623
         TOT.                     -103.230   12848.0786    72.6588   149.1543

 200.00  VIB.     0.5729D+06                  5070.0031    45.8940    51.6972
         ROT.     0.2247D+07                   596.1620     2.9808    32.0437
         INT.     0.1287D+13                  5666.1651    48.8748    83.7409
         TRA.     0.2117D+28                   993.6033     4.9680    40.4812
         TOT.                     -109.418    6659.7683    53.8428   124.2221

 210.00  VIB.     0.1081D+07                  5538.1970    47.7474    53.9812
         ROT.     0.2417D+07                   625.9700     2.9808    32.1891
         INT.     0.2613D+13                  6164.1670    50.7283    86.1703
         TRA.     0.2278D+28                  1043.2834     4.9680    40.7236
         TOT.                     -108.870    7207.4504    55.6963   126.8939

 220.00  VIB.     0.2028D+07                  6025.0089    49.6179    56.2455
         ROT.     0.2592D+07                   655.7781     2.9808    32.3278
         INT.     0.5256D+13                  6680.7871    52.5987    88.5733
         TRA.     0.2443D+28                  1092.9636     4.9680    40.9547
         TOT.                     -108.304    7773.7507    57.5667   129.5280

 230.00  VIB.     0.3784D+07                  6530.6148    51.5063    58.4927
         ROT.     0.2771D+07                   685.5862     2.9808    32.4603
         INT.     0.1048D+14                  7216.2010    54.4871    90.9530
         TRA.     0.2611D+28                  1142.6437     4.9680    41.1755
         TOT.                     -107.719    8358.8448    59.4551   132.1285

 240.00  VIB.     0.7025D+07                  7055.1934    53.4123    60.7250
         ROT.     0.2953D+07                   715.3943     2.9808    32.5871
         INT.     0.2075D+14                  7770.5877    56.3931    93.3121
         TRA.     0.2783D+28                  1192.3239     4.9680    41.3870
         TOT.                     -107.115    8962.9116    61.3611   134.6991

 250.00  VIB.     0.1298D+08                  7598.9156    55.3347    62.9443
         ROT.     0.3140D+07                   745.2024     2.9808    32.7088
         INT.     0.4076D+14                  8344.1180    58.3155    95.6531
         TRA.     0.2959D+28                  1242.0041     4.9680    41.5898
         TOT.                     -106.492    9586.1221    63.2835   137.2429

 260.00  VIB.     0.2389D+08                  8161.9353    57.2714    65.1523
         ROT.     0.3330D+07                   775.0105     2.9808    32.8257
         INT.     0.7954D+14                  8936.9458    60.2522    97.9780
         TRA.     0.3138D+28                  1291.6842     4.9680    41.7846
         TOT.                     -105.849   10228.6301    65.2202   139.7626

 270.00  VIB.     0.4377D+08                  8744.3827    59.2198    67.3502
         ROT.     0.3524D+07                   804.8186     2.9808    32.9382
         INT.     0.1542D+15                  9549.2013    62.2006   100.2884
         TRA.     0.3321D+28                  1341.3644     4.9680    41.9721
         TOT.                     -105.187   10890.5657    67.1686   142.2605

 280.00  VIB.     0.7988D+08                  9346.3589    61.1767    69.5392
         ROT.     0.3722D+07                   834.6267     2.9808    33.0466
         INT.     0.2973D+15                 10180.9857    64.1575   102.5859
         TRA.     0.3507D+28                  1391.0445     4.9680    42.1528
         TOT.                     -104.506   11572.0302    69.1255   144.7387

 290.00  VIB.     0.1453D+09                  9967.9333    63.1388    71.7202
         ROT.     0.3923D+07                   864.4348     2.9808    33.1512
         INT.     0.5700D+15                 10832.3682    66.1196   104.8715
         TRA.     0.3697D+28                  1440.7247     4.9680    42.3271
         TOT.                     -103.805   12273.0929    71.0876   147.1986

 300.00  VIB.     0.2634D+09                 10609.1413    65.1028    73.8938
         ROT.     0.4128D+07                   894.2429     2.9808    33.2523
         INT.     0.1087D+16                 11503.3842    68.0836   107.1461
         TRA.     0.3890D+28                  1490.4049     4.9680    42.4955
         TOT.                     -103.084   12993.7891    73.0516   149.6417

 310.00  VIB.     0.4759D+09                 11269.9836    67.0651    76.0605
         ROT.     0.4336D+07                   924.0510     2.9808    33.3500
         INT.     0.2063D+16                 12194.0346    70.0459   109.4106
         TRA.     0.4086D+28                  1540.0850     4.9680    42.6584
         TOT.                     -102.344   13734.1196    75.0140   152.0690

 320.00  VIB.     0.8574D+09                 11950.4273    69.0225    78.2207
         ROT.     0.4547D+07                   953.8591     2.9808    33.4447
         INT.     0.3899D+16                 12904.2864    72.0033   111.6654
         TRA.     0.4285D+28                  1589.7652     4.9680    42.8162
         TOT.                     -101.584   14494.0516    76.9713   154.4815

 330.00  VIB.     0.1540D+10                 12650.4065    70.9717    80.3745
         ROT.     0.4762D+07                   983.6672     2.9808    33.5364
         INT.     0.7335D+16                 13634.0737    73.9525   113.9109
         TRA.     0.4488D+28                  1639.4454     4.9680    42.9690
         TOT.                     -100.804   15273.5191    78.9205   156.8799

 340.00  VIB.     0.2760D+10                 13369.8245    72.9098    82.5220
         ROT.     0.4980D+07                  1013.4753     2.9808    33.6254
         INT.     0.1375D+17                 14383.2998    75.8906   116.1474
         TRA.     0.4693D+28                  1689.1255     4.9680    43.1174
         TOT.                     -100.005   16072.4253    80.8586   159.2648

 350.00  VIB.     0.4934D+10                 14108.5558    74.8339    84.6633
         ROT.     0.5201D+07                  1043.2834     2.9808    33.7118
         INT.     0.2566D+17                 15151.8392    77.8148   118.3751
         TRA.     0.4902D+28                  1738.8057     4.9680    43.2614
         TOT.                      -99.187   16890.6449    82.7828   161.6365

 360.00  VIB.     0.8798D+10                 14866.4487    76.7417    86.7982
         ROT.     0.5426D+07                  1073.0915     2.9808    33.7958
         INT.     0.4773D+17                 15939.5402    79.7225   120.5940
         TRA.     0.5113D+28                  1788.4859     4.9680    43.4013
         TOT.                      -98.350   17728.0260    84.6905   163.9953

 370.00  VIB.     0.1565D+11                 15643.3277    78.6308    88.9267
         ROT.     0.5653D+07                  1102.8996     2.9808    33.8774
         INT.     0.8849D+17                 16746.2273    81.6116   122.8041
         TRA.     0.5328D+28                  1838.1660     4.9680    43.5374
         TOT.                      -97.493   18584.3933    86.5797   166.3415

 380.00  VIB.     0.2779D+11                 16438.9966    80.4994    91.0485
         ROT.     0.5884D+07                  1132.7077     2.9808    33.9569
         INT.     0.1635D+18                 17571.7043    83.4802   125.0054
         TRA.     0.5545D+28                  1887.8462     4.9680    43.6699
         TOT.                      -96.618   19459.5505    88.4482   168.6753

 390.00  VIB.     0.4922D+11                 17253.2408    82.3456    93.1634
         ROT.     0.6118D+07                  1162.5158     2.9808    34.0343
         INT.     0.3011D+18                 18415.7566    85.3264   127.1978
         TRA.     0.5766D+28                  1937.5263     4.9680    43.7990
         TOT.                      -95.724   20353.2830    90.2945   170.9967

 400.00  VIB.     0.8703D+11                 18085.8300    84.1681    95.2712
         ROT.     0.6355D+07                  1192.3239     2.9808    34.1098
         INT.     0.5530D+18                 19278.1539    87.1489   129.3811
         TRA.     0.5989D+28                  1987.2065     4.9680    43.9248
         TOT.                      -94.812   21265.3604    92.1170   173.3058

   *: NOTE: HEATS OF FORMATION ARE RELATIVE TO THE
            ELEMENTS IN THEIR STANDARD STATE AT 298K
              (=  Standard Enthalpy of Formation).

            Hvib:  Zero-point energy is not included.
                   frequencies of less than zero cm-1 are not included.
            Hrot = (3/2)RT
            Htra = (3/2)RT + pV = (5/2)RT

            Heat capacity is Cp, not Cv

          For more information, see: HTTP://OpenMOPAC.net/Manual/thermochemistry.html


           FORCE CONSTANT IN CARTESIAN COORDINATES (Millidynes/A)

    ATOM   CHEMICAL       X               Y               Z
   NUMBER   SYMBOL  FORCE CONSTANT  FORCE CONSTANT  FORCE CONSTANT

      1       C       11.234785       10.742175        2.531770
      2       C        7.807821        9.894411        1.777802
      3       C        7.661708        8.447596        1.280553
      4       C        6.889763       15.428833        2.682193
      5       H        1.680689        3.114983        0.589090
      6       H        3.068622        1.033893        1.166353
      7       C        6.930390        6.494764        5.837381
      8       H        0.831940        1.704191        2.902013
      9       H        2.104092        2.745882        0.595464
     10       H        0.895064        1.640745        2.908563
     11       N       11.816734        8.746075        0.933270
     12       O        1.076717       12.751880        0.534040
     13       O        6.380626        7.675828        0.426027
     14       C       10.331727        9.239755        2.333787
     15       H        2.557371        2.533354        0.350436
     16       C        8.782161       10.151121        2.736734
     17       H        3.945779        0.980167        0.375874
     18       C       10.701575        8.306817        2.017757
     19       H        2.609790        2.272253        0.584135
     20       C        6.304296        7.458398        5.860257
     21       H        2.895211        0.761659        1.707810
     22       H        2.402372        1.975279        1.113456
     23       H        0.753049        1.060171        3.506208
     24       C        7.654683        9.705949        1.313145
     25       H        3.564652        0.822840        1.013323
     26       C        6.443769        7.240079        6.115337
     27       H        1.160317        1.058530        3.247043
     28       H        2.237932        2.095729        1.208862
     29       C       11.691877        6.281323        7.105396
     30       C        6.740990        6.586329        6.261018
     31       H        0.605803        2.491619        2.245951
     32       H        0.916083        1.255753        3.212928
     33       H        3.404774        1.153279        0.690890
     34       O        4.732344        2.584331        5.847409
     35       O        9.361036        1.465556        4.115402

 **********************
 *                    *
 * JOB ENDED NORMALLY *
 *                    *
 **********************



 TOTAL JOB TIME:             6.77 SECONDS

 == MOPAC DONE ==
