 Entering Gaussian System, Link 0=g09
 Input=dmad_water_freq.com
 Output=dmad_water_freq.log
 Initial command:
 /apps/applications/gaussian/G09.D01/2/default/g09/l1.exe "/nobackup/pmmass/Temp/Gau-109594.inp" -scrdir="/nobackup/pmmass/Temp/"
 Entering Link 1 = /apps/applications/gaussian/G09.D01/2/default/g09/l1.exe PID=    109595.
  
 Copyright (c) 1988,1990,1992,1993,1995,1998,2003,2009,2013,
            Gaussian, Inc.  All Rights Reserved.
  
 This is part of the Gaussian(R) 09 program.  It is based on
 the Gaussian(R) 03 system (copyright 2003, Gaussian, Inc.),
 the Gaussian(R) 98 system (copyright 1998, Gaussian, Inc.),
 the Gaussian(R) 94 system (copyright 1995, Gaussian, Inc.),
 the Gaussian 92(TM) system (copyright 1992, Gaussian, Inc.),
 the Gaussian 90(TM) system (copyright 1990, Gaussian, Inc.),
 the Gaussian 88(TM) system (copyright 1988, Gaussian, Inc.),
 the Gaussian 86(TM) system (copyright 1986, Carnegie Mellon
 University), and the Gaussian 82(TM) system (copyright 1983,
 Carnegie Mellon University). Gaussian is a federally registered
 trademark of Gaussian, Inc.
  
 This software contains proprietary and confidential information,
 including trade secrets, belonging to Gaussian, Inc.
  
 This software is provided under written license and may be
 used, copied, transmitted, or stored only in accord with that
 written license.
  
 The following legend is applicable only to US Government
 contracts under FAR:
  
                    RESTRICTED RIGHTS LEGEND
  
 Use, reproduction and disclosure by the US Government is
 subject to restrictions as set forth in subparagraphs (a)
 and (c) of the Commercial Computer Software - Restricted
 Rights clause in FAR 52.227-19.
  
 Gaussian, Inc.
 340 Quinnipiac St., Bldg. 40, Wallingford CT 06492
  
  
 ---------------------------------------------------------------
 Warning -- This program may not be used in any manner that
 competes with the business of Gaussian, Inc. or will provide
 assistance to any competitor of Gaussian, Inc.  The licensee
 of this program is prohibited from giving any competitor of
 Gaussian, Inc. access to this program.  By using this program,
 the user acknowledges that Gaussian, Inc. is engaged in the
 business of creating and licensing software in the field of
 computational chemistry and represents and warrants to the
 licensee that it is not a competitor of Gaussian, Inc. and that
 it will not use this program in any manner prohibited above.
 ---------------------------------------------------------------
  

 Cite this work as:
 Gaussian 09, Revision D.01,
 M. J. Frisch, G. W. Trucks, H. B. Schlegel, G. E. Scuseria, 
 M. A. Robb, J. R. Cheeseman, G. Scalmani, V. Barone, B. Mennucci, 
 G. A. Petersson, H. Nakatsuji, M. Caricato, X. Li, H. P. Hratchian, 
 A. F. Izmaylov, J. Bloino, G. Zheng, J. L. Sonnenberg, M. Hada, 
 M. Ehara, K. Toyota, R. Fukuda, J. Hasegawa, M. Ishida, T. Nakajima, 
 Y. Honda, O. Kitao, H. Nakai, T. Vreven, J. A. Montgomery, Jr., 
 J. E. Peralta, F. Ogliaro, M. Bearpark, J. J. Heyd, E. Brothers, 
 K. N. Kudin, V. N. Staroverov, T. Keith, R. Kobayashi, J. Normand, 
 K. Raghavachari, A. Rendell, J. C. Burant, S. S. Iyengar, J. Tomasi, 
 M. Cossi, N. Rega, J. M. Millam, M. Klene, J. E. Knox, J. B. Cross, 
 V. Bakken, C. Adamo, J. Jaramillo, R. Gomperts, R. E. Stratmann, 
 O. Yazyev, A. J. Austin, R. Cammi, C. Pomelli, J. W. Ochterski, 
 R. L. Martin, K. Morokuma, V. G. Zakrzewski, G. A. Voth, 
 P. Salvador, J. J. Dannenberg, S. Dapprich, A. D. Daniels, 
 O. Farkas, J. B. Foresman, J. V. Ortiz, J. Cioslowski, 
 and D. J. Fox, Gaussian, Inc., Wallingford CT, 2013.
 
 ******************************************
 Gaussian 09:  ES64L-G09RevD.01 24-Apr-2013
                24-Feb-2022 
 ******************************************
 %nprocshared=8
 Will use up to    8 processors via shared memory.
 %mem=4GB
 %NoSave
 %chk="dmad_water_freq.chk"
 -------------------------------------------------
 #n wB97XD/Def2TZVP scrf(smd,solvent=toluene) freq
 -------------------------------------------------
 1/10=4,30=1,38=1/1,3;
 2/12=2,17=6,18=5,40=1/2;
 3/5=44,7=101,11=2,16=1,25=1,30=1,70=32201,71=2,72=13,74=-58,140=1/1,2,3;
 4//1;
 5/5=2,38=5,53=13,98=1/2;
 8/6=4,10=90,11=11/1;
 11/6=1,8=1,9=11,15=111,16=1/1,2,10;
 10/6=1/2;
 6/7=2,8=2,9=2,10=2,18=1,28=1/1;
 7/8=1,10=1,25=1/1,2,3,16;
 1/10=4,30=1/3;
 99//99;
 ---------------------------------------
 dmad cycloaddition water toluene - freq
 ---------------------------------------
 Symbolic Z-matrix:
 Charge =  0 Multiplicity = 1
 N                     0.30116  -0.34879  -1.01509 
 N                    -0.32922  -0.69378  -0.02412 
 C                     1.70806  -0.1997   -0.76508 
 C                    -1.77292  -0.75377  -0.29559 
 O                    -2.30549  -0.34186  -1.28448 
 O                     2.17987   0.8952   -0.61147 
 O                    -2.32292  -1.36731   0.71423 
 O                     2.32366  -1.34095  -0.84703 
 C                     3.74044  -1.31919  -0.58869 
 H                     4.07139  -2.34528  -0.71631 
 H                     4.24083  -0.66389  -1.30002 
 H                     3.91216  -0.98391   0.43252 
 C                    -3.75258  -1.4708    0.68594 
 H                    -4.19249  -0.47459   0.70794 
 H                    -4.07762  -2.0045   -0.2064 
 H                    -4.02272  -2.02436   1.58046 
 O                     1.1753    2.1135    1.74107 
 H                     1.58999   1.97362   0.87758 
 H                     1.53472   2.92881   2.09619 
 O                     1.69059  -0.695     2.27109 
 H                     1.57252   0.2612    2.34544 
 H                     0.8695   -0.99432   1.8673 
 O                    -1.59492   1.76274   0.92868 
 H                    -1.50419   2.14629   0.04373 
 H                    -0.74094   1.9198    1.35273 
 O                    -1.23768   2.27589  -1.8996 
 H                    -1.55286   1.36501  -1.98746 
 H                    -0.30919   2.23718  -2.13873 
 

 GradGradGradGradGradGradGradGradGradGradGradGradGradGradGradGradGradGrad
 Berny optimization.
 Initialization pass.
 Trust Radius=3.00D-01 FncErr=1.00D-07 GrdErr=1.00D-07
 Number of steps in this run=      2 maximum allowed number of steps=      2.
 GradGradGradGradGradGradGradGradGradGradGradGradGradGradGradGradGradGrad

                          Input orientation:                          
 ---------------------------------------------------------------------
 Center     Atomic      Atomic             Coordinates (Angstroms)
 Number     Number       Type             X           Y           Z
 ---------------------------------------------------------------------
      1          7           0        0.301160   -0.348790   -1.015090
      2          7           0       -0.329220   -0.693780   -0.024120
      3          6           0        1.708060   -0.199700   -0.765080
      4          6           0       -1.772920   -0.753770   -0.295590
      5          8           0       -2.305490   -0.341860   -1.284480
      6          8           0        2.179870    0.895200   -0.611470
      7          8           0       -2.322920   -1.367310    0.714230
      8          8           0        2.323660   -1.340950   -0.847030
      9          6           0        3.740440   -1.319190   -0.588690
     10          1           0        4.071390   -2.345280   -0.716310
     11          1           0        4.240830   -0.663890   -1.300020
     12          1           0        3.912160   -0.983910    0.432520
     13          6           0       -3.752580   -1.470800    0.685940
     14          1           0       -4.192490   -0.474590    0.707940
     15          1           0       -4.077620   -2.004500   -0.206400
     16          1           0       -4.022720   -2.024360    1.580460
     17          8           0        1.175300    2.113500    1.741070
     18          1           0        1.589990    1.973620    0.877580
     19          1           0        1.534720    2.928810    2.096190
     20          8           0        1.690590   -0.695000    2.271090
     21          1           0        1.572520    0.261200    2.345440
     22          1           0        0.869500   -0.994320    1.867300
     23          8           0       -1.594920    1.762740    0.928680
     24          1           0       -1.504190    2.146290    0.043730
     25          1           0       -0.740940    1.919800    1.352730
     26          8           0       -1.237680    2.275890   -1.899600
     27          1           0       -1.552860    1.365010   -1.987460
     28          1           0       -0.309190    2.237180   -2.138730
 ---------------------------------------------------------------------
                    Distance matrix (angstroms):
                    1          2          3          4          5
     1  N    0.000000
     2  N    1.224099   0.000000
     3  C    1.436698   2.223431   0.000000
     4  C    2.232375   1.470226   3.555930   0.000000
     5  O    2.620543   2.370232   4.049515   1.196329   0.000000
     6  O    2.289098   3.027436   1.202084   4.294582   4.701246
     7  O    3.303593   2.230167   4.449772   1.303329   2.246485
     8  O    2.259011   2.851979   1.299281   4.175025   4.755899
     9  C    3.598908   4.155961   2.327002   5.550022   6.163811
    10  H    4.276666   4.750994   3.192369   6.071727   6.708286
    11  H    3.962508   4.744910   2.629935   6.097717   6.554254
    12  H    3.941862   4.275746   2.628172   5.736135   6.482244
    13  C    4.537094   3.581527   5.791351   2.323056   2.692792
    14  H    4.814307   3.938123   6.087844   2.634261   2.747385
    15  H    4.750691   3.975137   6.086339   2.623723   2.658397
    16  H    5.314165   4.241116   6.455446   3.193049   3.739995
    17  O    3.797817   3.641469   3.451886   4.589251   5.224810
    18  H    3.261422   3.407558   2.726828   4.485995   5.021027
    19  H    4.684485   4.592727   4.243170   5.497498   6.072349
    20  O    3.584600   3.057388   3.076354   4.311288   5.360545
    21  H    3.644394   3.184873   3.147401   4.381458   5.345929
    22  H    3.007971   2.259364   2.874722   3.423206   4.521060
    23  O    3.439756   2.923066   4.198770   2.804165   3.135654
    24  H    3.256657   3.074273   4.059112   2.932184   2.932084
    25  H    3.440791   2.982621   3.869755   3.306043   3.810223
    26  O    3.168490   3.627901   4.011616   3.469607   2.893304
    27  H    2.705551   3.096872   3.817870   2.720309   1.993499
    28  H    2.884846   3.614209   3.448854   3.805976   3.371410
                    6          7          8          9         10
     6  O    0.000000
     7  O    5.210715   0.000000
     8  O    2.253116   4.901932   0.000000
     9  C    2.709137   6.201955   1.440305   0.000000
    10  H    3.753605   6.624958   2.019982   1.085668   0.000000
    11  H    2.674401   6.901798   2.083063   1.088944   1.787876
    12  H    2.760760   6.253205   2.070763   1.088472   1.788433
    13  C    6.517299   1.433680   6.267978   7.602172   7.996595
    14  H    6.650123   2.071782   6.754904   8.082449   8.591838
    15  H    6.908583   2.081476   6.467387   7.857344   8.172056
    16  H    7.197257   2.017768   6.829077   8.091300   8.419784
    17  O    2.833348   5.040633   4.466567   4.877611   5.857198
    18  H    1.930859   5.147753   3.807745   4.197259   5.229792
    19  H    3.447203   5.936990   5.245552   5.488104   6.493141
    20  O    3.328255   4.357072   3.246645   3.573491   4.161273
    21  H    3.084501   4.526295   3.650063   3.975755   4.734174
    22  H    3.381073   3.414709   3.098761   3.792061   4.330385
    23  O    4.168180   3.220743   5.304838   6.345610   7.189499
    24  H    3.945480   3.669506   5.254211   6.317883   7.199927
    25  H    3.665927   3.703436   4.986302   5.860285   6.755024
    26  O    3.904514   4.613324   5.183877   6.278914   7.137339
    27  H    4.005914   3.918889   4.863148   6.097582   6.856695
    28  H    3.213853   5.018649   4.626381   5.608021   6.497053
                   11         12         13         14         15
    11  H    0.000000
    12  H    1.792242   0.000000
    13  C    8.275853   7.684369   0.000000
    14  H    8.671137   8.125307   1.089238   0.000000
    15  H    8.496461   8.080000   1.089384   1.786012   0.000000
    16  H    8.856314   8.084715   1.086080   1.786589   1.787813
    17  O    5.134160   4.335511   6.184214   6.048036   6.952966
    18  H    4.327280   3.786494   6.359545   6.281686   7.008727
    19  H    5.636024   4.871283   7.021461   6.805241   7.819068
    20  O    4.388339   2.898134   5.722121   6.091194   6.412877
    21  H    4.611404   3.268559   5.840416   6.038057   6.600709
    22  H    4.637560   3.363998   4.794400   5.219002   5.458451
    23  O    6.701613   6.173993   3.894894   3.435366   4.652344
    24  H    6.535138   6.267867   4.307091   3.812761   4.890211
    25  H    6.207300   5.561444   4.583749   4.249948   5.381863
    26  O    6.246269   6.525790   5.200714   4.805758   5.408690
    27  H    6.177042   6.421851   4.475227   4.197256   4.571672
    28  H    5.460982   5.899707   5.795240   5.526052   5.993898
                   16         17         18         19         20
    16  H    0.000000
    17  O    6.645833   0.000000
    18  H    6.926788   0.968065   0.000000
    19  H    7.462239   0.959178   1.549340   0.000000
    20  O    5.906444   2.904155   3.012229   3.631375   0.000000
    21  H    6.092265   1.988482   2.255504   2.679496   0.966326
    22  H    5.007702   3.125379   3.210501   3.985707   0.962719
    23  O    4.545454   2.908114   3.192293   3.538000   4.317074
    24  H    5.108704   3.172019   3.209217   3.749654   4.820859
    25  H    5.135985   1.964765   2.379474   2.597973   3.686855
    26  O    6.193498   4.370735   3.974898   4.907020   5.898780
    27  H    5.506187   4.680281   4.296087   5.353020   5.735753
    28  H    6.766343   4.155942   3.574140   4.670429   5.660681
                   21         22         23         24         25
    21  H    0.000000
    22  H    1.516307   0.000000
    23  O    3.780808   3.815200   0.000000
    24  H    4.279904   4.338576   0.968751   0.000000
    25  H    3.014718   3.369035   0.966317   1.532100   0.000000
    26  O    5.475086   5.415165   2.896569   1.965796   3.309260
    27  H    5.455311   5.127713   2.943439   2.176810   3.481936
    28  H    5.249106   5.280168   3.359643   2.489863   3.532341
                   26         27         28
    26  O    0.000000
    27  H    0.967864   0.000000
    28  H    0.959570   1.526525   0.000000
 Stoichiometry    C4H14N2O8
 Framework group  C1[X(C4H14N2O8)]
 Deg. of freedom    78
 Full point group                 C1      NOp   1
 Largest Abelian subgroup         C1      NOp   1
 Largest concise Abelian subgroup C1      NOp   1
                         Standard orientation:                         
 ---------------------------------------------------------------------
 Center     Atomic      Atomic             Coordinates (Angstroms)
 Number     Number       Type             X           Y           Z
 ---------------------------------------------------------------------
      1          7           0        0.301160   -0.348790   -1.015089
      2          7           0       -0.329220   -0.693780   -0.024119
      3          6           0        1.708060   -0.199700   -0.765079
      4          6           0       -1.772920   -0.753770   -0.295589
      5          8           0       -2.305490   -0.341860   -1.284479
      6          8           0        2.179870    0.895200   -0.611469
      7          8           0       -2.322920   -1.367310    0.714231
      8          8           0        2.323660   -1.340950   -0.847029
      9          6           0        3.740440   -1.319190   -0.588689
     10          1           0        4.071390   -2.345280   -0.716309
     11          1           0        4.240830   -0.663890   -1.300019
     12          1           0        3.912160   -0.983910    0.432521
     13          6           0       -3.752580   -1.470800    0.685941
     14          1           0       -4.192490   -0.474590    0.707941
     15          1           0       -4.077620   -2.004500   -0.206399
     16          1           0       -4.022720   -2.024360    1.580461
     17          8           0        1.175301    2.113500    1.741071
     18          1           0        1.589990    1.973620    0.877581
     19          1           0        1.534721    2.928810    2.096191
     20          8           0        1.690590   -0.695000    2.271091
     21          1           0        1.572520    0.261200    2.345441
     22          1           0        0.869500   -0.994320    1.867301
     23          8           0       -1.594920    1.762740    0.928681
     24          1           0       -1.504189    2.146290    0.043731
     25          1           0       -0.740940    1.919800    1.352731
     26          8           0       -1.237679    2.275890   -1.899599
     27          1           0       -1.552860    1.365010   -1.987459
     28          1           0       -0.309189    2.237180   -2.138729
 ---------------------------------------------------------------------
 Rotational constants (GHZ):      0.7130519      0.3856323      0.3647486
 Standard basis: def2TZVP (5D, 7F)
 There are   588 symmetry adapted cartesian basis functions of A   symmetry.
 There are   518 symmetry adapted basis functions of A   symmetry.
   518 basis functions,   826 primitive gaussians,   588 cartesian basis functions
    58 alpha electrons       58 beta electrons
       nuclear repulsion energy      1053.9779729591 Hartrees.
 NAtoms=   28 NActive=   28 NUniq=   28 SFac= 1.00D+00 NAtFMM=   60 NAOKFM=F Big=F
 Integral buffers will be    131072 words long.
 Raffenetti 2 integral format.
 Two-electron integral symmetry is turned on.
 Nuclear repulsion after empirical dispersion term =     1053.9610277962 Hartrees.
 Force inversion solution in PCM.
 ------------------------------------------------------------------------------
 Polarizable Continuum Model (PCM)
 =================================
 Model                : PCM (using non-symmetric T matrix).
 Atomic radii         : SMD-Coulomb.
 Polarization charges : Total charges.
 Charge compensation  : None.
 Solution method      : Matrix inversion.
 Cavity type          : VdW (van der Waals Surface) (Alpha=1.000).
 Cavity algorithm     : GePol (No added spheres)
                        Default sphere list used, NSphG=   28.
                        Lebedev-Laikov grids with approx.  5.0 points / Ang**2.
                        Smoothing algorithm: Karplus/York (Gamma=1.0000).
                        Polarization charges: spherical gaussians, with
                                              point-specific exponents (IZeta= 3).
                        Self-potential: point-specific (ISelfS= 7).
                        Self-field    : sphere-specific E.n sum rule (ISelfD= 2).
 1st derivatives      : Analytical E(r).r(x)/FMM algorithm (CHGder, D1EAlg=3).
                        Cavity 1st derivative terms included.
 2nd derivatives      : Analytical E(r).r(xy)/FMM algorithm (CHGder, D2EAlg=3).
                        Cavity 2nd derivative terms included.
 Solvent              : Toluene, Eps=   2.374100 Eps(inf)=   2.238315
 ------------------------------------------------------------------------------
 ------------------------------------------------------------------------------
 Atomic radii for non-electrostatic terms: SMD-CDS.
 ------------------------------------------------------------------------------
 Nuclear repulsion after PCM non-electrostatic terms =     1053.9571440911 Hartrees.
 One-electron integrals computed using PRISM.
   1 Symmetry operations used in ECPInt.
 ECPInt:  NShTT=   22155 NPrTT=   66780 LenC2=   19980 LenP2D=   43340.
 LDataN:  DoStor=T MaxTD1= 6 Len=  172
 NBasis=   518 RedAO= T EigKep=  3.09D-04  NBF=   518
 NBsUse=   518 1.00D-06 EigRej= -1.00D+00 NBFU=   518
 ExpMin= 9.52D-02 ExpMax= 2.70D+04 ExpMxC= 9.22D+02 IAcc=2 IRadAn=         4 AccDes= 0.00D+00
 Harris functional with IExCor= 4639 and IRadAn=       4 diagonalized for initial guess.
 HarFok:  IExCor= 4639 AccDes= 0.00D+00 IRadAn=         4 IDoV= 1 UseB2=F ITyADJ=14
 ICtDFT=  3500011 ScaDFX=  1.000000  1.000000  1.000000  1.000000
 FoFCou: FMM=F IPFlag=           0 FMFlag=      100000 FMFlg1=           0
         NFxFlg=           0 DoJE=T BraDBF=F KetDBF=T FulRan=T
         wScrn=  0.000000 ICntrl=     500 IOpCl=  0 I1Cent=   200000004 NGrid=           0
         NMat0=    1 NMatS0=      1 NMatT0=    0 NMatD0=    1 NMtDS0=    0 NMtDT0=    0
 Petite list used in FoFCou.
 Requested convergence on RMS density matrix=1.00D-08 within 128 cycles.
 Requested convergence on MAX density matrix=1.00D-06.
 Requested convergence on             energy=1.00D-06.
 No special actions if energy rises.
 Inv3:  Mode=1 IEnd=    14705388.
 Iteration    1 A*A^-1 deviation from unit magnitude is 5.11D-15 for   1374.
 Iteration    1 A*A^-1 deviation from orthogonality  is 1.89D-15 for   1118    885.
 Iteration    1 A^-1*A deviation from unit magnitude is 5.77D-15 for    541.
 Iteration    1 A^-1*A deviation from orthogonality  is 3.26D-14 for   1474    380.
 Error on total polarization charges =  0.00824
 SCF Done:  E(RwB97XD) =  -872.247116894     A.U. after   16 cycles
            NFock= 16  Conv=0.43D-08     -V/T= 2.0040
 SMD-CDS (non-electrostatic) energy       (kcal/mol) =      -2.44
 (included in total energy above)
 DoSCS=F DFT=T ScalE2(SS,OS)=  1.000000  1.000000
 Range of M.O.s used for correlation:     1   518
 NBasis=   518 NAE=    58 NBE=    58 NFC=     0 NFV=     0
 NROrb=    518 NOA=    58 NOB=    58 NVA=   460 NVB=   460

 **** Warning!!: The largest alpha MO coefficient is  0.12030857D+02

   1 Symmetry operations used in ECPInt.
 ECPInt:  NShTT=   22155 NPrTT=   66780 LenC2=   19980 LenP2D=   43340.
 LDataN:  DoStor=T MaxTD1= 7 Len=  274
 Number of processors reduced to   5 by ecpmxn.
 Symmetrizing basis deriv contribution to polar:
 IMax=3 JMax=2 DiffMx= 0.00D+00
 G2DrvN: will do    29 centers at a time, making    1 passes.
 Calling FoFCou, ICntrl=  3107 FMM=F I1Cent=   0 AccDes= 0.00D+00.
 NEqPCM:  Using equilibrium solvation (IEInf=0, Eps=   2.3741, EpsInf=   2.2383)
 G2PCM: DoFxE=T DoFxN=T DoGrad=T DoDP/DQ/DG/TGxP=FFFF NFrqRd=   0 IEInf=0 SqF1=F DoCFld=F IF1Alg=4.
 End of G2Drv F.D. properties file   721 does not exist.
 End of G2Drv F.D. properties file   722 does not exist.
 End of G2Drv F.D. properties file   788 does not exist.
          IDoAtm=1111111111111111111111111111
 NEqPCM:  Using equilibrium solvation (IEInf=0, Eps=   2.3741, EpsInf=   2.2383)
          Differentiating once with respect to electric field.
                with respect to dipole field.
          Differentiating once with respect to nuclear coordinates.
          There are    87 degrees of freedom in the 1st order CPHF.  IDoFFX=6 NUNeed=     3.
     84 vectors produced by pass  0 Test12= 3.07D-14 1.15D-09 XBig12= 4.09D+01 1.70D+00.
 AX will form    84 AO Fock derivatives at one time.
     84 vectors produced by pass  1 Test12= 3.07D-14 1.15D-09 XBig12= 8.01D+00 4.34D-01.
     84 vectors produced by pass  2 Test12= 3.07D-14 1.15D-09 XBig12= 2.05D-01 5.46D-02.
     84 vectors produced by pass  3 Test12= 3.07D-14 1.15D-09 XBig12= 2.31D-03 5.53D-03.
     84 vectors produced by pass  4 Test12= 3.07D-14 1.15D-09 XBig12= 2.29D-05 4.93D-04.
     84 vectors produced by pass  5 Test12= 3.07D-14 1.15D-09 XBig12= 1.77D-07 3.98D-05.
     84 vectors produced by pass  6 Test12= 3.07D-14 1.15D-09 XBig12= 1.06D-09 2.69D-06.
     29 vectors produced by pass  7 Test12= 3.07D-14 1.15D-09 XBig12= 6.04D-12 2.33D-07.
      4 vectors produced by pass  8 Test12= 3.07D-14 1.15D-09 XBig12= 3.47D-14 2.72D-08.
      3 vectors produced by pass  9 Test12= 3.07D-14 1.15D-09 XBig12= 9.91D-16 2.64D-09.
 InvSVY:  IOpt=1 It=  1 EMax= 3.55D-15
 Solved reduced A of dimension   624 with    87 vectors.
 Isotropic polarizability for W=    0.000000      118.46 Bohr**3.
 End of Minotr F.D. properties file   721 does not exist.
 End of Minotr F.D. properties file   722 does not exist.
 End of Minotr F.D. properties file   788 does not exist.

 **********************************************************************

            Population analysis using the SCF density.

 **********************************************************************

 Orbital symmetries:
       Occupied  (A) (A) (A) (A) (A) (A) (A) (A) (A) (A) (A) (A)
                 (A) (A) (A) (A) (A) (A) (A) (A) (A) (A) (A) (A)
                 (A) (A) (A) (A) (A) (A) (A) (A) (A) (A) (A) (A)
                 (A) (A) (A) (A) (A) (A) (A) (A) (A) (A) (A) (A)
                 (A) (A) (A) (A) (A) (A) (A) (A) (A) (A)
       Virtual   (A) (A) (A) (A) (A) (A) (A) (A) (A) (A) (A) (A)
                 (A) (A) (A) (A) (A) (A) (A) (A) (A) (A) (A) (A)
                 (A) (A) (A) (A) (A) (A) (A) (A) (A) (A) (A) (A)
                 (A) (A) (A) (A) (A) (A) (A) (A) (A) (A) (A) (A)
                 (A) (A) (A) (A) (A) (A) (A) (A) (A) (A) (A) (A)
                 (A) (A) (A) (A) (A) (A) (A) (A) (A) (A) (A) (A)
                 (A) (A) (A) (A) (A) (A) (A) (A) (A) (A) (A) (A)
                 (A) (A) (A) (A) (A) (A) (A) (A) (A) (A) (A) (A)
                 (A) (A) (A) (A) (A) (A) (A) (A) (A) (A) (A) (A)
                 (A) (A) (A) (A) (A) (A) (A) (A) (A) (A) (A) (A)
                 (A) (A) (A) (A) (A) (A) (A) (A) (A) (A) (A) (A)
                 (A) (A) (A) (A) (A) (A) (A) (A) (A) (A) (A) (A)
                 (A) (A) (A) (A) (A) (A) (A) (A) (A) (A) (A) (A)
                 (A) (A) (A) (A) (A) (A) (A) (A) (A) (A) (A) (A)
                 (A) (A) (A) (A) (A) (A) (A) (A) (A) (A) (A) (A)
                 (A) (A) (A) (A) (A) (A) (A) (A) (A) (A) (A) (A)
                 (A) (A) (A) (A) (A) (A) (A) (A) (A) (A) (A) (A)
                 (A) (A) (A) (A) (A) (A) (A) (A) (A) (A) (A) (A)
                 (A) (A) (A) (A) (A) (A) (A) (A) (A) (A) (A) (A)
                 (A) (A) (A) (A) (A) (A) (A) (A) (A) (A) (A) (A)
                 (A) (A) (A) (A) (A) (A) (A) (A) (A) (A) (A) (A)
                 (A) (A) (A) (A) (A) (A) (A) (A) (A) (A) (A) (A)
                 (A) (A) (A) (A) (A) (A) (A) (A) (A) (A) (A) (A)
                 (A) (A) (A) (A) (A) (A) (A) (A) (A) (A) (A) (A)
                 (A) (A) (A) (A) (A) (A) (A) (A) (A) (A) (A) (A)
                 (A) (A) (A) (A) (A) (A) (A) (A) (A) (A) (A) (A)
                 (A) (A) (A) (A) (A) (A) (A) (A) (A) (A) (A) (A)
                 (A) (A) (A) (A) (A) (A) (A) (A) (A) (A) (A) (A)
                 (A) (A) (A) (A) (A) (A) (A) (A) (A) (A) (A) (A)
                 (A) (A) (A) (A) (A) (A) (A) (A) (A) (A) (A) (A)
                 (A) (A) (A) (A) (A) (A) (A) (A) (A) (A) (A) (A)
                 (A) (A) (A) (A) (A) (A) (A) (A) (A) (A) (A) (A)
                 (A) (A) (A) (A) (A) (A) (A) (A) (A) (A) (A) (A)
                 (A) (A) (A) (A) (A) (A) (A) (A) (A) (A) (A) (A)
                 (A) (A) (A) (A) (A) (A) (A) (A) (A) (A) (A) (A)
                 (A) (A) (A) (A) (A) (A) (A) (A) (A) (A) (A) (A)
                 (A) (A) (A) (A) (A) (A) (A) (A) (A) (A) (A) (A)
                 (A) (A) (A) (A) (A) (A) (A) (A) (A) (A) (A) (A)
                 (A) (A) (A) (A)
 The electronic state is 1-A.
 Alpha  occ. eigenvalues --  -19.33594 -19.32669 -19.27719 -19.26971 -19.26696
 Alpha  occ. eigenvalues --  -19.24646 -19.22535 -19.21749 -14.54201 -14.53951
 Alpha  occ. eigenvalues --  -10.47366 -10.46169 -10.34970 -10.34473  -1.27185
 Alpha  occ. eigenvalues --   -1.25539  -1.19143  -1.16897  -1.15485  -1.13351
 Alpha  occ. eigenvalues --   -1.11080  -1.08919  -1.08019  -0.92267  -0.85940
 Alpha  occ. eigenvalues --   -0.81362  -0.71319  -0.67856  -0.66078  -0.65081
 Alpha  occ. eigenvalues --   -0.63370  -0.62156  -0.61736  -0.60565  -0.59847
 Alpha  occ. eigenvalues --   -0.59430  -0.58917  -0.57629  -0.54810  -0.54189
 Alpha  occ. eigenvalues --   -0.53261  -0.51156  -0.50268  -0.48851  -0.47992
 Alpha  occ. eigenvalues --   -0.47628  -0.46836  -0.46482  -0.45229  -0.42962
 Alpha  occ. eigenvalues --   -0.42574  -0.41944  -0.41622  -0.41525  -0.40072
 Alpha  occ. eigenvalues --   -0.38384  -0.37627  -0.35738
 Alpha virt. eigenvalues --   -0.04220   0.06013   0.09458   0.10882   0.12833
 Alpha virt. eigenvalues --    0.13408   0.13798   0.14990   0.15324   0.17668
 Alpha virt. eigenvalues --    0.18605   0.18862   0.19692   0.20693   0.21384
 Alpha virt. eigenvalues --    0.22009   0.22577   0.24319   0.24853   0.25883
 Alpha virt. eigenvalues --    0.27295   0.28553   0.28910   0.29658   0.30080
 Alpha virt. eigenvalues --    0.30617   0.31872   0.32747   0.33693   0.36037
 Alpha virt. eigenvalues --    0.36387   0.37044   0.38268   0.39693   0.40185
 Alpha virt. eigenvalues --    0.40421   0.41217   0.41779   0.42450   0.43026
 Alpha virt. eigenvalues --    0.43929   0.45602   0.46329   0.46491   0.47313
 Alpha virt. eigenvalues --    0.47358   0.48107   0.48864   0.49894   0.51033
 Alpha virt. eigenvalues --    0.51886   0.52111   0.52440   0.52867   0.53828
 Alpha virt. eigenvalues --    0.53998   0.55141   0.56203   0.57322   0.57404
 Alpha virt. eigenvalues --    0.58010   0.59418   0.60456   0.60678   0.60927
 Alpha virt. eigenvalues --    0.62767   0.63533   0.64138   0.64296   0.66275
 Alpha virt. eigenvalues --    0.66849   0.68905   0.70190   0.71685   0.72189
 Alpha virt. eigenvalues --    0.72855   0.73527   0.73846   0.74949   0.77370
 Alpha virt. eigenvalues --    0.77698   0.79195   0.80295   0.81339   0.82406
 Alpha virt. eigenvalues --    0.82612   0.83537   0.84986   0.85462   0.86060
 Alpha virt. eigenvalues --    0.87314   0.89492   0.90427   0.91291   0.92310
 Alpha virt. eigenvalues --    0.93195   0.95119   0.96867   0.97621   0.98543
 Alpha virt. eigenvalues --    1.00000   1.01652   1.03049   1.04572   1.05140
 Alpha virt. eigenvalues --    1.07358   1.08210   1.11911   1.12390   1.13429
 Alpha virt. eigenvalues --    1.15094   1.18771   1.21592   1.24644   1.24798
 Alpha virt. eigenvalues --    1.26846   1.27532   1.28932   1.30866   1.32960
 Alpha virt. eigenvalues --    1.34079   1.34845   1.36302   1.37769   1.39108
 Alpha virt. eigenvalues --    1.40412   1.41413   1.43719   1.45499   1.48354
 Alpha virt. eigenvalues --    1.49036   1.49707   1.50105   1.52095   1.52839
 Alpha virt. eigenvalues --    1.54926   1.56484   1.57084   1.58211   1.59143
 Alpha virt. eigenvalues --    1.59336   1.60979   1.61313   1.62293   1.62691
 Alpha virt. eigenvalues --    1.65033   1.66502   1.67524   1.69017   1.71149
 Alpha virt. eigenvalues --    1.71243   1.71649   1.73112   1.74078   1.75461
 Alpha virt. eigenvalues --    1.77448   1.79018   1.79817   1.80936   1.82113
 Alpha virt. eigenvalues --    1.83459   1.84175   1.85619   1.87629   1.89090
 Alpha virt. eigenvalues --    1.89719   1.91813   1.93079   1.95107   1.95445
 Alpha virt. eigenvalues --    1.97411   1.98048   1.99541   2.01606   2.02237
 Alpha virt. eigenvalues --    2.02880   2.03838   2.06887   2.08049   2.08841
 Alpha virt. eigenvalues --    2.11588   2.12271   2.12790   2.13114   2.14091
 Alpha virt. eigenvalues --    2.15354   2.16846   2.17274   2.17887   2.18546
 Alpha virt. eigenvalues --    2.18889   2.20115   2.20918   2.22045   2.23105
 Alpha virt. eigenvalues --    2.25031   2.25682   2.26787   2.29351   2.30169
 Alpha virt. eigenvalues --    2.31276   2.32926   2.33519   2.35358   2.37066
 Alpha virt. eigenvalues --    2.37100   2.39331   2.39678   2.40708   2.41737
 Alpha virt. eigenvalues --    2.42962   2.43353   2.44371   2.46573   2.47136
 Alpha virt. eigenvalues --    2.48307   2.48709   2.49924   2.50958   2.52109
 Alpha virt. eigenvalues --    2.52831   2.56043   2.57105   2.60829   2.60987
 Alpha virt. eigenvalues --    2.61194   2.63919   2.64554   2.65839   2.66209
 Alpha virt. eigenvalues --    2.69094   2.70035   2.72067   2.72452   2.73530
 Alpha virt. eigenvalues --    2.73938   2.75591   2.77750   2.79064   2.79675
 Alpha virt. eigenvalues --    2.80661   2.81977   2.83955   2.84124   2.86634
 Alpha virt. eigenvalues --    2.86848   2.87078   2.88797   2.90485   2.91293
 Alpha virt. eigenvalues --    2.91613   2.93079   2.95814   2.98787   2.99979
 Alpha virt. eigenvalues --    3.01318   3.02150   3.03714   3.06269   3.09883
 Alpha virt. eigenvalues --    3.13224   3.14129   3.14312   3.15704   3.16789
 Alpha virt. eigenvalues --    3.18040   3.19160   3.20983   3.22713   3.23723
 Alpha virt. eigenvalues --    3.25377   3.27512   3.28907   3.31092   3.31283
 Alpha virt. eigenvalues --    3.33077   3.33427   3.35875   3.37453   3.38848
 Alpha virt. eigenvalues --    3.40854   3.41419   3.42402   3.43687   3.45515
 Alpha virt. eigenvalues --    3.47417   3.47792   3.49626   3.51922   3.53856
 Alpha virt. eigenvalues --    3.55871   3.59535   3.61244   3.64136   3.65705
 Alpha virt. eigenvalues --    3.66308   3.66899   3.68431   3.70441   3.71662
 Alpha virt. eigenvalues --    3.75240   3.76280   3.79613   3.81604   3.82992
 Alpha virt. eigenvalues --    3.85490   3.87445   3.90315   3.93157   3.97760
 Alpha virt. eigenvalues --    4.03092   4.03717   4.05150   4.06460   4.07671
 Alpha virt. eigenvalues --    4.14717   4.15520   4.21709   4.24409   4.24786
 Alpha virt. eigenvalues --    4.29550   4.35164   4.38865   4.39071   4.46078
 Alpha virt. eigenvalues --    4.46814   4.50226   4.51723   4.59316   4.62751
 Alpha virt. eigenvalues --    4.63950   4.70143   4.78043   4.82282   4.86100
 Alpha virt. eigenvalues --    4.89279   4.94896   4.96267   4.99393   5.01432
 Alpha virt. eigenvalues --    5.07267   5.09242   5.15153   5.17018   5.19067
 Alpha virt. eigenvalues --    5.20748   5.21527   5.21949   5.24827   5.25148
 Alpha virt. eigenvalues --    5.26672   5.27182   5.29968   5.32009   5.32583
 Alpha virt. eigenvalues --    5.33388   5.38715   5.39131   5.43430   5.46124
 Alpha virt. eigenvalues --    5.47184   5.47566   5.49239   5.50584   5.51479
 Alpha virt. eigenvalues --    5.51881   5.53832   5.54742   5.55260   5.55667
 Alpha virt. eigenvalues --    5.56634   5.57966   5.58646   5.59372   5.59937
 Alpha virt. eigenvalues --    5.65811   5.73311   5.74666   5.75703   5.77815
 Alpha virt. eigenvalues --    5.89917   5.91290   5.96083   5.98685   6.07830
 Alpha virt. eigenvalues --    6.10013   6.12284   6.13093   6.13599   6.15724
 Alpha virt. eigenvalues --    6.16808   6.20150   6.21812   6.27718   6.30274
 Alpha virt. eigenvalues --    6.30845   6.31933   6.33895   6.35203   6.37629
 Alpha virt. eigenvalues --    6.42625   6.44027   6.44901   6.46201   6.47523
 Alpha virt. eigenvalues --    6.48389   6.48629   6.49387   6.49834   6.51565
 Alpha virt. eigenvalues --    6.53327   6.54264   6.54378   6.55789   6.57213
 Alpha virt. eigenvalues --    6.58619   6.59447   6.60479   6.64922   6.71542
 Alpha virt. eigenvalues --    6.72309   6.73319   6.74292   6.82578   6.84547
 Alpha virt. eigenvalues --    6.91783   6.96733   6.98012   6.98770   6.99635
 Alpha virt. eigenvalues --    7.01099   7.02231   7.04631   7.07015   7.08611
 Alpha virt. eigenvalues --    7.09818   7.11427   7.13560   7.18756   7.22416
 Alpha virt. eigenvalues --    7.23102   7.25289   7.39722   7.46205   7.47981
 Alpha virt. eigenvalues --    7.50918  22.40439  22.42624  23.44422  23.57840
 Alpha virt. eigenvalues --   32.37138  32.48214  43.55067  43.56442  43.60095
 Alpha virt. eigenvalues --   43.67375  44.00408  44.02221  44.24210  44.25733
          Condensed to atoms (all electrons):
               1          2          3          4          5          6
     1  N    6.702129   0.296025   0.299063  -0.066127   0.001800  -0.061126
     2  N    0.296025   6.679328  -0.027141   0.318312  -0.070581  -0.006370
     3  C    0.299063  -0.027141   4.414394  -0.006347   0.000684   0.534215
     4  C   -0.066127   0.318312  -0.006347   4.354476   0.559334  -0.000869
     5  O    0.001800  -0.070581   0.000684   0.559334   7.955250   0.000068
     6  O   -0.061126  -0.006370   0.534215  -0.000869   0.000068   8.001557
     7  O    0.002849  -0.091036  -0.000533   0.408018  -0.069889   0.000002
     8  O   -0.072189  -0.005106   0.394517   0.000543  -0.000009  -0.068578
     9  C    0.004963  -0.000149  -0.072309   0.000064   0.000001   0.001177
    10  H    0.000248   0.000044   0.003961   0.000005   0.000000   0.001027
    11  H   -0.000348   0.000046  -0.007999   0.000006   0.000000   0.004938
    12  H   -0.000399  -0.000231   0.002703  -0.000037   0.000000   0.002882
    13  C   -0.000300   0.004077  -0.000028  -0.044666   0.001610  -0.000001
    14  H   -0.000077  -0.000431  -0.000015  -0.004753   0.003626   0.000000
    15  H    0.000027  -0.000253  -0.000010  -0.010152   0.004913   0.000000
    16  H    0.000009   0.000486   0.000003   0.004320   0.001179   0.000000
    17  O   -0.000684  -0.000528   0.003958  -0.000126  -0.000001  -0.016908
    18  H    0.001592   0.000309  -0.010945   0.000005   0.000002   0.022699
    19  H   -0.000017   0.000059  -0.000249   0.000005   0.000000   0.000711
    20  O   -0.007424  -0.010493   0.055445   0.001359  -0.000011  -0.006940
    21  H    0.000776   0.001300  -0.003567   0.000080   0.000004   0.000502
    22  H   -0.000287   0.014693  -0.008105   0.000747   0.000079   0.000874
    23  O   -0.003918   0.003936   0.000433   0.016583  -0.005505   0.000082
    24  H    0.001349  -0.000838   0.000329  -0.002401   0.000247   0.000078
    25  H    0.000754  -0.000299   0.000537  -0.002459   0.000144   0.000140
    26  O    0.004435  -0.006426   0.003186   0.007362  -0.015979  -0.000714
    27  H    0.002751   0.000485  -0.000079  -0.006283   0.022094  -0.000044
    28  H    0.002347  -0.000618   0.001482  -0.000619   0.000808   0.002676
               7          8          9         10         11         12
     1  N    0.002849  -0.072189   0.004963   0.000248  -0.000348  -0.000399
     2  N   -0.091036  -0.005106  -0.000149   0.000044   0.000046  -0.000231
     3  C   -0.000533   0.394517  -0.072309   0.003961  -0.007999   0.002703
     4  C    0.408018   0.000543   0.000064   0.000005   0.000006  -0.000037
     5  O   -0.069889  -0.000009   0.000001   0.000000   0.000000   0.000000
     6  O    0.000002  -0.068578   0.001177   0.001027   0.004938   0.002882
     7  O    7.857068  -0.000006  -0.000003   0.000000   0.000000   0.000000
     8  O   -0.000006   7.856163   0.218592  -0.025928  -0.030890  -0.034422
     9  C   -0.000003   0.218592   4.842777   0.397120   0.411598   0.407518
    10  H    0.000000  -0.025928   0.397120   0.501355  -0.020498  -0.016217
    11  H    0.000000  -0.030890   0.411598  -0.020498   0.520791  -0.030643
    12  H    0.000000  -0.034422   0.407518  -0.016217  -0.030643   0.493906
    13  C    0.215655   0.000000   0.000000   0.000000   0.000000   0.000000
    14  H   -0.032865   0.000000   0.000000   0.000000   0.000000   0.000000
    15  H   -0.030811   0.000000   0.000000   0.000000   0.000000   0.000000
    16  H   -0.026422   0.000000   0.000000   0.000000   0.000000   0.000000
    17  O   -0.000011  -0.000098  -0.000417  -0.000002   0.000024   0.000241
    18  H    0.000001   0.000384   0.000379   0.000005  -0.000015  -0.000038
    19  H    0.000000  -0.000004  -0.000004   0.000000  -0.000003   0.000007
    20  O   -0.000130  -0.007373  -0.014082  -0.000172   0.000631   0.010283
    21  H   -0.000059   0.000413   0.000565   0.000003  -0.000036  -0.000563
    22  H    0.001757   0.001934   0.001109   0.000020  -0.000033  -0.000881
    23  O   -0.000668   0.000012   0.000021   0.000000   0.000000  -0.000001
    24  H    0.000127  -0.000006  -0.000005   0.000000   0.000000   0.000000
    25  H    0.000134   0.000007   0.000011   0.000000  -0.000001  -0.000002
    26  O   -0.000043   0.000033   0.000021   0.000000  -0.000001   0.000000
    27  H    0.000337  -0.000003  -0.000005   0.000000   0.000000   0.000000
    28  H    0.000000   0.000049   0.000018   0.000000   0.000002  -0.000003
              13         14         15         16         17         18
     1  N   -0.000300  -0.000077   0.000027   0.000009  -0.000684   0.001592
     2  N    0.004077  -0.000431  -0.000253   0.000486  -0.000528   0.000309
     3  C   -0.000028  -0.000015  -0.000010   0.000003   0.003958  -0.010945
     4  C   -0.044666  -0.004753  -0.010152   0.004320  -0.000126   0.000005
     5  O    0.001610   0.003626   0.004913   0.001179  -0.000001   0.000002
     6  O   -0.000001   0.000000   0.000000   0.000000  -0.016908   0.022699
     7  O    0.215655  -0.032865  -0.030811  -0.026422  -0.000011   0.000001
     8  O    0.000000   0.000000   0.000000   0.000000  -0.000098   0.000384
     9  C    0.000000   0.000000   0.000000   0.000000  -0.000417   0.000379
    10  H    0.000000   0.000000   0.000000   0.000000  -0.000002   0.000005
    11  H    0.000000   0.000000   0.000000   0.000000   0.000024  -0.000015
    12  H    0.000000   0.000000   0.000000   0.000000   0.000241  -0.000038
    13  C    4.806313   0.416784   0.415101   0.396262  -0.000002   0.000004
    14  H    0.416784   0.500654  -0.032040  -0.017351   0.000002   0.000000
    15  H    0.415101  -0.032040   0.524937  -0.021557   0.000000   0.000000
    16  H    0.396262  -0.017351  -0.021557   0.507247   0.000000   0.000000
    17  O   -0.000002   0.000002   0.000000   0.000000   8.125071   0.286539
    18  H    0.000004   0.000000   0.000000   0.000000   0.286539   0.353427
    19  H    0.000000   0.000000   0.000000   0.000000   0.306084  -0.009291
    20  O    0.000001   0.000000   0.000000   0.000002  -0.016582   0.000539
    21  H   -0.000001  -0.000001   0.000000   0.000000   0.021153  -0.003728
    22  H    0.000016   0.000001   0.000005  -0.000011   0.000677   0.000326
    23  O    0.001445   0.001921   0.000114  -0.000060  -0.015041   0.002598
    24  H   -0.000098  -0.000155  -0.000004   0.000001   0.002505   0.000143
    25  H   -0.000102  -0.000048   0.000004   0.000003   0.013839  -0.001918
    26  O    0.000084  -0.000004   0.000011   0.000000  -0.000186   0.000767
    27  H    0.000046  -0.000010  -0.000006   0.000000   0.000008  -0.000101
    28  H   -0.000003   0.000002  -0.000002   0.000000   0.000074   0.000139
              19         20         21         22         23         24
     1  N   -0.000017  -0.007424   0.000776  -0.000287  -0.003918   0.001349
     2  N    0.000059  -0.010493   0.001300   0.014693   0.003936  -0.000838
     3  C   -0.000249   0.055445  -0.003567  -0.008105   0.000433   0.000329
     4  C    0.000005   0.001359   0.000080   0.000747   0.016583  -0.002401
     5  O    0.000000  -0.000011   0.000004   0.000079  -0.005505   0.000247
     6  O    0.000711  -0.006940   0.000502   0.000874   0.000082   0.000078
     7  O    0.000000  -0.000130  -0.000059   0.001757  -0.000668   0.000127
     8  O   -0.000004  -0.007373   0.000413   0.001934   0.000012  -0.000006
     9  C   -0.000004  -0.014082   0.000565   0.001109   0.000021  -0.000005
    10  H    0.000000  -0.000172   0.000003   0.000020   0.000000   0.000000
    11  H   -0.000003   0.000631  -0.000036  -0.000033   0.000000   0.000000
    12  H    0.000007   0.010283  -0.000563  -0.000881  -0.000001   0.000000
    13  C    0.000000   0.000001  -0.000001   0.000016   0.001445  -0.000098
    14  H    0.000000   0.000000  -0.000001   0.000001   0.001921  -0.000155
    15  H    0.000000   0.000000   0.000000   0.000005   0.000114  -0.000004
    16  H    0.000000   0.000002   0.000000  -0.000011  -0.000060   0.000001
    17  O    0.306084  -0.016582   0.021153   0.000677  -0.015041   0.002505
    18  H   -0.009291   0.000539  -0.003728   0.000326   0.002598   0.000143
    19  H    0.338874   0.000696  -0.000333  -0.000020   0.000526  -0.000079
    20  O    0.000696   8.015604   0.323284   0.322193  -0.000092  -0.000036
    21  H   -0.000333   0.323284   0.344896  -0.028277  -0.000133  -0.000025
    22  H   -0.000020   0.322193  -0.028277   0.352574   0.000507  -0.000038
    23  O    0.000526  -0.000092  -0.000133   0.000507   8.077989   0.305902
    24  H   -0.000079  -0.000036  -0.000025  -0.000038   0.305902   0.357636
    25  H   -0.000569   0.000330   0.000495   0.000088   0.323270  -0.023577
    26  O   -0.000028   0.000000   0.000000  -0.000005  -0.018846   0.026516
    27  H    0.000003  -0.000001   0.000004   0.000004   0.001360  -0.005451
    28  H    0.000004  -0.000002  -0.000001   0.000001   0.001083  -0.002173
              25         26         27         28
     1  N    0.000754   0.004435   0.002751   0.002347
     2  N   -0.000299  -0.006426   0.000485  -0.000618
     3  C    0.000537   0.003186  -0.000079   0.001482
     4  C   -0.002459   0.007362  -0.006283  -0.000619
     5  O    0.000144  -0.015979   0.022094   0.000808
     6  O    0.000140  -0.000714  -0.000044   0.002676
     7  O    0.000134  -0.000043   0.000337   0.000000
     8  O    0.000007   0.000033  -0.000003   0.000049
     9  C    0.000011   0.000021  -0.000005   0.000018
    10  H    0.000000   0.000000   0.000000   0.000000
    11  H   -0.000001  -0.000001   0.000000   0.000002
    12  H   -0.000002   0.000000   0.000000  -0.000003
    13  C   -0.000102   0.000084   0.000046  -0.000003
    14  H   -0.000048  -0.000004  -0.000010   0.000002
    15  H    0.000004   0.000011  -0.000006  -0.000002
    16  H    0.000003   0.000000   0.000000   0.000000
    17  O    0.013839  -0.000186   0.000008   0.000074
    18  H   -0.001918   0.000767  -0.000101   0.000139
    19  H   -0.000569  -0.000028   0.000003   0.000004
    20  O    0.000330   0.000000  -0.000001  -0.000002
    21  H    0.000495   0.000000   0.000004  -0.000001
    22  H    0.000088  -0.000005   0.000004   0.000001
    23  O    0.323270  -0.018846   0.001360   0.001083
    24  H   -0.023577   0.026516  -0.005451  -0.002173
    25  H    0.339233   0.001549   0.000006  -0.000081
    26  O    0.001549   8.066123   0.303338   0.307901
    27  H    0.000006   0.303338   0.348034  -0.018462
    28  H   -0.000081   0.307901  -0.018462   0.362131
 Mulliken charges:
               1
     1  N   -0.108222
     2  N   -0.098601
     3  C    0.422419
     4  C    0.473617
     5  O   -0.389866
     6  O   -0.412079
     7  O   -0.233472
     8  O   -0.228038
     9  C   -0.198960
    10  H    0.159028
    11  H    0.152431
    12  H    0.165897
    13  C   -0.212199
    14  H    0.164763
    15  H    0.149724
    16  H    0.155887
    17  O   -0.709590
    18  H    0.356177
    19  H    0.363629
    20  O   -0.667030
    21  H    0.343252
    22  H    0.340050
    23  O   -0.693515
    24  H    0.340054
    25  H    0.348513
    26  O   -0.679094
    27  H    0.351977
    28  H    0.343247
 Sum of Mulliken charges =   0.00000
 Mulliken charges with hydrogens summed into heavy atoms:
               1
     1  N   -0.108222
     2  N   -0.098601
     3  C    0.422419
     4  C    0.473617
     5  O   -0.389866
     6  O   -0.412079
     7  O   -0.233472
     8  O   -0.228038
     9  C    0.278396
    13  C    0.258175
    17  O    0.010216
    20  O    0.016272
    23  O   -0.004947
    26  O    0.016129
 APT charges:
               1
     1  N   -0.322938
     2  N   -0.189336
     3  C    1.596687
     4  C    1.538248
     5  O   -0.884230
     6  O   -0.943291
     7  O   -0.975612
     8  O   -0.990126
     9  C    0.519483
    10  H    0.027072
    11  H    0.004216
    12  H    0.026006
    13  C    0.524284
    14  H    0.008411
    15  H    0.001268
    16  H    0.024435
    17  O   -0.723596
    18  H    0.410462
    19  H    0.315666
    20  O   -0.683020
    21  H    0.367627
    22  H    0.331471
    23  O   -0.753092
    24  H    0.375760
    25  H    0.379586
    26  O   -0.685096
    27  H    0.397904
    28  H    0.301750
 Sum of APT charges =   0.00000
 APT charges with hydrogens summed into heavy atoms:
               1
     1  N   -0.322938
     2  N   -0.189336
     3  C    1.596687
     4  C    1.538248
     5  O   -0.884230
     6  O   -0.943291
     7  O   -0.975612
     8  O   -0.990126
     9  C    0.576777
    13  C    0.558398
    17  O    0.002533
    20  O    0.016078
    23  O    0.002254
    26  O    0.014558
 Electronic spatial extent (au):  <R**2>=           3546.5597
 Charge=              0.0000 electrons
 Dipole moment (field-independent basis, Debye):
    X=              2.7582    Y=             -1.8890    Z=             -0.9252  Tot=              3.4687
 Quadrupole moment (field-independent basis, Debye-Ang):
   XX=            -65.0371   YY=            -78.2194   ZZ=            -90.3706
   XY=             13.9332   XZ=             -9.7751   YZ=              7.8309
 Traceless Quadrupole moment (field-independent basis, Debye-Ang):
   XX=             12.8386   YY=             -0.3437   ZZ=            -12.4949
   XY=             13.9332   XZ=             -9.7751   YZ=              7.8309
 Octapole moment (field-independent basis, Debye-Ang**2):
  XXX=              9.3036  YYY=             16.3232  ZZZ=             -5.0325  XYY=             29.0636
  XXY=            -48.3921  XXZ=              4.0852  XZZ=              6.4298  YZZ=             17.2401
  YYZ=             22.5128  XYZ=             22.5722
 Hexadecapole moment (field-independent basis, Debye-Ang**3):
 XXXX=          -2019.2494 YYYY=           -900.9226 ZZZZ=           -832.4711 XXXY=             41.5643
 XXXZ=           -105.7804 YYYX=            108.6037 YYYZ=             91.4092 ZZZX=            -41.9026
 ZZZY=             53.5647 XXYY=           -505.9336 XXZZ=           -570.2151 YYZZ=           -280.0164
 XXYZ=             30.5557 YYXZ=              7.7791 ZZXY=             73.2855
 N-N= 1.053957144091D+03 E-N=-4.160047622847D+03  KE= 8.687299062946D+02
  Exact polarizability: 141.709   4.173 108.862  -7.510  -3.703 104.820
 Approx polarizability: 118.720   5.653 109.458  -3.870  -5.023 108.412
   1 Symmetry operations used in ECPInt.
 ECPInt:  NShTT=   22155 NPrTT=   66780 LenC2=   19980 LenP2D=   43340.
 LDataN:  DoStor=T MaxTD1= 8 Len=  415
 D2PCM: PCM CHGder 2nd derivatives, FixD1E=F FixD2E=F DoIter=F DoCFld=F I1PDM=0
 Calling FoFJK, ICntrl=    100127 FMM=F ISym2X=0 I1Cent= 0 IOpClX= 0 NMat=1 NMatS=1 NMatT=0.
 Full mass-weighted force constant matrix:
 Low frequencies ---  -12.2483    0.0003    0.0004    0.0007    8.5062   10.9833
 Low frequencies ---   36.0410   56.4130   60.8203
 Diagonal vibrational polarizability:
      103.1588194     202.2571384     248.7907442
 Harmonic frequencies (cm**-1), IR intensities (KM/Mole), Raman scattering
 activities (A**4/AMU), depolarization ratios for plane and unpolarized
 incident light, reduced masses (AMU), force constants (mDyne/A),
 and normal coordinates:
                      1                      2                      3
                      A                      A                      A
 Frequencies --     35.8979                56.3850                60.7199
 Red. masses --      5.4271                 5.0893                 4.3703
 Frc consts  --      0.0041                 0.0095                 0.0095
 IR Inten    --      2.0827                 1.0193                 2.1720
  Atom  AN      X      Y      Z        X      Y      Z        X      Y      Z
     1   7     0.03   0.06   0.03    -0.05   0.00   0.01     0.03   0.06  -0.10
     2   7     0.04  -0.02   0.01    -0.05   0.04   0.02     0.05  -0.04  -0.12
     3   6     0.03   0.05   0.03    -0.05   0.04   0.01     0.03   0.03  -0.05
     4   6     0.03   0.00   0.02    -0.04  -0.01   0.02     0.04  -0.01  -0.05
     5   8     0.04  -0.11  -0.03    -0.06  -0.01   0.03    -0.01   0.00  -0.02
     6   8     0.03   0.03   0.13    -0.07   0.04   0.03     0.05   0.01  -0.02
     7   8     0.02   0.13   0.09    -0.02  -0.05   0.01     0.10  -0.01  -0.02
     8   8     0.03   0.05  -0.09    -0.03   0.05  -0.01     0.01   0.01   0.02
     9   6     0.04   0.03  -0.13    -0.03   0.08  -0.01    -0.02  -0.03   0.14
    10   1     0.04   0.05  -0.26     0.00   0.10  -0.04    -0.05  -0.05   0.23
    11   1     0.02   0.12  -0.06    -0.05   0.12   0.01     0.07  -0.09   0.14
    12   1     0.06  -0.09  -0.09    -0.03   0.05   0.00    -0.09   0.02   0.13
    13   6     0.01   0.21   0.13    -0.01  -0.18  -0.05     0.09   0.09   0.14
    14   1     0.07   0.23   0.02    -0.11  -0.22  -0.19     0.17   0.12   0.47
    15   1    -0.03   0.12   0.20     0.09  -0.31   0.00    -0.08   0.34   0.06
    16   1     0.00   0.33   0.20    -0.01  -0.10   0.00     0.17  -0.11   0.04
    17   8    -0.14  -0.14   0.14     0.22   0.00   0.17     0.06   0.01  -0.02
    18   1    -0.08  -0.09   0.17     0.20   0.00   0.16     0.09   0.01  -0.01
    19   1    -0.17  -0.16   0.22     0.26  -0.03   0.20     0.08  -0.01   0.01
    20   8     0.03  -0.16   0.00    -0.08  -0.08   0.03    -0.24  -0.05   0.06
    21   1    -0.03  -0.17   0.06     0.00  -0.07   0.09    -0.18  -0.04   0.03
    22   1     0.04  -0.17  -0.03    -0.10   0.02  -0.01    -0.17   0.01  -0.12
    23   8    -0.08   0.02  -0.15     0.24   0.15  -0.09     0.09  -0.12   0.00
    24   1    -0.02   0.00  -0.15     0.25   0.08  -0.12     0.00  -0.05   0.02
    25   1    -0.10  -0.01  -0.10     0.23   0.15  -0.08     0.09  -0.04  -0.02
    26   8    -0.06  -0.08  -0.16    -0.05  -0.07  -0.17    -0.21   0.04   0.00
    27   1    -0.01  -0.11  -0.11    -0.08  -0.07  -0.05    -0.20   0.04   0.01
    28   1    -0.06  -0.05  -0.16    -0.08  -0.11  -0.28    -0.22   0.06  -0.07
                      4                      5                      6
                      A                      A                      A
 Frequencies --     65.1084                74.0669                77.1679
 Red. masses --      4.8058                 5.2560                 4.4974
 Frc consts  --      0.0120                 0.0170                 0.0158
 IR Inten    --      3.8059                 7.9664                 6.1019
  Atom  AN      X      Y      Z        X      Y      Z        X      Y      Z
     1   7    -0.04  -0.11  -0.07    -0.02  -0.02  -0.02     0.00   0.02  -0.06
     2   7    -0.03  -0.05  -0.04    -0.02  -0.03  -0.03     0.01   0.11  -0.02
     3   6    -0.05   0.00  -0.06    -0.02   0.01   0.00     0.00   0.02  -0.05
     4   6    -0.04  -0.04  -0.01    -0.02  -0.01  -0.04     0.01   0.06   0.03
     5   8    -0.05  -0.03   0.00     0.00  -0.03  -0.06    -0.06   0.10   0.08
     6   8    -0.16   0.05  -0.11    -0.05   0.04  -0.08     0.01   0.02  -0.09
     7   8    -0.03   0.00   0.02    -0.06   0.04  -0.03     0.10  -0.04   0.02
     8   8     0.05   0.06   0.02     0.00   0.02   0.14    -0.03   0.00   0.04
     9   6     0.05   0.22   0.05    -0.02   0.06   0.26    -0.05  -0.04   0.15
    10   1     0.16   0.24   0.13    -0.01   0.04   0.44    -0.09  -0.07   0.28
    11   1    -0.01   0.22   0.01     0.03  -0.05   0.19     0.04  -0.14   0.11
    12   1    -0.01   0.31   0.03    -0.11   0.23   0.22    -0.11   0.06   0.12
    13   6    -0.04   0.12   0.12    -0.06   0.12  -0.04     0.11  -0.16   0.10
    14   1     0.06   0.16   0.30    -0.01   0.14  -0.14     0.03  -0.21   0.40
    15   1    -0.16   0.28   0.08    -0.08   0.06  -0.01     0.09   0.03  -0.01
    16   1    -0.01   0.03   0.07    -0.11   0.21   0.00     0.23  -0.41  -0.02
    17   8     0.02  -0.03   0.04     0.07  -0.11   0.04    -0.10  -0.15  -0.01
    18   1    -0.02  -0.01   0.01     0.04  -0.03   0.01    -0.08  -0.07  -0.02
    19   1     0.02  -0.03   0.04     0.04  -0.11   0.08    -0.13  -0.16   0.04
    20   8    -0.09  -0.03  -0.02     0.31  -0.03  -0.15     0.05  -0.10  -0.02
    21   1    -0.06  -0.03   0.00     0.22  -0.05  -0.09     0.02  -0.11  -0.02
    22   1    -0.08   0.00  -0.08     0.26  -0.11   0.01     0.06  -0.11  -0.05
    23   8     0.04  -0.08   0.00     0.04  -0.04   0.01    -0.13   0.17  -0.06
    24   1     0.10  -0.08   0.01     0.02  -0.02   0.01    -0.06   0.12  -0.07
    25   1     0.01  -0.08   0.05     0.05  -0.07  -0.01    -0.11   0.05  -0.06
    26   8     0.29  -0.06   0.04    -0.17   0.00   0.00     0.10   0.06  -0.08
    27   1     0.22  -0.03  -0.05    -0.16  -0.01   0.02     0.05   0.07  -0.05
    28   1     0.32  -0.13   0.15    -0.19   0.02  -0.07     0.10   0.00  -0.05
                      7                      8                      9
                      A                      A                      A
 Frequencies --     89.3222                94.6963               116.2850
 Red. masses --      2.1941                 2.9597                 6.3812
 Frc consts  --      0.0103                 0.0156                 0.0508
 IR Inten    --      6.4851                 2.7627                 2.6284
  Atom  AN      X      Y      Z        X      Y      Z        X      Y      Z
     1   7    -0.02   0.07   0.03    -0.03   0.18   0.00    -0.04   0.11   0.07
     2   7    -0.01  -0.06  -0.01     0.01  -0.02  -0.04     0.00   0.00   0.06
     3   6    -0.02   0.03   0.04    -0.02   0.09  -0.01    -0.03   0.07  -0.01
     4   6    -0.02  -0.02  -0.01     0.00  -0.03  -0.01    -0.01   0.03   0.04
     5   8    -0.02   0.04   0.02    -0.02  -0.11  -0.03     0.02   0.05   0.03
     6   8     0.01   0.01   0.09     0.06   0.06  -0.01     0.03   0.07  -0.14
     7   8    -0.02  -0.08  -0.04     0.03   0.02   0.04    -0.04   0.00   0.00
     8   8    -0.05   0.01  -0.01    -0.11   0.04   0.01    -0.07   0.04   0.07
     9   6    -0.05  -0.05  -0.01    -0.12  -0.09   0.06    -0.04   0.05  -0.11
    10   1    -0.08  -0.05  -0.09    -0.22  -0.13   0.10    -0.09   0.02   0.06
    11   1    -0.03  -0.01   0.04    -0.02  -0.16   0.07    -0.11  -0.11  -0.31
    12   1    -0.04  -0.13   0.01    -0.13  -0.09   0.06     0.11   0.26  -0.20
    13   6    -0.02   0.01   0.03     0.03  -0.05   0.04    -0.04  -0.01  -0.07
    14   1     0.05   0.03   0.58    -0.02  -0.07  -0.42    -0.05  -0.01   0.01
    15   1    -0.15   0.47  -0.20     0.10  -0.45   0.25     0.00   0.09  -0.14
    16   1     0.03  -0.41  -0.21     0.02   0.32   0.26    -0.08  -0.10  -0.14
    17   8    -0.01   0.07   0.05     0.01   0.03   0.00     0.03  -0.17  -0.13
    18   1     0.00   0.06   0.06     0.04   0.06   0.01     0.05  -0.07  -0.13
    19   1    -0.01   0.07   0.06     0.00   0.01   0.05    -0.05  -0.17  -0.06
    20   8     0.09   0.06  -0.06    -0.01   0.01  -0.07     0.09  -0.02   0.39
    21   1     0.04   0.05  -0.02    -0.04   0.00  -0.05     0.04   0.00   0.12
    22   1     0.08   0.01   0.01     0.00  -0.02  -0.09     0.17  -0.14   0.30
    23   8     0.05  -0.07  -0.05     0.02  -0.09  -0.01     0.05  -0.21  -0.09
    24   1     0.04  -0.06  -0.04     0.02  -0.07   0.00     0.01  -0.12  -0.05
    25   1     0.02   0.01  -0.02     0.01  -0.05   0.01     0.05  -0.20  -0.09
    26   8     0.05  -0.03  -0.07     0.13   0.00   0.02     0.01   0.05  -0.08
    27   1     0.05  -0.03  -0.03     0.14   0.00  -0.06     0.08   0.03  -0.06
    28   1     0.06  -0.05  -0.02     0.16   0.01   0.14     0.03   0.10  -0.04
                     10                     11                     12
                      A                      A                      A
 Frequencies --    122.2427               127.6341               130.2203
 Red. masses --      4.6221                 8.0039                 5.6556
 Frc consts  --      0.0407                 0.0768                 0.0565
 IR Inten    --      6.7262                 1.8170                 4.0811
  Atom  AN      X      Y      Z        X      Y      Z        X      Y      Z
     1   7     0.00  -0.13  -0.09     0.02   0.02   0.20     0.02   0.02  -0.04
     2   7    -0.01   0.05  -0.03     0.00  -0.03   0.16     0.00   0.19   0.01
     3   6    -0.02  -0.09  -0.03     0.04   0.01   0.13     0.02   0.02  -0.03
     4   6    -0.02   0.07   0.02     0.00   0.04   0.13     0.01   0.17   0.03
     5   8    -0.07   0.12   0.07     0.04   0.13   0.15    -0.03   0.20   0.05
     6   8    -0.08  -0.08   0.08     0.05   0.03  -0.01     0.03   0.01  -0.01
     7   8     0.03   0.01   0.02    -0.05  -0.02   0.07     0.02   0.10  -0.02
     8   8     0.04  -0.05  -0.08     0.05   0.02   0.16     0.00   0.01  -0.04
     9   6     0.02   0.00   0.05     0.08   0.10  -0.01    -0.01  -0.03   0.02
    10   1     0.09   0.03  -0.02     0.13   0.12  -0.04    -0.06  -0.06   0.17
    11   1     0.05   0.09   0.16    -0.04   0.13  -0.06     0.06  -0.15  -0.06
    12   1    -0.09  -0.09   0.10     0.18   0.10  -0.03    -0.03   0.10  -0.02
    13   6     0.04  -0.04   0.06    -0.05  -0.03  -0.04     0.03   0.00  -0.08
    14   1    -0.01  -0.06  -0.33    -0.07  -0.04  -0.11    -0.04  -0.03  -0.13
    15   1     0.07  -0.39   0.25     0.03  -0.06  -0.05     0.11  -0.05  -0.08
    16   1     0.05   0.28   0.26    -0.12  -0.01  -0.05     0.03   0.00  -0.08
    17   8    -0.09   0.04   0.10    -0.04   0.02  -0.21    -0.03  -0.01   0.05
    18   1    -0.10  -0.02   0.11     0.00   0.00  -0.19    -0.04   0.02   0.04
    19   1    -0.12   0.09   0.02    -0.02   0.00  -0.18    -0.11   0.04   0.02
    20   8     0.07   0.08   0.03    -0.15  -0.21  -0.34    -0.03   0.00  -0.04
    21   1     0.08   0.08   0.08    -0.12  -0.21  -0.21     0.05   0.01   0.02
    22   1     0.06   0.11   0.04    -0.20  -0.13  -0.30    -0.06   0.10  -0.06
    23   8     0.07  -0.22  -0.13     0.07  -0.16  -0.08     0.00  -0.17   0.09
    24   1     0.08  -0.07  -0.06    -0.03  -0.07  -0.05     0.02  -0.17   0.09
    25   1     0.00  -0.11  -0.02     0.06  -0.05  -0.11    -0.02  -0.14   0.11
    26   8     0.00   0.18  -0.07    -0.02   0.10  -0.10    -0.01  -0.38   0.00
    27   1    -0.05   0.20  -0.09     0.05   0.07  -0.02    -0.12  -0.37   0.16
    28   1    -0.01   0.14  -0.12     0.00   0.14  -0.03    -0.05  -0.50  -0.11
                     13                     14                     15
                      A                      A                      A
 Frequencies --    134.8904               153.3152               164.1835
 Red. masses --      1.1322                 3.5960                 4.8439
 Frc consts  --      0.0121                 0.0498                 0.0769
 IR Inten    --      0.3195                13.7113                 5.7386
  Atom  AN      X      Y      Z        X      Y      Z        X      Y      Z
     1   7     0.00  -0.01   0.01     0.00  -0.05   0.00    -0.02  -0.01  -0.04
     2   7     0.00  -0.01   0.00    -0.03   0.19   0.07    -0.02   0.05  -0.02
     3   6     0.01  -0.01   0.00    -0.01  -0.02   0.00    -0.03   0.00   0.01
     4   6     0.00  -0.01   0.00    -0.01   0.06   0.02    -0.02   0.01  -0.02
     5   8     0.01  -0.01   0.00     0.02  -0.19  -0.10    -0.03  -0.05  -0.04
     6   8     0.01  -0.02   0.01    -0.01  -0.01  -0.03    -0.05  -0.01   0.21
     7   8     0.00  -0.01   0.00    -0.01   0.19   0.10    -0.01   0.05   0.01
     8   8     0.00  -0.01   0.00    -0.01  -0.02   0.01     0.01   0.04  -0.14
     9   6     0.01   0.00  -0.04     0.00  -0.03  -0.01    -0.03   0.05   0.08
    10   1    -0.09  -0.10   0.50     0.00  -0.02  -0.07    -0.04   0.02   0.34
    11   1     0.04  -0.43  -0.42    -0.01   0.01   0.02     0.10  -0.11   0.02
    12   1     0.08   0.54  -0.23     0.01  -0.08   0.00    -0.17   0.26   0.04
    13   6     0.00   0.00   0.00     0.01  -0.09  -0.03     0.00  -0.02   0.01
    14   1     0.00   0.00   0.00    -0.19  -0.19   0.37    -0.05  -0.05   0.07
    15   1     0.00   0.00   0.00     0.16   0.22  -0.27     0.02   0.01  -0.02
    16   1     0.00   0.00   0.00     0.07  -0.52  -0.28     0.03  -0.09  -0.02
    17   8    -0.02   0.02   0.05     0.05  -0.01   0.05     0.00   0.18  -0.19
    18   1    -0.01   0.01   0.06     0.04  -0.01   0.05    -0.06   0.01  -0.20
    19   1    -0.01   0.02   0.05    -0.03   0.04   0.00    -0.05   0.30  -0.42
    20   8    -0.01   0.02  -0.03    -0.02   0.01  -0.05     0.11  -0.27   0.10
    21   1    -0.03   0.01   0.02     0.09   0.02   0.03     0.24  -0.26   0.12
    22   1    -0.01   0.02  -0.03    -0.08   0.15  -0.05     0.07  -0.13   0.06
    23   8     0.00   0.01  -0.01     0.01  -0.09  -0.06     0.04   0.01   0.02
    24   1     0.01   0.01  -0.01     0.04  -0.03  -0.03     0.00   0.00   0.02
    25   1    -0.01   0.02   0.01    -0.01  -0.12  -0.01     0.06   0.03  -0.02
    26   8     0.00   0.02   0.00     0.00   0.06   0.07     0.03  -0.02   0.02
    27   1     0.00   0.02  -0.01     0.03   0.07  -0.09     0.02  -0.01  -0.02
    28   1     0.00   0.03   0.00    -0.01   0.15   0.01     0.02  -0.01   0.01
                     16                     17                     18
                      A                      A                      A
 Frequencies --    183.8909               196.4119               199.2700
 Red. masses --      5.8221                 4.6291                 5.3925
 Frc consts  --      0.1160                 0.1052                 0.1262
 IR Inten    --      3.2994                 1.0168                 1.8718
  Atom  AN      X      Y      Z        X      Y      Z        X      Y      Z
     1   7     0.00  -0.03  -0.02     0.03   0.02  -0.03    -0.01  -0.02   0.03
     2   7     0.03   0.00   0.00    -0.08   0.11  -0.07     0.03  -0.02   0.05
     3   6     0.00  -0.01  -0.05     0.01  -0.01   0.12     0.00   0.00  -0.04
     4   6     0.03  -0.01   0.00    -0.07   0.04  -0.12     0.02  -0.01   0.05
     5   8     0.04   0.02   0.01    -0.13   0.02  -0.10     0.06  -0.01   0.04
     6   8     0.00   0.02  -0.25     0.05  -0.03   0.12    -0.02   0.00   0.01
     7   8     0.02  -0.02  -0.01     0.02  -0.01  -0.10    -0.02  -0.01   0.04
     8   8    -0.04  -0.05   0.16     0.00  -0.03   0.21     0.02   0.02  -0.15
     9   6     0.00  -0.07  -0.07     0.06   0.05  -0.12    -0.02   0.00   0.08
    10   1    -0.01  -0.05  -0.25     0.09   0.07  -0.21    -0.02  -0.02   0.17
    11   1    -0.12   0.03  -0.07    -0.16   0.08  -0.25     0.12  -0.04   0.14
    12   1     0.16  -0.20  -0.05     0.30   0.06  -0.17    -0.18   0.03   0.10
    13   6     0.01   0.03  -0.03     0.03  -0.04   0.16    -0.02   0.02  -0.05
    14   1     0.05   0.05  -0.05     0.01  -0.04   0.09     0.00   0.03  -0.04
    15   1     0.00   0.03  -0.02    -0.12  -0.17   0.29     0.02   0.06  -0.09
    16   1    -0.02   0.05  -0.02     0.19   0.08   0.28    -0.09   0.00  -0.08
    17   8    -0.04   0.32   0.19     0.17  -0.01  -0.03     0.24   0.03   0.04
    18   1    -0.02   0.27   0.22     0.14  -0.01  -0.04     0.15   0.01   0.01
    19   1    -0.09   0.39   0.10     0.15   0.01  -0.06     0.39  -0.04   0.05
    20   8     0.05  -0.23   0.07     0.03  -0.01  -0.01    -0.03   0.00   0.00
    21   1     0.11  -0.25   0.29     0.11   0.00  -0.03     0.06   0.02  -0.03
    22   1     0.08  -0.07  -0.11    -0.03   0.03   0.07    -0.05   0.06  -0.01
    23   8    -0.07  -0.02  -0.02    -0.14  -0.05   0.00    -0.27  -0.09   0.17
    24   1    -0.07  -0.02  -0.01    -0.13  -0.03   0.01    -0.35  -0.09   0.17
    25   1    -0.13   0.10   0.04    -0.12  -0.09  -0.01    -0.25  -0.04   0.10
    26   8    -0.02   0.01  -0.02     0.02   0.00  -0.03     0.02   0.06  -0.26
    27   1     0.00   0.00  -0.01    -0.14   0.06  -0.10     0.21   0.00  -0.23
    28   1     0.01   0.00   0.07     0.04  -0.18   0.11     0.08   0.21  -0.03
                     19                     20                     21
                      A                      A                      A
 Frequencies --    206.3452               232.4095               250.5860
 Red. masses --      5.8690                 1.5930                 1.2392
 Frc consts  --      0.1472                 0.0507                 0.0458
 IR Inten    --      2.4332                78.7655                49.2136
  Atom  AN      X      Y      Z        X      Y      Z        X      Y      Z
     1   7     0.00  -0.01  -0.03     0.00   0.03  -0.03     0.00   0.03   0.01
     2   7    -0.02   0.02  -0.03     0.01  -0.10  -0.06     0.01  -0.07  -0.02
     3   6     0.00  -0.01   0.01     0.00  -0.03  -0.01     0.02   0.00  -0.01
     4   6    -0.01  -0.01  -0.04    -0.01   0.03   0.00    -0.01   0.00   0.01
     5   8    -0.01  -0.08  -0.07    -0.03   0.02   0.01    -0.02   0.00   0.02
     6   8     0.00  -0.01  -0.02     0.01  -0.03   0.01     0.02   0.00  -0.01
     7   8     0.00   0.06   0.01    -0.01   0.11   0.05    -0.01   0.03   0.03
     8   8    -0.01  -0.02   0.09     0.01  -0.02   0.01     0.02   0.00  -0.02
     9   6     0.01   0.00  -0.05     0.02   0.04   0.00     0.02   0.01   0.01
    10   1     0.02   0.01  -0.10     0.06   0.05  -0.01     0.02   0.01   0.02
    11   1    -0.08   0.03  -0.08    -0.02   0.06  -0.01     0.03   0.01   0.02
    12   1     0.11  -0.02  -0.06     0.01   0.05   0.00    -0.01   0.01   0.02
    13   6     0.01  -0.02   0.02     0.01  -0.05  -0.02    -0.01  -0.01  -0.02
    14   1    -0.05  -0.05   0.07    -0.11  -0.10   0.01    -0.05  -0.03  -0.02
    15   1     0.03  -0.01   0.00     0.12  -0.04  -0.07     0.04   0.00  -0.05
    16   1     0.06  -0.07   0.00     0.03  -0.13  -0.07    -0.03  -0.04  -0.05
    17   8    -0.19  -0.04  -0.01    -0.04   0.04  -0.01     0.04  -0.03   0.02
    18   1    -0.13  -0.03   0.02     0.01   0.05   0.01     0.08  -0.03   0.04
    19   1    -0.43   0.11  -0.11     0.49  -0.34   0.34    -0.42   0.28  -0.23
    20   8     0.01   0.01  -0.01     0.02   0.00   0.02    -0.01   0.01   0.00
    21   1     0.00   0.00   0.09    -0.24  -0.01  -0.19     0.09   0.00   0.16
    22   1     0.00   0.04  -0.01     0.12  -0.30   0.04    -0.04   0.14  -0.03
    23   8     0.19   0.01   0.38     0.00  -0.01   0.01    -0.02   0.01  -0.02
    24   1     0.04   0.02   0.37    -0.06   0.02   0.02    -0.06   0.04  -0.01
    25   1     0.30  -0.08   0.20    -0.05   0.18   0.03     0.04  -0.09  -0.09
    26   8     0.03   0.07  -0.27     0.00   0.00  -0.01     0.00   0.03  -0.01
    27   1    -0.08   0.11  -0.17    -0.14   0.04   0.01    -0.37   0.15   0.04
    28   1     0.04  -0.10  -0.21     0.07  -0.22   0.29     0.09  -0.50   0.40
                     22                     23                     24
                      A                      A                      A
 Frequencies --    263.0329               284.9919               298.0977
 Red. masses --      1.8332                 5.3579                 1.1857
 Frc consts  --      0.0747                 0.2564                 0.0621
 IR Inten    --     63.9767                13.4962                77.5468
  Atom  AN      X      Y      Z        X      Y      Z        X      Y      Z
     1   7     0.01  -0.05   0.03     0.04   0.06   0.13     0.00   0.02  -0.01
     2   7    -0.02   0.14   0.08    -0.07   0.00   0.04     0.01  -0.03  -0.02
     3   6     0.01   0.03   0.01     0.12   0.00  -0.02     0.01   0.01   0.00
     4   6     0.00  -0.02   0.00    -0.14   0.02  -0.06     0.00  -0.02   0.01
     5   8     0.01  -0.05  -0.01    -0.12   0.01  -0.07    -0.04  -0.02   0.03
     6   8    -0.02   0.04  -0.02     0.23  -0.02  -0.15     0.03   0.00   0.00
     7   8     0.00  -0.09  -0.04    -0.16   0.01  -0.06     0.00   0.00   0.03
     8   8     0.01   0.03  -0.04     0.14   0.01  -0.16     0.00   0.00   0.01
     9   6     0.00  -0.06   0.01     0.12   0.01   0.08     0.01   0.01   0.00
    10   1    -0.07  -0.09   0.03     0.13   0.00   0.14     0.01   0.01  -0.01
    11   1     0.08  -0.11   0.02     0.26   0.00   0.18     0.00   0.01   0.00
    12   1    -0.01  -0.07   0.01    -0.07   0.00   0.12     0.01   0.00   0.00
    13   6    -0.01   0.05   0.01    -0.16  -0.10   0.16    -0.01   0.01  -0.03
    14   1     0.10   0.10  -0.01    -0.24  -0.13   0.18     0.00   0.01  -0.03
    15   1    -0.10   0.05   0.03    -0.27  -0.18   0.25     0.03   0.03  -0.06
    16   1    -0.04   0.11   0.03     0.04  -0.07   0.24    -0.05  -0.01  -0.05
    17   8    -0.03   0.01  -0.02    -0.04   0.04   0.04     0.01   0.01   0.00
    18   1    -0.02   0.06  -0.02     0.06   0.13   0.07    -0.18   0.01  -0.09
    19   1     0.29  -0.24   0.23    -0.07   0.00   0.17     0.12  -0.01  -0.07
    20   8     0.00  -0.01   0.00     0.01  -0.01   0.03     0.00   0.00   0.00
    21   1    -0.04   0.00  -0.12    -0.05  -0.01   0.00     0.07   0.01  -0.05
    22   1     0.00  -0.08   0.06     0.01  -0.09   0.10     0.00   0.04  -0.03
    23   8     0.03  -0.02  -0.01     0.02   0.00   0.01    -0.04  -0.01   0.00
    24   1     0.02   0.05   0.02     0.04  -0.03   0.00     0.30   0.03   0.04
    25   1    -0.01   0.06   0.04     0.02  -0.02   0.01    -0.16  -0.09   0.26
    26   8     0.01   0.04  -0.02     0.00  -0.01   0.01     0.04   0.03   0.02
    27   1    -0.45   0.19   0.02     0.14  -0.06  -0.04    -0.31   0.14   0.11
    28   1     0.06  -0.55   0.29    -0.04   0.20  -0.18    -0.16  -0.24  -0.71
                     25                     26                     27
                      A                      A                      A
 Frequencies --    310.4440               320.3007               329.9360
 Red. masses --      4.2131                 3.1670                 1.1498
 Frc consts  --      0.2392                 0.1914                 0.0737
 IR Inten    --     22.7412                41.7715                32.0645
  Atom  AN      X      Y      Z        X      Y      Z        X      Y      Z
     1   7     0.04  -0.09  -0.01    -0.02   0.01   0.09    -0.01  -0.02   0.01
     2   7     0.00  -0.12  -0.04     0.01  -0.07   0.07     0.00  -0.01   0.02
     3   6     0.03   0.08   0.04    -0.05  -0.02   0.00    -0.02  -0.01   0.00
     4   6    -0.02   0.00  -0.03     0.04   0.04  -0.04     0.01   0.01   0.00
     5   8     0.00   0.07  -0.02     0.23   0.09  -0.13     0.05   0.02  -0.02
     6   8    -0.19   0.18   0.01    -0.05  -0.02  -0.03    -0.02  -0.01   0.01
     7   8    -0.05   0.09   0.01    -0.01   0.05  -0.08     0.00   0.01  -0.01
     8   8     0.11   0.13   0.04    -0.06  -0.02  -0.03    -0.02  -0.01  -0.01
     9   6     0.11  -0.26  -0.03    -0.08   0.05   0.01    -0.02   0.01   0.00
    10   1    -0.22  -0.37  -0.04    -0.01   0.07   0.02     0.00   0.02   0.01
    11   1     0.29  -0.43  -0.06    -0.09   0.08   0.02    -0.03   0.02   0.00
    12   1     0.27  -0.32  -0.03    -0.13   0.07   0.01    -0.04   0.02   0.00
    13   6    -0.03  -0.06   0.05     0.01  -0.08   0.13     0.01  -0.01   0.02
    14   1    -0.16  -0.12   0.07    -0.10  -0.13   0.16    -0.01  -0.02   0.02
    15   1     0.01  -0.10   0.06    -0.08  -0.17   0.22     0.00  -0.03   0.03
    16   1     0.06  -0.10   0.05     0.21  -0.06   0.21     0.04  -0.01   0.03
    17   8     0.02  -0.02  -0.02    -0.01   0.00   0.02     0.03   0.01  -0.02
    18   1    -0.09   0.06  -0.09    -0.24  -0.28  -0.05     0.23   0.52   0.00
    19   1    -0.01   0.01  -0.04     0.28   0.00  -0.28    -0.46   0.04   0.39
    20   8     0.00   0.00   0.01     0.00   0.00  -0.01    -0.01   0.00   0.01
    21   1     0.03   0.01  -0.07     0.08   0.00   0.15    -0.11   0.01  -0.34
    22   1     0.00  -0.01   0.02    -0.06   0.12   0.00     0.06  -0.23   0.05
    23   8    -0.01   0.00   0.00    -0.01  -0.01  -0.01    -0.01   0.01   0.00
    24   1     0.03   0.00   0.00     0.13   0.06   0.03     0.03   0.00   0.01
    25   1    -0.02  -0.04   0.02    -0.12   0.08   0.18     0.06  -0.23  -0.06
    26   8     0.00   0.00   0.00     0.00   0.00   0.00     0.01   0.01   0.01
    27   1     0.04  -0.02   0.03    -0.22   0.06   0.16    -0.08   0.03   0.06
    28   1    -0.02   0.06  -0.09    -0.03  -0.27  -0.09    -0.04  -0.07  -0.18
                     28                     29                     30
                      A                      A                      A
 Frequencies --    387.4056               432.4550               469.8623
 Red. masses --      1.0579                 1.3860                 1.7767
 Frc consts  --      0.0935                 0.1527                 0.2311
 IR Inten    --    104.2812                35.6086                30.2386
  Atom  AN      X      Y      Z        X      Y      Z        X      Y      Z
     1   7     0.00   0.00  -0.01     0.01   0.01   0.07     0.00   0.00   0.11
     2   7     0.01  -0.02  -0.01    -0.03  -0.03   0.02    -0.05  -0.06   0.04
     3   6     0.00   0.00   0.00    -0.01  -0.02   0.03    -0.02  -0.02   0.05
     4   6     0.00  -0.01   0.00     0.00   0.01  -0.03    -0.01   0.02  -0.05
     5   8     0.01   0.01   0.00    -0.06   0.00  -0.01    -0.07   0.01  -0.03
     6   8     0.01  -0.01   0.01    -0.02   0.00  -0.04    -0.05   0.01  -0.03
     7   8    -0.01   0.00   0.00     0.06   0.02  -0.01     0.07   0.03  -0.02
     8   8     0.00   0.00   0.01     0.00  -0.01  -0.02     0.00  -0.01  -0.03
     9   6     0.00   0.01   0.00     0.00   0.00   0.00    -0.01   0.00   0.00
    10   1     0.01   0.01   0.00     0.01   0.00   0.02     0.00   0.00   0.02
    11   1    -0.01   0.01  -0.01     0.01   0.00   0.01     0.02   0.00   0.02
    12   1     0.00   0.01   0.00    -0.03   0.01   0.00    -0.04   0.00   0.01
    13   6    -0.01  -0.01   0.00     0.08   0.02  -0.03     0.10   0.03  -0.03
    14   1    -0.02  -0.01   0.00     0.09   0.03  -0.03     0.10   0.03  -0.03
    15   1    -0.01  -0.01   0.00     0.09   0.03  -0.04     0.11   0.03  -0.04
    16   1    -0.01  -0.01   0.00     0.05   0.02  -0.04     0.08   0.02  -0.04
    17   8    -0.02  -0.01  -0.02     0.01   0.00   0.03    -0.02   0.01  -0.04
    18   1    -0.05   0.29  -0.08    -0.28   0.10  -0.13     0.46  -0.15   0.22
    19   1     0.07  -0.19   0.32    -0.03   0.07  -0.10     0.07  -0.14   0.22
    20   8    -0.01  -0.02   0.01    -0.01  -0.01  -0.02     0.01   0.00   0.00
    21   1     0.62   0.06  -0.04     0.17   0.03  -0.28    -0.02  -0.04   0.45
    22   1    -0.16   0.56  -0.13    -0.35  -0.08   0.74     0.00   0.18  -0.12
    23   8     0.01   0.00   0.00     0.01   0.00   0.00    -0.01   0.00   0.02
    24   1     0.00   0.02   0.00     0.06  -0.01   0.00    -0.21  -0.12  -0.05
    25   1    -0.01   0.02   0.01    -0.05   0.04   0.09     0.14  -0.01  -0.28
    26   8    -0.01   0.00   0.00    -0.01   0.00  -0.01     0.02   0.00   0.03
    27   1     0.03  -0.02   0.01     0.06  -0.02  -0.03    -0.12   0.07  -0.12
    28   1     0.02   0.02   0.09     0.02   0.06   0.11    -0.07  -0.04  -0.32
                     31                     32                     33
                      A                      A                      A
 Frequencies --    484.5254               511.2148               530.7496
 Red. masses --      1.5219                 1.0449                 4.3436
 Frc consts  --      0.2105                 0.1609                 0.7209
 IR Inten    --     36.0540               370.0833                 6.6805
  Atom  AN      X      Y      Z        X      Y      Z        X      Y      Z
     1   7     0.01  -0.07  -0.08     0.00   0.00   0.00    -0.10   0.31  -0.03
     2   7     0.03   0.01  -0.03     0.01   0.00   0.01     0.02   0.07  -0.03
     3   6     0.01   0.04  -0.01     0.00   0.00   0.00    -0.03  -0.11  -0.08
     4   6     0.02  -0.04   0.01     0.00   0.01   0.00     0.01   0.09   0.09
     5   8     0.05   0.02   0.02     0.01   0.01   0.01     0.08  -0.06  -0.01
     6   8     0.06   0.02   0.01     0.00   0.00   0.00    -0.18  -0.06   0.00
     7   8    -0.04   0.01   0.02    -0.01   0.00   0.00    -0.03  -0.07  -0.01
     8   8    -0.02   0.03   0.02     0.00   0.00   0.00     0.10  -0.08   0.02
     9   6    -0.04   0.01  -0.01     0.00   0.00   0.00     0.18  -0.05   0.02
    10   1    -0.05   0.01  -0.02     0.00   0.00   0.00     0.17  -0.05   0.01
    11   1    -0.04   0.01  -0.01     0.00   0.00   0.00     0.14  -0.05  -0.01
    12   1    -0.01   0.00  -0.01     0.00   0.00   0.00     0.19  -0.04   0.01
    13   6    -0.06  -0.02   0.02     0.00   0.00   0.00    -0.06  -0.01   0.01
    14   1    -0.08  -0.03   0.02    -0.01   0.00   0.00     0.00   0.02   0.02
[...]
 ,0.00000070,0.00001615,0.00003541,-0.00000199,-0.00000514,0.00003544,0
 .00002567,-0.00000870,0.00030445,-0.00357342,-0.00520260,-0.00054826,0
 .00445397,-0.00221197,0.00080831,-0.00123720,0.00163083,-0.01333600,-0
 .02723357,-0.01693038,0.01167034,0.04992890,0.02469857,0.00006631,-0.0
 0096505,0.00306991,-0.00338859,0.00019422,-0.00212048,0.00365296,-0.00
 106381,0.00278482,-0.00127481,0.00031697,-0.00085842,0.00065548,-0.000
 38788,0.00073202,-0.00105214,-0.00009349,-0.00099944,0.00016659,-0.000
 04516,-0.00001254,-0.00068727,0.00084208,-0.00108516,-0.00050227,0.000
 11635,0.00023142,-0.00002611,-0.00001193,-0.00000832,0.00003082,0.0000
 1462,-0.00007746,-0.00027792,-0.00007022,-0.00000433,-0.00051878,-0.00
 009084,0.00014843,0.00007305,-0.00000017,0.00000643,0.00010632,0.00000
 673,0.00003039,0.00000939,0.00000123,-0.00002246,-0.00064614,0.0013603
 9,-0.00038278,0.00012584,-0.00043488,0.00035688,-0.00005669,-0.0000100
 1,-0.00010285,-0.38348267,-0.14498948,-0.18529792,0.00148539,0.0058782
 6,0.00143992,0.38509924,-0.00048391,0.00199479,0.00117556,-0.00066099,
 -0.00503890,-0.00143204,-0.00035269,0.00154484,0.00158255,0.00100222,0
 .00130296,-0.00056244,-0.00056865,-0.00011041,-0.00007831,-0.00009278,
 -0.00093308,-0.00090148,-0.00032466,-0.00046920,0.00023892,0.00063050,
 -0.00102333,0.00007055,0.00003444,0.00007909,0.00002643,0.00006100,-0.
 00003954,-0.00007549,0.00000176,-0.00003166,-0.00000859,-0.00010804,0.
 00005930,0.00009026,0.00007168,0.00001978,-0.00000860,0.00001840,-0.00
 001539,0.00000957,-0.00002322,0.00000434,-0.00000871,-0.00004457,0.000
 01004,0.00001913,0.00093769,0.00049607,0.00093728,-0.00028507,-0.00049
 420,0.00023661,0.00005335,0.00020154,-0.00036300,-0.09479573,-0.088411
 61,-0.05389967,-0.04449651,-0.01747407,-0.02188071,0.13950721,0.108661
 82,0.00003179,0.00053901,0.00043926,0.00121423,-0.00040155,-0.00296755
 ,0.00354494,0.00194355,-0.00278789,-0.00450458,-0.00088485,0.00255008,
 0.00247376,-0.00035167,0.00077295,-0.00142608,-0.00120585,-0.00034052,
 0.00159170,0.00059635,-0.00103035,-0.00155212,0.00006323,0.00055806,0.
 00148948,-0.00015747,0.00019753,-0.00012100,0.00002693,-0.00004024,-0.
 00020197,-0.00002493,-0.00006640,-0.00023717,0.00006665,0.00008282,-0.
 00059447,-0.00012014,0.00010579,0.00011351,0.00001734,0.00003365,0.000
 09176,-0.00001028,-0.00000701,0.00012133,0.00005552,-0.00002590,-0.000
 32293,0.00063226,-0.00088944,0.00015734,0.00058314,0.00075940,0.000031
 12,-0.00000508,-0.00005324,-0.17827426,-0.07568446,-0.09309632,-0.0059
 3870,-0.00049034,-0.00121668,0.18206786,0.07491302,0.09723503,0.000434
 02,0.00008022,-0.00041557,-0.00104968,0.00230509,0.00142003,0.00090408
 ,-0.00185750,-0.00041222,-0.00543068,0.00185147,-0.00088169,0.00209202
 ,-0.00261497,-0.00080261,-0.00026949,0.00133854,0.00092980,0.00082256,
 -0.00098034,-0.00018782,-0.00106888,0.00114549,-0.00000496,0.00051436,
 -0.00005479,0.00001736,-0.00004852,0.00004168,0.00000682,-0.00005239,-
 0.00002983,-0.00001588,-0.00002633,-0.00003871,0.00000274,-0.00003665,
 0.00045377,0.00004263,0.00034224,-0.00003620,-0.00002133,0.00008453,-0
 .00006310,-0.00004988,0.00006970,-0.00008534,0.00001511,-0.01003220,-0
 .00270071,-0.00467536,0.00153842,-0.00065442,-0.00124365,-0.00140785,0
 .00155966,0.00068591,-0.00006701,0.00099570,-0.00043237,0.00026972,-0.
 00122420,0.00067037,-0.00003652,-0.00047585,0.00022482,0.45550084,0.00
 122453,0.00012826,0.00030454,0.00176852,-0.00395406,-0.00270153,-0.004
 96197,-0.00086551,-0.00025002,0.00149036,0.00555893,0.00347095,-0.0009
 8390,-0.00192010,-0.00245034,0.00191073,0.00145576,0.00042577,-0.00202
 497,-0.00323920,-0.00093185,0.00211466,-0.00052748,0.00008288,-0.00078
 051,-0.00000913,-0.00011872,0.00010323,-0.00003103,0.00001644,0.000106
 75,0.00001570,0.00000495,0.00007815,0.00000034,0.00001795,0.00215093,0
 .00052214,-0.00022136,-0.00007020,-0.00001838,0.00005611,-0.00027561,-
 0.00001621,-0.00000767,-0.00012948,-0.00005432,0.00006873,-0.00314738,
 0.00344687,-0.00037654,0.00009778,-0.00109988,-0.00080485,0.00111271,-
 0.00002976,0.00025306,0.00057514,0.00021394,0.00053706,-0.00045784,-0.
 00067445,-0.00023152,-0.00052247,0.00040119,-0.00056490,0.11069754,0.1
 1972290,0.00082036,-0.00203517,0.00060223,0.00053331,0.00007800,-0.001
 32202,-0.00256420,0.00049011,-0.00031329,-0.00047759,0.00509010,-0.006
 60202,0.00048900,-0.00502467,0.00069431,0.00111866,0.00054306,0.000744
 03,-0.00107018,-0.00061688,0.00304109,0.00095588,-0.00045438,0.0000290
 0,-0.00037859,0.00002843,-0.00014365,0.00004589,-0.00001351,0.00000451
 ,0.00004801,-0.00000384,0.00002004,0.00008064,0.00000321,0.00000079,0.
 00039655,0.00025282,-0.00013229,0.00001383,0.00007629,-0.00019022,-0.0
 0001809,0.00007867,0.00003184,-0.00005561,-0.00016951,0.00004550,-0.00
 449819,-0.00030847,0.00233468,-0.00102873,-0.00074673,-0.00174687,-0.0
 0002370,0.00038242,0.00037107,-0.00033055,0.00059038,0.00072542,0.0005
 7136,-0.00063421,-0.00012559,0.00009820,-0.00037976,-0.00068205,0.1426
 5569,-0.15353835,0.54820659,-0.00026153,-0.00041453,0.00013237,-0.0001
 4830,0.00035167,-0.00030520,-0.00021265,0.00128057,0.00015916,0.001754
 93,-0.00053395,0.00112729,-0.00108671,0.00059290,-0.00049606,0.0003065
 2,-0.00070250,-0.00014750,-0.00032433,-0.00008397,-0.00028329,0.000336
 43,-0.00055783,-0.00004053,-0.00020234,0.00003269,-0.00003134,0.000012
 73,-0.00001756,-0.00000120,0.00001810,0.00000878,0.00001019,0.00001940
 ,0.00001123,-0.00000261,0.00025285,-0.00008495,-0.00000805,-0.00004542
 ,0.00000385,0.00010803,-0.00001974,-0.00000290,0.00000236,-0.00003370,
 0.00005361,0.00000015,-0.00012062,-0.00043484,0.00132939,-0.00111553,0
 .00012262,-0.00042813,-0.00014993,-0.00015415,-0.00006657,-0.00003468,
 -0.00012066,0.00017364,0.00006934,0.00013452,-0.00011829,0.00002867,0.
 00001535,-0.00011417,-0.04938432,-0.04028739,0.05983042,0.05277822,-0.
 00031110,0.00056505,-0.00041789,0.00021326,-0.00090203,0.00063301,0.00
 177266,-0.00023029,-0.00009503,-0.00045699,-0.00432686,0.00290680,-0.0
 0019980,0.00156646,-0.00044406,-0.00079853,-0.00033398,0.00001940,0.00
 085960,0.00030014,-0.00136319,-0.00079579,0.00035528,-0.00000844,0.000
 32567,-0.00001310,0.00005351,-0.00003753,0.00001567,-0.00000405,-0.000
 04473,-0.00000602,-0.00000528,-0.00003226,-0.00000557,-0.00000450,-0.0
 0048553,-0.00021029,0.00004382,0.00002438,0.00005075,0.00006595,0.0000
 3103,-0.00000245,0.00001557,0.00004187,0.00005404,-0.00003643,-0.00051
 581,-0.00074586,0.00000944,0.00016663,0.00037647,0.00011843,-0.0002303
 4,0.00019088,-0.00013988,-0.00011425,0.00001779,-0.00027259,0.00006086
 ,0.00003259,0.00012484,0.00005541,-0.00006146,0.00025473,-0.02209701,-
 0.09030936,0.18153880,0.02377758,0.09577925,0.00005042,0.00090572,-0.0
 0006399,-0.00012275,-0.00068948,0.00002179,0.00008819,-0.00033763,0.00
 016045,0.00059674,0.00064924,0.00513643,-0.00057279,0.00157798,-0.0027
 0693,-0.00011296,-0.00005853,-0.00055156,0.00030220,-0.00026836,-0.001
 82320,0.00008754,0.00003611,0.00004880,-0.00000280,-0.00002748,0.00006
 561,0.00000521,-0.00000179,0.00000252,0.00000439,0.00001182,-0.0000039
 0,-0.00001480,0.00000296,-0.00000076,-0.00000615,0.00008818,0.00001995
 ,0.00013438,0.00006381,0.00009967,-0.00001140,-0.00007398,0.00000111,0
 .00001386,0.00001618,-0.00001432,0.00222342,-0.00020887,0.00072575,-0.
 00064808,0.00030577,0.00061476,-0.00009181,-0.00013304,-0.00015547,0.0
 0016783,-0.00035154,-0.00013682,-0.00024196,0.00038804,-0.00009798,-0.
 00005513,0.00020833,0.00013792,0.01515872,0.16321783,-0.40654957,-0.01
 814237,-0.17173862,0.42454238,-0.00087058,0.00022217,0.00038300,-0.000
 15052,-0.00035787,-0.00009698,0.00195908,0.00252127,0.00074090,0.00107
 365,-0.00229780,-0.00071187,-0.00039086,0.00112210,0.00044230,-0.00069
 424,-0.00218044,-0.00165814,0.00006486,0.00072004,-0.00004190,-0.00005
 470,-0.00089667,-0.00002987,-0.00016326,0.00006533,0.00006848,-0.00000
 982,-0.00003047,-0.00002027,0.00000064,0.00002755,0.00000580,-0.000038
 08,0.00004783,-0.00000919,-0.00031374,-0.00016235,0.00002709,-0.000047
 95,-0.00003239,-0.00001749,0.00002019,0.00001192,0.00002690,0.00000325
 ,0.00000144,-0.00001960,0.00010521,0.00131778,0.00117007,-0.00262246,0
 .00156023,0.00288126,0.00140117,-0.00197903,-0.00148388,-0.00009250,-0
 .00161913,0.00023502,-0.00046927,0.00237562,-0.00084697,0.00042515,0.0
 0037804,0.00011450,-0.39682826,-0.06946893,-0.19936758,0.00244724,-0.0
 0128920,0.00415023,0.39578953,0.00027139,-0.00089577,-0.00041607,-0.00
 034254,0.00063184,0.00012489,0.00159545,0.00030430,-0.00020780,-0.0023
 4177,0.00032955,-0.00122945,0.00078920,-0.00101067,-0.00003638,-0.0006
 2429,-0.00046947,-0.00007428,0.00050178,-0.00014072,0.00020647,-0.0007
 5214,0.00016591,0.00000391,0.00029283,0.00000499,0.00002485,-0.0000371
 0,0.00001261,-0.00000596,-0.00003609,-0.00000457,0.00000738,-0.0000046
 9,0.00000727,-0.00001358,-0.00026415,0.00001617,0.00004655,0.00013376,
 0.00008695,-0.00001438,0.00007203,0.00001065,0.00000753,0.00002582,-0.
 00002100,-0.00000953,0.00320747,-0.00561479,-0.00100108,0.00029598,0.0
 0107180,0.00084159,-0.00278764,-0.00012017,-0.00017401,-0.00079666,0.0
 0007524,-0.00017872,0.00098290,0.00059539,0.00024044,0.00034877,-0.000
 71738,0.00009198,-0.08766029,-0.03033438,-0.02824537,0.01729394,0.0029
 9885,0.00998012,0.07035791,0.03323880,-0.00022853,0.00004433,-0.000312
 10,-0.00002271,-0.00025304,0.00002530,0.00145067,-0.00065766,0.0000854
 7,-0.00090988,-0.00160304,-0.00037158,0.00023830,0.00024142,0.00006931
 ,-0.00078846,0.00001421,-0.00031772,0.00055398,0.00054518,-0.00034408,
 -0.00070145,0.00045440,-0.00003302,0.00029227,-0.00000770,0.00007772,-
 0.00003414,0.00001294,-0.00000544,-0.00003279,-0.00000338,-0.00001569,
 -0.00005679,-0.00000298,0.00000171,-0.00027507,-0.00017714,0.00005202,
 -0.00006966,-0.00004837,0.00001371,0.00003524,0.00002548,-0.00000593,0
 .00003161,0.00006373,-0.00001373,-0.00065113,-0.00103719,-0.00615370,0
 .00377601,0.00080627,0.00198641,-0.00075756,-0.00014921,-0.00045014,0.
 00022908,-0.00041612,-0.00063097,-0.00055332,0.00057927,0.00029347,0.0
 0007939,0.00013901,0.00052785,-0.15367010,-0.01044253,-0.12624863,-0.0
 4137976,-0.00783990,-0.01956502,0.19227912,0.01955735,0.15153168,-0.00
 063409,0.00328259,0.00024529,0.00087889,-0.00099101,-0.00041833,0.0003
 3714,-0.00243684,-0.00022217,-0.00484352,0.00165777,-0.00426456,0.0024
 9240,-0.00665865,0.00416427,-0.00083658,0.00107858,0.00019375,0.000190
 36,-0.00059213,0.00194138,-0.00035906,0.00092102,0.00018254,0.00027909
 ,-0.00009680,0.00008303,-0.00001151,0.00002828,0.00000441,-0.00002098,
 -0.00000596,-0.00002061,-0.00002574,-0.00002218,0.00000358,0.00034139,
 0.00011965,-0.00009861,0.00002064,0.00001158,-0.00009088,-0.00000584,0
 .00004046,-0.00005011,0.00002039,-0.00003588,0.00003346,0.00011967,0.0
 0013544,-0.00050410,0.00034271,-0.00006073,0.00052499,0.00005945,0.000
 02707,0.00014098,0.00004319,0.00013677,-0.00023477,-0.00002191,-0.0000
 9374,0.00013914,-0.00003236,-0.00008968,0.00013705,0.00429473,-0.00031
 475,0.00273805,-0.00626164,-0.00033006,-0.00365594,-0.00081650,-0.0004
 1632,0.00136205,0.58994121,0.00260233,-0.00422647,-0.00004770,-0.00011
 610,0.00115776,0.00078838,-0.00390786,-0.00017579,0.00025074,-0.001998
 47,0.00149932,-0.00785720,-0.00098335,-0.00901089,0.00665246,0.0017096
 0,0.00135519,0.00002315,-0.00185296,-0.00146398,0.00393650,0.00130561,
 -0.00046283,-0.00007664,-0.00052640,0.00003417,-0.00013576,0.00005881,
 -0.00002157,0.00000504,0.00008802,-0.00000660,0.00000871,0.00005152,0.
 00000500,0.00001137,0.00147593,0.00029440,-0.00014365,-0.00016079,-0.0
 0003960,-0.00005418,-0.00008963,0.00005313,-0.00009178,-0.00008723,-0.
 00004388,0.00008226,-0.00000035,0.00069049,-0.00000834,0.00011606,-0.0
 0062076,-0.00014930,0.00011069,-0.00013610,0.00013624,0.00025359,0.000
 09372,0.00040995,-0.00007188,-0.00022840,-0.00012741,-0.00022370,0.000
 10249,-0.00041937,0.00006513,0.00348369,0.00187061,-0.00081051,-0.0053
 8540,-0.00018158,-0.00031281,-0.00059413,0.00015513,0.11784800,0.50112
 549,-0.00071005,0.00157675,0.00030471,0.00057245,-0.00087037,0.0004715
 3,0.00170439,-0.00190305,-0.00060839,-0.00128900,-0.00198495,0.0004901
 9,0.00126534,0.00333292,0.00097956,-0.00075856,0.00054819,0.00023696,0
 .00107295,0.00056027,-0.00051340,-0.00098849,0.00097731,0.00016744,0.0
 0046976,-0.00003234,0.00000974,-0.00004230,0.00003412,-0.00000999,-0.0
 0007073,-0.00002714,-0.00002615,-0.00003304,-0.00002476,0.00000837,-0.
 00068253,-0.00031799,-0.00002157,-0.00002187,-0.00000550,-0.00004386,0
 .00004934,0.00005347,0.00005068,0.00004188,0.00001718,-0.00003052,-0.0
 0152130,-0.00006329,-0.00077442,0.00083374,-0.00013622,0.00010462,0.00
 008017,0.00018343,0.00018962,-0.00026969,0.00034816,-0.00019755,0.0002
 4119,-0.00028666,0.00021297,0.00013770,-0.00027106,0.00015800,0.001877
 58,0.00212832,-0.01400245,-0.00386017,0.00207490,0.00315700,0.00219082
 ,0.00066674,0.00082349,-0.12451175,0.05727978,0.06462339,0.00107029,-0
 .00246190,-0.00085634,-0.00140667,0.00150231,0.00003950,-0.00140562,0.
 00100616,0.00037384,0.00616468,-0.00149801,0.00536365,-0.00611501,0.00
 333835,-0.00405692,0.00053425,-0.00002333,0.00011783,-0.00003672,0.000
 88577,-0.00286473,0.00047741,-0.00056001,-0.00013388,-0.00022948,0.000
 06716,-0.00009518,0.00002132,-0.00001808,-0.00000347,0.00003407,-0.000
 00381,0.00001394,0.00002351,0.00001218,0.00000006,-0.00057213,-0.00010
 207,0.00016433,0.00001307,-0.00000599,0.00011145,0.00003572,-0.0000515
 0,0.00005524,-0.00000773,0.00004206,-0.00004313,0.00005829,0.00005800,
 0.00024925,-0.00010790,-0.00010308,-0.00020456,-0.00001615,-0.00002302
 ,-0.00004811,0.00001055,-0.00009137,0.00018577,-0.00001301,0.00003306,
 -0.00010117,-0.00000690,0.00009551,-0.00013109,-0.00115214,-0.00032475
 ,0.00100024,0.00184755,0.00043690,-0.00149269,0.00002070,-0.00016016,-
 0.00029275,-0.08885198,-0.10770876,0.00145871,0.10767672,-0.00134174,-
 0.00010097,-0.00007042,-0.00147508,0.00013314,-0.00015177,0.00267429,0
 .00167688,-0.00023580,0.00677132,-0.00470389,0.01371788,-0.00354870,0.
 00555365,-0.00909411,-0.00095864,-0.00149516,-0.00001770,0.00169198,0.
 00259161,-0.00618809,-0.00101849,-0.00000025,-0.00004966,0.00031184,0.
 00002939,0.00007919,-0.00005043,0.00000765,-0.00000782,-0.00006423,-0.
 00000137,-0.00000147,-0.00003540,0.00000525,-0.00000800,-0.00200318,-0
 .00024003,0.00028436,0.00019535,0.00001817,0.00009591,0.00010725,-0.00
 009864,0.00009892,0.00008773,0.00004911,-0.00011767,0.00026273,-0.0003
 3269,0.00013195,-0.00023412,0.00033407,0.00000134,-0.00004098,0.000024
 66,-0.00007396,-0.00018616,-0.00015774,-0.00027028,0.00001208,0.000217
 98,0.00003861,0.00017423,0.00001178,0.00032132,0.00000369,-0.00148450,
 0.00164393,0.00025950,0.00026106,-0.00420580,-0.00022812,0.00003108,-0
 .00009021,-0.15962746,-0.44479032,-0.04258443,0.15117302,0.44193287,0.
 00023483,-0.00070743,-0.00041671,-0.00018532,0.00097251,-0.00088009,-0
 .00186628,0.00039582,0.00030644,-0.00085721,0.00436757,-0.00710700,0.0
 0000223,-0.00556994,0.00124156,0.00089212,0.00031971,-0.00008585,-0.00
 161188,-0.00084491,0.00272412,0.00081777,-0.00043936,-0.00007453,-0.00
 031256,0.00001102,-0.00003728,0.00003839,-0.00001928,0.00000993,0.0000
 5343,0.00001386,0.00001359,0.00002968,0.00000753,-0.00000126,0.0010623
 7,0.00029587,-0.00003449,-0.00007489,-0.00002444,-0.00003152,-0.000059
 09,0.00000033,-0.00007958,-0.00005841,-0.00004068,0.00005927,0.0004084
 1,0.00023816,0.00018452,-0.00013436,-0.00016069,-0.00003466,0.00001850
 ,-0.00007711,-0.00001742,0.00018118,-0.00006049,0.00020442,-0.00009180
 ,-0.00000682,-0.00009841,-0.00012852,0.00010729,-0.00020705,0.00090444
 ,0.00175184,0.00169469,-0.00116069,-0.00512456,-0.00389295,-0.00065349
 ,-0.00029468,-0.00005429,-0.00886916,-0.05468803,-0.01707329,0.0054504
 7,0.04840423,0.02245598,-0.00090840,0.00070630,-0.00017237,0.00000692,
 -0.00032178,0.00003431,0.00135063,0.00195288,-0.00005425,0.00037334,-0
 .00050558,0.00105269,0.00003817,0.00079469,-0.00069347,-0.00081978,-0.
 00130080,0.00021818,0.00014929,0.00024475,-0.00047756,-0.00002072,-0.0
 0060112,-0.00011713,-0.00011766,0.00004556,-0.00001217,-0.00000321,-0.
 00001634,-0.00000086,-0.00001149,0.00001243,0.00000946,0.00000766,0.00
 001470,-0.00000440,-0.00015945,-0.00004603,0.00001651,0.00000727,0.000
 00064,0.00001101,0.00000798,-0.00000834,0.00001303,0.00000393,0.000006
 94,-0.00001234,-0.00019295,-0.00004188,0.00013624,0.00006074,0.0000321
 6,-0.00028287,0.00000106,-0.00000655,-0.00004334,-0.00008417,-0.000039
 38,0.00006384,0.00004082,0.00002589,-0.00003288,0.00006397,-0.00000481
 ,0.00001337,0.00002372,0.00031909,-0.00158310,-0.00047054,-0.00002694,
 0.00218850,0.00025207,0.00005461,0.00009638,-0.49663954,-0.00683449,0.
 12276347,-0.01806669,0.00708772,0.00596986,0.51510704,-0.00017432,0.00
 180301,0.00022127,0.00017877,-0.00102379,-0.00061910,0.00211078,-0.001
 08700,0.00018445,-0.00182285,0.00027959,0.00002148,0.00077967,-0.00151
 903,0.00055413,-0.00087743,-0.00036111,-0.00029652,0.00058298,0.000194
 40,-0.00003280,-0.00071992,0.00051878,0.00009985,0.00037652,-0.0000487
 9,0.00008099,-0.00003188,0.00001745,0.00000037,-0.00004578,0.00000607,
 -0.00000582,-0.00003536,-0.00000785,-0.00000634,-0.00019344,-0.0000610
 2,-0.00000234,0.00003486,0.00000739,0.00000059,0.00002809,0.00000302,-
 0.00000220,0.00002770,0.00000993,-0.00001160,-0.00001595,-0.00044281,-
 0.00000292,-0.00003093,0.00045542,0.00016553,-0.00004577,0.00008889,-0
 .00011223,-0.00010546,-0.00003109,-0.00025006,0.00003287,0.00012191,0.
 00008464,0.00009263,-0.00006981,0.00021588,0.00003529,-0.00038200,-0.0
 0049601,0.00026692,-0.00003164,0.00082463,0.00012597,0.00034165,0.0000
 8975,0.04648501,-0.04268812,-0.02127378,-0.04551467,0.00052721,0.01117
 267,-0.00154431,0.04337933,0.00005309,-0.00123139,-0.00036656,-0.00018
 855,0.00083110,-0.00008130,-0.00070721,0.00277246,0.00045931,0.0012709
 6,0.00009393,-0.00014432,-0.00056811,-0.00008214,-0.00011345,0.0006603
 2,-0.00134716,-0.00006215,-0.00053404,-0.00020351,0.00020764,0.0006655
 1,-0.00111243,-0.00022323,-0.00041446,0.00004545,-0.00002214,0.0000263
 2,-0.00003047,0.00000326,0.00005295,0.00002075,0.00003013,0.00003414,0
 .00002948,-0.00001283,0.00024725,0.00006620,0.00000443,-0.00002857,-0.
 00000716,0.00000720,-0.00002962,-0.00000560,-0.00000675,-0.00002627,-0
 .00000401,0.00001213,0.00034456,-0.00008426,0.00067990,-0.00060752,0.0
 0010320,-0.00056778,-0.00008529,-0.00008557,-0.00014501,0.00007022,-0.
 00018054,0.00022195,-0.00005085,0.00014016,-0.00015291,-0.00002757,0.0
 0011534,-0.00014771,-0.00179858,0.00030377,-0.00048713,0.00371291,-0.0
 0036478,0.00082836,0.00024174,0.00010150,-0.00096608,0.13104701,-0.007
 62938,-0.03868666,-0.00426025,-0.00165046,0.00123186,-0.12910010,0.009
 39553,0.03849983\\0.00001952,0.00001603,-0.00001792,-0.00000457,0.0000
 0206,0.00001018,-0.00000920,-0.00001051,-0.00000549,-0.00000489,0.0000
 0040,0.00001540,0.00000587,0.00000340,-0.00001056,-0.00000043,0.000013
 69,0.00001015,0.00000653,-0.00001099,-0.00001601,0.00000602,0.00001068
 ,-0.00000576,0.00000475,0.00000696,-0.00000076,0.00000612,0.00001319,-
 0.00000787,0.00000276,0.00001312,-0.00000221,0.00000179,0.00000614,-0.
 00000394,-0.00000107,-0.00001016,-0.00000246,0.00000174,-0.00000701,-0
 .00000451,0.00000295,-0.00000821,-0.00001319,0.00000350,-0.00001298,-0
 .00001265,0.00000547,0.00000784,0.00000959,-0.00001943,0.00000164,0.00
 000113,-0.00000995,-0.00001445,0.00001089,-0.00000459,-0.00000625,-0.0
 0000163,0.00000435,-0.00001496,0.00000442,0.00000266,-0.00000430,-0.00
 000602,-0.00000828,-0.00001236,0.00000139,0.00000768,0.00000756,0.0000
 1110,-0.00000523,-0.00000126,0.00000870,-0.00000397,0.00001024,0.00001
 637,-0.00000376,-0.00000769,0.00000011,-0.00000633,0.00000817,0.000011
 54\\\@


 THERE'S A SUCKER BORN EVERY MINUTE

              -- PHINEAS TAYLOR (P.T.) BARNUM
 Job cpu time:       0 days  5 hours 51 minutes 28.8 seconds.
 File lengths (MBytes):  RWF=    776 Int=      0 D2E=      0 Chk=     21 Scr=      1
 Normal termination of Gaussian 09 at Thu Feb 24 23:57:42 2022.
