 Entering Gaussian System, Link 0=g09
 Input=dmad_water.com
 Output=dmad_water.log
 Initial command:
 /apps/applications/gaussian/G09.D01/2/default/g09/l1.exe "/nobackup/pmmass/Temp/Gau-191406.inp" -scrdir="/nobackup/pmmass/Temp/"
 Entering Link 1 = /apps/applications/gaussian/G09.D01/2/default/g09/l1.exe PID=    191407.
  
 Copyright (c) 1988,1990,1992,1993,1995,1998,2003,2009,2013,
            Gaussian, Inc.  All Rights Reserved.
  
 This is part of the Gaussian(R) 09 program.  It is based on
 the Gaussian(R) 03 system (copyright 2003, Gaussian, Inc.),
 the Gaussian(R) 98 system (copyright 1998, Gaussian, Inc.),
 the Gaussian(R) 94 system (copyright 1995, Gaussian, Inc.),
 the Gaussian 92(TM) system (copyright 1992, Gaussian, Inc.),
 the Gaussian 90(TM) system (copyright 1990, Gaussian, Inc.),
 the Gaussian 88(TM) system (copyright 1988, Gaussian, Inc.),
 the Gaussian 86(TM) system (copyright 1986, Carnegie Mellon
 University), and the Gaussian 82(TM) system (copyright 1983,
 Carnegie Mellon University). Gaussian is a federally registered
 trademark of Gaussian, Inc.
  
 This software contains proprietary and confidential information,
 including trade secrets, belonging to Gaussian, Inc.
  
 This software is provided under written license and may be
 used, copied, transmitted, or stored only in accord with that
 written license.
  
 The following legend is applicable only to US Government
 contracts under FAR:
  
                    RESTRICTED RIGHTS LEGEND
  
 Use, reproduction and disclosure by the US Government is
 subject to restrictions as set forth in subparagraphs (a)
 and (c) of the Commercial Computer Software - Restricted
 Rights clause in FAR 52.227-19.
  
 Gaussian, Inc.
 340 Quinnipiac St., Bldg. 40, Wallingford CT 06492
  
  
 ---------------------------------------------------------------
 Warning -- This program may not be used in any manner that
 competes with the business of Gaussian, Inc. or will provide
 assistance to any competitor of Gaussian, Inc.  The licensee
 of this program is prohibited from giving any competitor of
 Gaussian, Inc. access to this program.  By using this program,
 the user acknowledges that Gaussian, Inc. is engaged in the
 business of creating and licensing software in the field of
 computational chemistry and represents and warrants to the
 licensee that it is not a competitor of Gaussian, Inc. and that
 it will not use this program in any manner prohibited above.
 ---------------------------------------------------------------
  

 Cite this work as:
 Gaussian 09, Revision D.01,
 M. J. Frisch, G. W. Trucks, H. B. Schlegel, G. E. Scuseria, 
 M. A. Robb, J. R. Cheeseman, G. Scalmani, V. Barone, B. Mennucci, 
 G. A. Petersson, H. Nakatsuji, M. Caricato, X. Li, H. P. Hratchian, 
 A. F. Izmaylov, J. Bloino, G. Zheng, J. L. Sonnenberg, M. Hada, 
 M. Ehara, K. Toyota, R. Fukuda, J. Hasegawa, M. Ishida, T. Nakajima, 
 Y. Honda, O. Kitao, H. Nakai, T. Vreven, J. A. Montgomery, Jr., 
 J. E. Peralta, F. Ogliaro, M. Bearpark, J. J. Heyd, E. Brothers, 
 K. N. Kudin, V. N. Staroverov, T. Keith, R. Kobayashi, J. Normand, 
 K. Raghavachari, A. Rendell, J. C. Burant, S. S. Iyengar, J. Tomasi, 
 M. Cossi, N. Rega, J. M. Millam, M. Klene, J. E. Knox, J. B. Cross, 
 V. Bakken, C. Adamo, J. Jaramillo, R. Gomperts, R. E. Stratmann, 
 O. Yazyev, A. J. Austin, R. Cammi, C. Pomelli, J. W. Ochterski, 
 R. L. Martin, K. Morokuma, V. G. Zakrzewski, G. A. Voth, 
 P. Salvador, J. J. Dannenberg, S. Dapprich, A. D. Daniels, 
 O. Farkas, J. B. Foresman, J. V. Ortiz, J. Cioslowski, 
 and D. J. Fox, Gaussian, Inc., Wallingford CT, 2013.
 
 ******************************************
 Gaussian 09:  ES64L-G09RevD.01 24-Apr-2013
                23-Feb-2022 
 ******************************************
 %nprocshared=8
 Will use up to    8 processors via shared memory.
 %mem=4GB
 %NoSave
 %chk="dmad_water.chk"
 ------------------------------------------------
 #n wB97XD/Def2TZVP scrf(smd,solvent=toluene) opt
 ------------------------------------------------
 1/14=-1,18=20,19=15,26=3,38=1/1,3;
 2/9=110,12=2,17=6,18=5,40=1/2;
 3/5=44,7=101,11=2,16=1,25=1,30=1,70=32201,71=1,72=13,74=-58/1,2,3;
 4//1;
 5/5=2,38=5,53=13/2;
 6/7=2,8=2,9=2,10=2,28=1/1;
 7//1,2,3,16;
 1/14=-1,18=20,19=15,26=3/3(2);
 2/9=110/2;
 99//99;
 2/9=110/2;
 3/5=44,7=101,11=2,16=1,25=1,30=1,70=32205,71=1,72=13,74=-58/1,2,3;
 4/5=5,16=3,69=1/1;
 5/5=2,38=5,53=13/2;
 7//1,2,3,16;
 1/14=-1,18=20,19=15,26=3/3(-5);
 2/9=110/2;
 6/7=2,8=2,9=2,10=2,19=2,28=1/1;
 99/9=1/99;
 -------------------------------------------
 dmad cycloaddition toluene with water - opt
 -------------------------------------------
 Symbolic Z-matrix:
 Charge =  0 Multiplicity = 1
 N                     0.3111   -0.34314  -1.02676 
 N                    -0.30743  -0.69786  -0.03196 
 C                     1.71965  -0.18641  -0.78337 
 C                    -1.75219  -0.77823  -0.28873 
 O                    -2.30375  -0.36488  -1.26683 
 O                     2.18931   0.90849  -0.62718 
 O                    -2.28106  -1.40813   0.72207 
 O                     2.33788  -1.32662  -0.86835 
 C                     3.75497  -1.3037   -0.61186 
 H                     4.08795  -2.32828  -0.74605 
 H                     4.25346  -0.64321  -1.31966 
 H                     3.92745  -0.97472   0.4114 
 C                    -3.7094   -1.53375   0.71113 
 H                    -4.16423  -0.54458   0.74494 
 H                    -4.03717  -2.06721  -0.1803 
 H                    -3.95967  -2.09658   1.60556 
 O                     1.19196   2.1428    1.72283 
 H                     1.60952   1.99743   0.86139 
 H                     1.54571   2.96362   2.07163 
 O                     1.7064   -0.67344   2.26953 
 H                     1.58591   0.2823    2.34554 
 H                     0.88636  -0.97557   1.865 
 O                    -1.59423   1.75456   0.96167 
 H                    -1.55418   2.14993   0.07801 
 H                    -0.72796   1.93178   1.35201 
 O                    -1.41789   2.3027   -1.87398 
 H                    -1.66744   1.37076  -1.95446 
 H                    -0.51849   2.35005  -2.20499 
 
 Add virtual bond connecting atoms H18        and O6         Dist= 3.65D+00.
 Add virtual bond connecting atoms O26        and H24        Dist= 3.71D+00.
 Add virtual bond connecting atoms H25        and O17        Dist= 3.72D+00.
 Add virtual bond connecting atoms H27        and O5         Dist= 3.73D+00.
 Add virtual bond connecting atoms H21        and O17        Dist= 3.78D+00.

 GradGradGradGradGradGradGradGradGradGradGradGradGradGradGradGradGradGrad
 Berny optimization.
 Initialization pass.
                           ----------------------------
                           !    Initial Parameters    !
                           ! (Angstroms and Degrees)  !
 --------------------------                            --------------------------
 ! Name  Definition              Value          Derivative Info.                !
 --------------------------------------------------------------------------------
 ! R1    R(1,2)                  1.2239         estimate D2E/DX2                !
 ! R2    R(1,3)                  1.438          estimate D2E/DX2                !
 ! R3    R(2,4)                  1.4696         estimate D2E/DX2                !
 ! R4    R(3,6)                  1.2016         estimate D2E/DX2                !
 ! R5    R(3,8)                  1.2998         estimate D2E/DX2                !
 ! R6    R(4,5)                  1.1966         estimate D2E/DX2                !
 ! R7    R(4,7)                  1.3031         estimate D2E/DX2                !
 ! R8    R(5,27)                 1.9724         estimate D2E/DX2                !
 ! R9    R(6,18)                 1.9333         estimate D2E/DX2                !
 ! R10   R(7,13)                 1.4339         estimate D2E/DX2                !
 ! R11   R(8,9)                  1.4403         estimate D2E/DX2                !
 ! R12   R(9,10)                 1.0857         estimate D2E/DX2                !
 ! R13   R(9,11)                 1.0889         estimate D2E/DX2                !
 ! R14   R(9,12)                 1.0886         estimate D2E/DX2                !
 ! R15   R(13,14)                1.0893         estimate D2E/DX2                !
 ! R16   R(13,15)                1.0893         estimate D2E/DX2                !
 ! R17   R(13,16)                1.086          estimate D2E/DX2                !
 ! R18   R(17,18)                0.9683         estimate D2E/DX2                !
 ! R19   R(17,19)                0.9595         estimate D2E/DX2                !
 ! R20   R(17,21)                2.0011         estimate D2E/DX2                !
 ! R21   R(17,25)                1.9668         estimate D2E/DX2                !
 ! R22   R(20,21)                0.9663         estimate D2E/DX2                !
 ! R23   R(20,22)                0.963          estimate D2E/DX2                !
 ! R24   R(23,24)                0.9689         estimate D2E/DX2                !
 ! R25   R(23,25)                0.9665         estimate D2E/DX2                !
 ! R26   R(24,26)                1.9627         estimate D2E/DX2                !
 ! R27   R(26,27)                0.9681         estimate D2E/DX2                !
 ! R28   R(26,28)                0.9595         estimate D2E/DX2                !
 ! A1    A(2,1,3)              112.8942         estimate D2E/DX2                !
 ! A2    A(1,2,4)              111.7561         estimate D2E/DX2                !
 ! A3    A(1,3,6)              120.2773         estimate D2E/DX2                !
 ! A4    A(1,3,8)              111.0522         estimate D2E/DX2                !
 ! A5    A(6,3,8)              128.4567         estimate D2E/DX2                !
 ! A6    A(2,4,5)              125.2464         estimate D2E/DX2                !
 ! A7    A(2,4,7)              106.8514         estimate D2E/DX2                !
 ! A8    A(5,4,7)              127.8757         estimate D2E/DX2                !
 ! A9    A(4,5,27)             116.1206         estimate D2E/DX2                !
 ! A10   A(3,6,18)             119.7427         estimate D2E/DX2                !
 ! A11   A(4,7,13)             116.1483         estimate D2E/DX2                !
 ! A12   A(3,8,9)              116.2549         estimate D2E/DX2                !
 ! A13   A(8,9,10)             105.3513         estimate D2E/DX2                !
 ! A14   A(8,9,11)             110.1397         estimate D2E/DX2                !
 ! A15   A(8,9,12)             109.153          estimate D2E/DX2                !
 ! A16   A(10,9,11)            110.5906         estimate D2E/DX2                !
 ! A17   A(10,9,12)            110.6583         estimate D2E/DX2                !
 ! A18   A(11,9,12)            110.8031         estimate D2E/DX2                !
 ! A19   A(7,13,14)            109.6424         estimate D2E/DX2                !
 ! A20   A(7,13,15)            110.4181         estimate D2E/DX2                !
 ! A21   A(7,13,16)            105.5855         estimate D2E/DX2                !
 ! A22   A(14,13,15)           110.1498         estimate D2E/DX2                !
 ! A23   A(14,13,16)           110.4167         estimate D2E/DX2                !
 ! A24   A(15,13,16)           110.5381         estimate D2E/DX2                !
 ! A25   A(18,17,19)           107.0298         estimate D2E/DX2                !
 ! A26   A(18,17,21)            93.0018         estimate D2E/DX2                !
 ! A27   A(18,17,25)           103.7167         estimate D2E/DX2                !
 ! A28   A(19,17,21)           127.5668         estimate D2E/DX2                !
 ! A29   A(19,17,25)           121.3493         estimate D2E/DX2                !
 ! A30   A(21,17,25)            98.6904         estimate D2E/DX2                !
 ! A31   A(6,18,17)            154.011          estimate D2E/DX2                !
 ! A32   A(21,20,22)           103.7195         estimate D2E/DX2                !
 ! A33   A(17,21,20)           156.8744         estimate D2E/DX2                !
 ! A34   A(24,23,25)           104.8598         estimate D2E/DX2                !
 ! A35   A(23,24,26)           160.3351         estimate D2E/DX2                !
 ! A36   A(24,26,27)            89.4184         estimate D2E/DX2                !
 ! A37   A(24,26,28)           114.3313         estimate D2E/DX2                !
 ! A38   A(27,26,28)           105.0958         estimate D2E/DX2                !
 ! A39   A(5,27,26)            154.3258         estimate D2E/DX2                !
 ! A40   L(17,25,23,1,-1)      167.2185         estimate D2E/DX2                !
 ! A41   L(17,25,23,1,-2)      185.4645         estimate D2E/DX2                !
 ! D1    D(3,1,2,4)            176.843          estimate D2E/DX2                !
 ! D2    D(2,1,3,6)           -101.5891         estimate D2E/DX2                !
 ! D3    D(2,1,3,8)             83.2886         estimate D2E/DX2                !
 ! D4    D(1,2,4,5)            -10.6403         estimate D2E/DX2                !
 ! D5    D(1,2,4,7)            167.6077         estimate D2E/DX2                !
 ! D6    D(1,3,6,18)            61.9871         estimate D2E/DX2                !
 ! D7    D(8,3,6,18)          -123.829          estimate D2E/DX2                !
 ! D8    D(1,3,8,9)           -178.5707         estimate D2E/DX2                !
 ! D9    D(6,3,8,9)              6.81           estimate D2E/DX2                !
 ! D10   D(2,4,5,27)           -40.3962         estimate D2E/DX2                !
 ! D11   D(7,4,5,27)           141.7282         estimate D2E/DX2                !
 ! D12   D(2,4,7,13)           176.6696         estimate D2E/DX2                !
 ! D13   D(5,4,7,13)            -5.1431         estimate D2E/DX2                !
 ! D14   D(4,5,27,26)          -49.8108         estimate D2E/DX2                !
 ! D15   D(3,6,18,17)           17.9034         estimate D2E/DX2                !
 ! D16   D(4,7,13,14)          -62.2565         estimate D2E/DX2                !
 ! D17   D(4,7,13,15)           59.287          estimate D2E/DX2                !
 ! D18   D(4,7,13,16)          178.7903         estimate D2E/DX2                !
 ! D19   D(3,8,9,10)          -179.035          estimate D2E/DX2                !
 ! D20   D(3,8,9,11)           -59.7514         estimate D2E/DX2                !
 ! D21   D(3,8,9,12)            62.1074         estimate D2E/DX2                !
 ! D22   D(19,17,18,6)         157.807          estimate D2E/DX2                !
 ! D23   D(21,17,18,6)          26.9189         estimate D2E/DX2                !
 ! D24   D(25,17,18,6)         -72.7843         estimate D2E/DX2                !
 ! D25   D(18,17,21,20)        -35.2222         estimate D2E/DX2                !
 ! D26   D(19,17,21,20)       -149.4476         estimate D2E/DX2                !
 ! D27   D(25,17,21,20)         69.15           estimate D2E/DX2                !
 ! D28   D(18,17,23,24)        -35.9215         estimate D2E/DX2                !
 ! D29   D(19,17,23,24)         82.011          estimate D2E/DX2                !
 ! D30   D(21,17,23,24)       -130.3646         estimate D2E/DX2                !
 ! D31   D(22,20,21,17)        -53.9048         estimate D2E/DX2                !
 ! D32   D(25,23,24,26)        104.9015         estimate D2E/DX2                !
 ! D33   D(23,24,26,27)         19.0425         estimate D2E/DX2                !
 ! D34   D(23,24,26,28)        -87.2921         estimate D2E/DX2                !
 ! D35   D(24,26,27,5)           8.4909         estimate D2E/DX2                !
 ! D36   D(28,26,27,5)         123.5797         estimate D2E/DX2                !
 --------------------------------------------------------------------------------
 Trust Radius=3.00D-01 FncErr=1.00D-07 GrdErr=1.00D-06
 Number of steps in this run=    115 maximum allowed number of steps=    168.
 GradGradGradGradGradGradGradGradGradGradGradGradGradGradGradGradGradGrad

                          Input orientation:                          
 ---------------------------------------------------------------------
 Center     Atomic      Atomic             Coordinates (Angstroms)
 Number     Number       Type             X           Y           Z
 ---------------------------------------------------------------------
      1          7           0        0.311100   -0.343140   -1.026760
      2          7           0       -0.307430   -0.697860   -0.031960
      3          6           0        1.719650   -0.186410   -0.783370
      4          6           0       -1.752190   -0.778230   -0.288730
      5          8           0       -2.303750   -0.364880   -1.266830
      6          8           0        2.189310    0.908490   -0.627180
      7          8           0       -2.281060   -1.408130    0.722070
      8          8           0        2.337880   -1.326620   -0.868350
      9          6           0        3.754970   -1.303700   -0.611860
     10          1           0        4.087950   -2.328280   -0.746050
     11          1           0        4.253460   -0.643210   -1.319660
     12          1           0        3.927450   -0.974720    0.411400
     13          6           0       -3.709400   -1.533750    0.711130
     14          1           0       -4.164230   -0.544580    0.744940
     15          1           0       -4.037170   -2.067210   -0.180300
     16          1           0       -3.959670   -2.096580    1.605560
     17          8           0        1.191960    2.142800    1.722830
     18          1           0        1.609520    1.997430    0.861390
     19          1           0        1.545710    2.963620    2.071630
     20          8           0        1.706400   -0.673440    2.269530
     21          1           0        1.585910    0.282300    2.345540
     22          1           0        0.886360   -0.975570    1.865000
     23          8           0       -1.594230    1.754560    0.961670
     24          1           0       -1.554180    2.149930    0.078010
     25          1           0       -0.727960    1.931780    1.352010
     26          8           0       -1.417890    2.302700   -1.873980
     27          1           0       -1.667440    1.370760   -1.954460
     28          1           0       -0.518490    2.350050   -2.204990
 ---------------------------------------------------------------------
                    Distance matrix (angstroms):
                    1          2          3          4          5
     1  N    0.000000
     2  N    1.223941   0.000000
     3  C    1.437990   2.221543   0.000000
     4  C    2.234090   1.469599   3.556486   0.000000
     5  O    2.625937   2.370880   4.056271   1.196560   0.000000
     6  O    2.292142   3.027930   1.201575   4.300581   4.713620
     7  O    3.303317   2.228959   4.445743   1.303148   2.246021
     8  O    2.258354   2.844741   1.299811   4.167177   4.756938
     9  C    3.599314   4.148062   2.328150   5.541601   6.165911
    10  H    4.276000   4.742105   3.193406   6.059623   6.706712
    11  H    3.964598   4.739502   2.629918   6.094988   6.563327
    12  H    3.942738   4.267016   2.631214   5.726002   6.481992
    13  C    4.538968   3.581102   5.789943   2.324049   2.693406
    14  H    4.817476   3.937255   6.089668   2.634578   2.746069
    15  H    4.753563   3.975938   6.086220   2.625711   2.661432
    16  H    5.314427   4.239899   6.450613   3.193642   3.740519
    17  O    3.809994   3.660165   3.461895   4.609426   5.238942
    18  H    3.275557   3.425983   2.736151   4.508676   5.042173
    19  H    4.696695   4.611470   4.254876   5.518051   6.086261
    20  O    3.594647   3.058262   3.091532   4.303199   5.355591
    21  H    3.659060   3.193424   3.166647   4.382581   5.347664
    22  H    3.015488   2.258476   2.886349   3.411663   4.511995
    23  O    3.461861   2.942366   4.218333   2.829042   3.156209
    24  H    3.303814   3.110689   4.113201   2.957673   2.948681
    25  H    3.451587   3.001204   3.877805   3.329449   3.823099
    26  O    3.272256   3.691818   4.150814   3.480934   2.875650
    27  H    2.777175   3.134457   3.907507   2.720294   1.972352
    28  H    3.054459   3.749181   3.669319   3.870427   3.382032
                    6          7          8          9         10
     6  O    0.000000
     7  O    5.212620   0.000000
     8  O    2.252988   4.885764   0.000000
     9  C    2.710223   6.182551   1.440297   0.000000
    10  H    3.754417   6.600480   2.020155   1.085655   0.000000
    11  H    2.673578   6.888666   2.083309   1.088908   1.787703
    12  H    2.765187   6.231369   2.070827   1.088595   1.788177
    13  C    6.523066   1.433895   6.253579   7.584197   7.972034
    14  H    6.660450   2.071852   6.744755   8.070372   8.573396
    15  H    6.915457   2.081485   6.454700   7.841342   8.148976
    16  H    7.198995   2.017982   6.809714   8.066057   8.387368
    17  O    2.835626   5.066803   4.479310   4.888574   5.871344
    18  H    1.933336   5.172414   3.817305   4.203675   5.238153
    19  H    3.452732   5.964703   5.260910   5.503814   6.512028
    20  O    3.335661   4.339843   3.266757   3.591138   4.183778
    21  H    3.097300   4.521799   3.671944   3.995802   4.757443
    22  H    3.385014   3.394988   3.114699   3.804133   4.347135
    23  O    4.189923   3.245266   5.320163   6.359473   7.202295
    24  H    4.006518   3.688219   5.303784   6.371072   7.250315
    25  H    3.670801   3.736836   4.994652   5.867008   6.763354
    26  O    4.063277   4.610293   5.318746   6.430983   7.282340
    27  H    4.104861   3.906734   4.949554   6.193371   6.947493
    28  H    3.449603   5.079198   4.843899   5.843835   6.725665
                   11         12         13         14         15
    11  H    0.000000
    12  H    1.792415   0.000000
    13  C    8.265852   7.663148   0.000000
    14  H    8.667745   8.109966   1.089252   0.000000
    15  H    8.488843   8.060944   1.089339   1.786229   0.000000
    16  H    8.838818   8.055511   1.086010   1.786397   1.787782
    17  O    5.137254   4.349906   6.209983   6.071824   6.977814
    18  H    4.326705   3.795914   6.386135   6.309641   7.035021
    19  H    5.642870   4.892808   7.049360   6.831617   7.845316
    20  O    4.401217   2.911439   5.700845   6.066735   6.397879
    21  H    4.626671   3.286914   5.831779   6.025758   6.596900
    22  H    4.646492   3.370635   4.771162   5.191218   5.442066
    23  O    6.719319   6.183908   3.917869   3.455129   4.677390
    24  H    6.594224   6.318453   4.314547   3.810189   4.900636
    25  H    6.211517   5.568243   4.616233   4.278884   5.412094
    26  O    6.414816   6.673612   5.162573   4.744273   5.368919
    27  H    6.286184   6.511633   4.439724   4.145992   4.536838
    28  H    5.702186   6.137261   5.811159   5.511115   5.999389
                   16         17         18         19         20
    16  H    0.000000
    17  O    6.672735   0.000000
    18  H    6.952020   0.968281   0.000000
    19  H    7.492133   0.959451   1.549928   0.000000
    20  O    5.879671   2.914573   3.020892   3.645983   0.000000
    21  H    6.079482   2.001106   2.268244   2.695574   0.966299
    22  H    4.980761   3.136532   3.220081   3.999332   0.963012
    23  O    4.565214   2.914267   3.214507   3.543030   4.301144
    24  H    5.113965   3.201057   3.262811   3.774378   4.837929
    25  H    5.170679   1.966756   2.389316   2.598485   3.681728
    26  O    6.158044   4.446788   4.091534   4.978713   5.982246
    27  H    5.472706   4.721724   4.365798   5.391747   5.779588
    28  H    6.792240   4.289098   3.749060   4.788201   5.840630
                   21         22         23         24         25
    21  H    0.000000
    22  H    1.517408   0.000000
    23  O    3.767749   3.797755   0.000000
    24  H    4.299988   4.349519   0.968905   0.000000
    25  H    3.010296   3.364799   0.966538   1.534049   0.000000
    26  O    5.559602   5.480565   2.893521   1.962697   3.319728
    27  H    5.500821   5.159015   2.942189   2.179649   3.482831
    28  H    5.423229   5.440420   3.396993   2.514914   3.587628
                   26         27         28
    26  O    0.000000
    27  H    0.968124   0.000000
    28  H    0.959547   1.530314   0.000000
 Stoichiometry    C4H14N2O8
 Framework group  C1[X(C4H14N2O8)]
 Deg. of freedom    78
 Full point group                 C1      NOp   1
 Largest Abelian subgroup         C1      NOp   1
 Largest concise Abelian subgroup C1      NOp   1
                         Standard orientation:                         
 ---------------------------------------------------------------------
 Center     Atomic      Atomic             Coordinates (Angstroms)
 Number     Number       Type             X           Y           Z
 ---------------------------------------------------------------------
      1          7           0        0.311099   -0.343140   -1.026761
      2          7           0       -0.307431   -0.697860   -0.031961
      3          6           0        1.719649   -0.186411   -0.783371
      4          6           0       -1.752191   -0.778229   -0.288731
      5          8           0       -2.303751   -0.364879   -1.266831
      6          8           0        2.189310    0.908488   -0.627181
      7          8           0       -2.281061   -1.408129    0.722069
      8          8           0        2.337879   -1.326622   -0.868351
      9          6           0        3.754969   -1.303703   -0.611861
     10          1           0        4.087948   -2.328283   -0.746051
     11          1           0        4.253459   -0.643213   -1.319661
     12          1           0        3.927449   -0.974723    0.411399
     13          6           0       -3.709402   -1.533748    0.711129
     14          1           0       -4.164231   -0.544577    0.744939
     15          1           0       -4.037172   -2.067207   -0.180301
     16          1           0       -3.959672   -2.096577    1.605559
     17          8           0        1.191961    2.142799    1.722829
     18          1           0        1.609521    1.997429    0.861389
     19          1           0        1.545712    2.963619    2.071629
     20          8           0        1.706399   -0.673441    2.269529
     21          1           0        1.585910    0.282299    2.345539
     22          1           0        0.886359   -0.975571    1.864999
     23          8           0       -1.594229    1.754561    0.961669
     24          1           0       -1.554179    2.149931    0.078009
     25          1           0       -0.727959    1.931780    1.352009
     26          8           0       -1.417889    2.302701   -1.873981
     27          1           0       -1.667439    1.370761   -1.954461
     28          1           0       -0.518489    2.350050   -2.204991
 ---------------------------------------------------------------------
 Rotational constants (GHZ):      0.7043673      0.3841680      0.3613256
 Standard basis: def2TZVP (5D, 7F)
 There are   588 symmetry adapted cartesian basis functions of A   symmetry.
 There are   518 symmetry adapted basis functions of A   symmetry.
   518 basis functions,   826 primitive gaussians,   588 cartesian basis functions
    58 alpha electrons       58 beta electrons
       nuclear repulsion energy      1050.7979887659 Hartrees.
 NAtoms=   28 NActive=   28 NUniq=   28 SFac= 1.00D+00 NAtFMM=   60 NAOKFM=F Big=F
 Integral buffers will be    131072 words long.
 Raffenetti 2 integral format.
 Two-electron integral symmetry is turned on.
 Nuclear repulsion after empirical dispersion term =     1050.7813300277 Hartrees.
 ------------------------------------------------------------------------------
 Polarizable Continuum Model (PCM)
 =================================
 Model                : PCM (using non-symmetric T matrix).
 Atomic radii         : SMD-Coulomb.
 Polarization charges : Total charges.
 Charge compensation  : None.
 Solution method      : On-the-fly selection.
 Cavity type          : VdW (van der Waals Surface) (Alpha=1.000).
 Cavity algorithm     : GePol (No added spheres)
                        Default sphere list used, NSphG=   28.
                        Lebedev-Laikov grids with approx.  5.0 points / Ang**2.
                        Smoothing algorithm: Karplus/York (Gamma=1.0000).
                        Polarization charges: spherical gaussians, with
                                              point-specific exponents (IZeta= 3).
                        Self-potential: point-specific (ISelfS= 7).
                        Self-field    : sphere-specific E.n sum rule (ISelfD= 2).
 1st derivatives      : Analytical E(r).r(x)/FMM algorithm (CHGder, D1EAlg=3).
                        Cavity 1st derivative terms included.
 Solvent              : Toluene, Eps=   2.374100 Eps(inf)=   2.238315
 ------------------------------------------------------------------------------
 ------------------------------------------------------------------------------
 Atomic radii for non-electrostatic terms: SMD-CDS.
 ------------------------------------------------------------------------------
 Nuclear repulsion after PCM non-electrostatic terms =     1050.7774593764 Hartrees.
 One-electron integrals computed using PRISM.
   1 Symmetry operations used in ECPInt.
 ECPInt:  NShTT=   22155 NPrTT=   66780 LenC2=   19947 LenP2D=   43224.
 LDataN:  DoStor=T MaxTD1= 6 Len=  172
 NBasis=   518 RedAO= T EigKep=  3.14D-04  NBF=   518
 NBsUse=   518 1.00D-06 EigRej= -1.00D+00 NBFU=   518
 ExpMin= 9.52D-02 ExpMax= 2.70D+04 ExpMxC= 9.22D+02 IAcc=2 IRadAn=         4 AccDes= 0.00D+00
 Harris functional with IExCor= 4639 and IRadAn=       4 diagonalized for initial guess.
 HarFok:  IExCor= 4639 AccDes= 0.00D+00 IRadAn=         4 IDoV= 1 UseB2=F ITyADJ=14
 ICtDFT=  3500011 ScaDFX=  1.000000  1.000000  1.000000  1.000000
 FoFCou: FMM=F IPFlag=           0 FMFlag=      100000 FMFlg1=           0
         NFxFlg=           0 DoJE=T BraDBF=F KetDBF=T FulRan=T
         wScrn=  0.000000 ICntrl=     500 IOpCl=  0 I1Cent=   200000004 NGrid=           0
         NMat0=    1 NMatS0=      1 NMatT0=    0 NMatD0=    1 NMtDS0=    0 NMtDT0=    0
 Petite list used in FoFCou.
 Requested convergence on RMS density matrix=1.00D-08 within 128 cycles.
 Requested convergence on MAX density matrix=1.00D-06.
 Requested convergence on             energy=1.00D-06.
 No special actions if energy rises.
 Inv3:  Mode=1 IEnd=    14918700.
 Iteration    1 A*A^-1 deviation from unit magnitude is 7.88D-15 for   2230.
 Iteration    1 A*A^-1 deviation from orthogonality  is 3.44D-15 for   2230    488.
 Iteration    1 A^-1*A deviation from unit magnitude is 7.88D-15 for   2230.
 Iteration    1 A^-1*A deviation from orthogonality  is 6.48D-13 for    438    379.
 Error on total polarization charges =  0.00824
 SCF Done:  E(RwB97XD) =  -872.247043261     A.U. after   16 cycles
            NFock= 16  Conv=0.42D-08     -V/T= 2.0041
 SMD-CDS (non-electrostatic) energy       (kcal/mol) =      -2.43
 (included in total energy above)

 **********************************************************************

            Population analysis using the SCF density.

 **********************************************************************

 Orbital symmetries:
       Occupied  (A) (A) (A) (A) (A) (A) (A) (A) (A) (A) (A) (A)
                 (A) (A) (A) (A) (A) (A) (A) (A) (A) (A) (A) (A)
                 (A) (A) (A) (A) (A) (A) (A) (A) (A) (A) (A) (A)
                 (A) (A) (A) (A) (A) (A) (A) (A) (A) (A) (A) (A)
                 (A) (A) (A) (A) (A) (A) (A) (A) (A) (A)
       Virtual   (A) (A) (A) (A) (A) (A) (A) (A) (A) (A) (A) (A)
                 (A) (A) (A) (A) (A) (A) (A) (A) (A) (A) (A) (A)
                 (A) (A) (A) (A) (A) (A) (A) (A) (A) (A) (A) (A)
                 (A) (A) (A) (A) (A) (A) (A) (A) (A) (A) (A) (A)
                 (A) (A) (A) (A) (A) (A) (A) (A) (A) (A) (A) (A)
                 (A) (A) (A) (A) (A) (A) (A) (A) (A) (A) (A) (A)
                 (A) (A) (A) (A) (A) (A) (A) (A) (A) (A) (A) (A)
                 (A) (A) (A) (A) (A) (A) (A) (A) (A) (A) (A) (A)
                 (A) (A) (A) (A) (A) (A) (A) (A) (A) (A) (A) (A)
                 (A) (A) (A) (A) (A) (A) (A) (A) (A) (A) (A) (A)
                 (A) (A) (A) (A) (A) (A) (A) (A) (A) (A) (A) (A)
                 (A) (A) (A) (A) (A) (A) (A) (A) (A) (A) (A) (A)
                 (A) (A) (A) (A) (A) (A) (A) (A) (A) (A) (A) (A)
                 (A) (A) (A) (A) (A) (A) (A) (A) (A) (A) (A) (A)
                 (A) (A) (A) (A) (A) (A) (A) (A) (A) (A) (A) (A)
                 (A) (A) (A) (A) (A) (A) (A) (A) (A) (A) (A) (A)
                 (A) (A) (A) (A) (A) (A) (A) (A) (A) (A) (A) (A)
                 (A) (A) (A) (A) (A) (A) (A) (A) (A) (A) (A) (A)
                 (A) (A) (A) (A) (A) (A) (A) (A) (A) (A) (A) (A)
                 (A) (A) (A) (A) (A) (A) (A) (A) (A) (A) (A) (A)
                 (A) (A) (A) (A) (A) (A) (A) (A) (A) (A) (A) (A)
                 (A) (A) (A) (A) (A) (A) (A) (A) (A) (A) (A) (A)
                 (A) (A) (A) (A) (A) (A) (A) (A) (A) (A) (A) (A)
                 (A) (A) (A) (A) (A) (A) (A) (A) (A) (A) (A) (A)
                 (A) (A) (A) (A) (A) (A) (A) (A) (A) (A) (A) (A)
                 (A) (A) (A) (A) (A) (A) (A) (A) (A) (A) (A) (A)
                 (A) (A) (A) (A) (A) (A) (A) (A) (A) (A) (A) (A)
                 (A) (A) (A) (A) (A) (A) (A) (A) (A) (A) (A) (A)
                 (A) (A) (A) (A) (A) (A) (A) (A) (A) (A) (A) (A)
                 (A) (A) (A) (A) (A) (A) (A) (A) (A) (A) (A) (A)
                 (A) (A) (A) (A) (A) (A) (A) (A) (A) (A) (A) (A)
                 (A) (A) (A) (A) (A) (A) (A) (A) (A) (A) (A) (A)
                 (A) (A) (A) (A) (A) (A) (A) (A) (A) (A) (A) (A)
                 (A) (A) (A) (A) (A) (A) (A) (A) (A) (A) (A) (A)
                 (A) (A) (A) (A) (A) (A) (A) (A) (A) (A) (A) (A)
                 (A) (A) (A) (A) (A) (A) (A) (A) (A) (A) (A) (A)
                 (A) (A) (A) (A) (A) (A) (A) (A) (A) (A) (A) (A)
                 (A) (A) (A) (A) (A) (A) (A) (A) (A) (A) (A) (A)
                 (A) (A) (A) (A)
 The electronic state is 1-A.
 Alpha  occ. eigenvalues --  -19.33531 -19.32696 -19.27641 -19.26903 -19.26732
 Alpha  occ. eigenvalues --  -19.24595 -19.22503 -19.21653 -14.54170 -14.53898
 Alpha  occ. eigenvalues --  -10.47293 -10.46194 -10.34946 -10.34489  -1.27126
 Alpha  occ. eigenvalues --   -1.25542  -1.19092  -1.16836  -1.15506  -1.13256
 Alpha  occ. eigenvalues --   -1.11013  -1.08868  -1.07905  -0.92228  -0.85929
 Alpha  occ. eigenvalues --   -0.81327  -0.71294  -0.67801  -0.66067  -0.65004
 Alpha  occ. eigenvalues --   -0.63381  -0.62208  -0.61694  -0.60525  -0.59813
 Alpha  occ. eigenvalues --   -0.59396  -0.58841  -0.57570  -0.54782  -0.54162
 Alpha  occ. eigenvalues --   -0.53216  -0.51086  -0.50203  -0.48842  -0.47903
 Alpha  occ. eigenvalues --   -0.47592  -0.46842  -0.46387  -0.45150  -0.42903
 Alpha  occ. eigenvalues --   -0.42523  -0.41915  -0.41642  -0.41504  -0.40038
 Alpha  occ. eigenvalues --   -0.38341  -0.37540  -0.35691
 Alpha virt. eigenvalues --   -0.04184   0.06096   0.09467   0.10856   0.12704
 Alpha virt. eigenvalues --    0.13438   0.13724   0.15003   0.15313   0.17627
 Alpha virt. eigenvalues --    0.18612   0.18854   0.19707   0.20710   0.21460
 Alpha virt. eigenvalues --    0.22071   0.22398   0.24349   0.24857   0.25795
 Alpha virt. eigenvalues --    0.27353   0.28588   0.28985   0.29685   0.30077
 Alpha virt. eigenvalues --    0.30524   0.31856   0.32730   0.33678   0.35800
 Alpha virt. eigenvalues --    0.36256   0.37039   0.38123   0.39724   0.40361
 Alpha virt. eigenvalues --    0.40446   0.40982   0.41581   0.42364   0.43096
 Alpha virt. eigenvalues --    0.43992   0.45694   0.46203   0.46533   0.47217
 Alpha virt. eigenvalues --    0.47432   0.48097   0.48843   0.49874   0.51081
 Alpha virt. eigenvalues --    0.51935   0.52088   0.52490   0.52891   0.53945
 Alpha virt. eigenvalues --    0.54056   0.55083   0.56083   0.57260   0.57441
 Alpha virt. eigenvalues --    0.57986   0.59224   0.60432   0.60870   0.61169
 Alpha virt. eigenvalues --    0.62724   0.63585   0.63883   0.64435   0.66232
 Alpha virt. eigenvalues --    0.66622   0.68751   0.69919   0.71631   0.72148
 Alpha virt. eigenvalues --    0.72993   0.73443   0.73931   0.74872   0.77339
 Alpha virt. eigenvalues --    0.77976   0.78810   0.80132   0.81314   0.82368
 Alpha virt. eigenvalues --    0.82591   0.83598   0.85079   0.85352   0.85619
 Alpha virt. eigenvalues --    0.87316   0.89575   0.90374   0.91327   0.92406
 Alpha virt. eigenvalues --    0.92875   0.95099   0.96887   0.97611   0.98317
 Alpha virt. eigenvalues --    1.00019   1.01657   1.03131   1.04252   1.05100
 Alpha virt. eigenvalues --    1.07341   1.08081   1.11852   1.12371   1.13304
 Alpha virt. eigenvalues --    1.15160   1.18870   1.21603   1.24544   1.24701
 Alpha virt. eigenvalues --    1.26731   1.27334   1.28846   1.30558   1.32953
 Alpha virt. eigenvalues --    1.34185   1.34746   1.36147   1.37653   1.38882
 Alpha virt. eigenvalues --    1.40153   1.41482   1.43759   1.45292   1.48270
 Alpha virt. eigenvalues --    1.49014   1.49276   1.50330   1.52211   1.52723
 Alpha virt. eigenvalues --    1.54925   1.56502   1.56968   1.58258   1.59124
 Alpha virt. eigenvalues --    1.59342   1.60953   1.61202   1.62053   1.62622
 Alpha virt. eigenvalues --    1.65146   1.66537   1.67457   1.69087   1.70990
 Alpha virt. eigenvalues --    1.71404   1.71688   1.73185   1.74305   1.75438
 Alpha virt. eigenvalues --    1.77530   1.79220   1.79907   1.81037   1.82167
 Alpha virt. eigenvalues --    1.83305   1.84102   1.85972   1.87760   1.88424
 Alpha virt. eigenvalues --    1.89756   1.91625   1.92758   1.94630   1.95228
 Alpha virt. eigenvalues --    1.97260   1.97958   1.99592   2.01564   2.02049
 Alpha virt. eigenvalues --    2.02895   2.03781   2.06637   2.08000   2.08895
 Alpha virt. eigenvalues --    2.11502   2.12206   2.12558   2.13005   2.14128
 Alpha virt. eigenvalues --    2.15370   2.16549   2.17335   2.17849   2.18416
 Alpha virt. eigenvalues --    2.18873   2.19884   2.20850   2.21605   2.23120
 Alpha virt. eigenvalues --    2.24784   2.25506   2.26856   2.29080   2.30212
 Alpha virt. eigenvalues --    2.31197   2.32878   2.33432   2.35252   2.36944
 Alpha virt. eigenvalues --    2.37227   2.39435   2.39563   2.40781   2.41461
 Alpha virt. eigenvalues --    2.43084   2.43479   2.44558   2.46781   2.47170
 Alpha virt. eigenvalues --    2.48041   2.48620   2.49788   2.50909   2.52025
 Alpha virt. eigenvalues --    2.52758   2.55496   2.56343   2.60714   2.60930
 Alpha virt. eigenvalues --    2.61237   2.63808   2.64379   2.65695   2.66200
 Alpha virt. eigenvalues --    2.68864   2.69938   2.72115   2.72505   2.73446
 Alpha virt. eigenvalues --    2.74047   2.75492   2.77411   2.78983   2.79665
 Alpha virt. eigenvalues --    2.80468   2.81987   2.83813   2.84130   2.86533
 Alpha virt. eigenvalues --    2.86704   2.86863   2.88639   2.89842   2.91219
 Alpha virt. eigenvalues --    2.91543   2.93021   2.95536   2.98722   3.00055
 Alpha virt. eigenvalues --    3.01318   3.01959   3.03661   3.06207   3.09652
 Alpha virt. eigenvalues --    3.12491   3.14047   3.14275   3.15652   3.16636
 Alpha virt. eigenvalues --    3.17894   3.19198   3.20893   3.22498   3.23428
 Alpha virt. eigenvalues --    3.25080   3.26919   3.28837   3.30960   3.31307
 Alpha virt. eigenvalues --    3.33054   3.33464   3.35808   3.37436   3.38823
 Alpha virt. eigenvalues --    3.40690   3.41191   3.42229   3.43633   3.45356
 Alpha virt. eigenvalues --    3.47427   3.47801   3.49489   3.51890   3.53895
 Alpha virt. eigenvalues --    3.55774   3.59510   3.61237   3.64067   3.65662
 Alpha virt. eigenvalues --    3.66214   3.66922   3.68525   3.70407   3.71716
 Alpha virt. eigenvalues --    3.75022   3.76463   3.79552   3.80721   3.82806
 Alpha virt. eigenvalues --    3.85279   3.87017   3.90289   3.93404   3.97595
 Alpha virt. eigenvalues --    4.02932   4.03837   4.05260   4.06388   4.07776
 Alpha virt. eigenvalues --    4.14640   4.15418   4.21819   4.24401   4.24754
 Alpha virt. eigenvalues --    4.29508   4.35158   4.38794   4.39130   4.45956
 Alpha virt. eigenvalues --    4.46783   4.50211   4.51695   4.59260   4.62702
 Alpha virt. eigenvalues --    4.63957   4.70162   4.78108   4.82350   4.86032
 Alpha virt. eigenvalues --    4.89271   4.94853   4.96122   4.99504   5.01521
 Alpha virt. eigenvalues --    5.07170   5.09110   5.15179   5.17116   5.19056
 Alpha virt. eigenvalues --    5.20787   5.21581   5.21956   5.24744   5.25156
 Alpha virt. eigenvalues --    5.26563   5.27133   5.29795   5.31993   5.32467
 Alpha virt. eigenvalues --    5.33471   5.38693   5.39054   5.43418   5.46164
 Alpha virt. eigenvalues --    5.47189   5.47620   5.49240   5.50585   5.51332
 Alpha virt. eigenvalues --    5.51964   5.53769   5.54743   5.55255   5.56030
 Alpha virt. eigenvalues --    5.56699   5.58125   5.58839   5.59562   5.59941
 Alpha virt. eigenvalues --    5.65585   5.73346   5.74666   5.75599   5.77784
 Alpha virt. eigenvalues --    5.89844   5.91313   5.96040   5.98829   6.07820
 Alpha virt. eigenvalues --    6.09901   6.12041   6.12916   6.13590   6.15732
 Alpha virt. eigenvalues --    6.16823   6.20244   6.21882   6.27739   6.30293
 Alpha virt. eigenvalues --    6.30802   6.31985   6.33527   6.34952   6.37472
 Alpha virt. eigenvalues --    6.42737   6.44143   6.44876   6.46190   6.47314
 Alpha virt. eigenvalues --    6.48257   6.48503   6.49716   6.49994   6.51466
 Alpha virt. eigenvalues --    6.53299   6.54003   6.54394   6.55742   6.57133
 Alpha virt. eigenvalues --    6.58629   6.59320   6.60236   6.64671   6.71553
 Alpha virt. eigenvalues --    6.72233   6.73222   6.74210   6.82574   6.84539
 Alpha virt. eigenvalues --    6.91735   6.96765   6.97969   6.98774   6.99783
 Alpha virt. eigenvalues --    7.01211   7.02560   7.04626   7.07084   7.08633
 Alpha virt. eigenvalues --    7.09395   7.11220   7.13228   7.18579   7.22154
 Alpha virt. eigenvalues --    7.23134   7.25230   7.39480   7.46166   7.48013
 Alpha virt. eigenvalues --    7.50873  22.40414  22.42579  23.44377  23.57571
 Alpha virt. eigenvalues --   32.36808  32.47781  43.54228  43.56042  43.59816
 Alpha virt. eigenvalues --   43.67034  44.00245  44.01683  44.24060  44.25457
          Condensed to atoms (all electrons):
               1          2          3          4          5          6
     1  N    6.681413   0.304871   0.306162  -0.066326   0.002455  -0.062122
     2  N    0.304871   6.670434  -0.027665   0.319910  -0.071059  -0.005893
     3  C    0.306162  -0.027665   4.402564  -0.006259   0.000692   0.541540
     4  C   -0.066326   0.319910  -0.006259   4.354759   0.558165  -0.000908
     5  O    0.002455  -0.071059   0.000692   0.558165   7.958836   0.000065
     6  O   -0.062122  -0.005893   0.541540  -0.000908   0.000065   7.994580
     7  O    0.002758  -0.091386  -0.000507   0.407174  -0.070048   0.000003
     8  O   -0.073769  -0.004848   0.394851   0.000576  -0.000006  -0.069320
     9  C    0.004584  -0.000025  -0.072033   0.000068   0.000001   0.001116
    10  H    0.000252   0.000043   0.004010   0.000006   0.000000   0.001035
    11  H   -0.000344   0.000043  -0.008272   0.000007   0.000000   0.004951
    12  H   -0.000333  -0.000246   0.002861  -0.000037   0.000000   0.002899
    13  C   -0.000256   0.004008  -0.000019  -0.044777   0.001395  -0.000001
    14  H   -0.000081  -0.000422  -0.000015  -0.004884   0.003756   0.000000
    15  H    0.000022  -0.000242  -0.000011  -0.010054   0.004884   0.000000
    16  H    0.000009   0.000487   0.000003   0.004375   0.001174   0.000000
    17  O   -0.000535  -0.000466   0.003440  -0.000106  -0.000001  -0.016602
    18  H    0.001373   0.000386  -0.010354   0.000006   0.000002   0.022340
    19  H   -0.000017   0.000052  -0.000213   0.000004   0.000000   0.000699
    20  O   -0.007010  -0.010557   0.053242   0.001313  -0.000011  -0.006656
    21  H    0.000742   0.001299  -0.003511   0.000094   0.000004   0.000502
    22  H   -0.000287   0.014629  -0.007883   0.000683   0.000080   0.000845
    23  O   -0.003118   0.002689   0.000447   0.016751  -0.005139   0.000070
    24  H    0.001229  -0.000685   0.000234  -0.002222   0.000225   0.000077
    25  H    0.000689  -0.000257   0.000539  -0.002432   0.000151   0.000147
    26  O    0.003352  -0.005141   0.003511   0.006421  -0.016453  -0.000492
    27  H    0.002689   0.000257  -0.000163  -0.006636   0.022292  -0.000028
    28  H    0.001748  -0.000525   0.001316  -0.000549   0.000777   0.001619
               7          8          9         10         11         12
     1  N    0.002758  -0.073769   0.004584   0.000252  -0.000344  -0.000333
     2  N   -0.091386  -0.004848  -0.000025   0.000043   0.000043  -0.000246
     3  C   -0.000507   0.394851  -0.072033   0.004010  -0.008272   0.002861
     4  C    0.407174   0.000576   0.000068   0.000006   0.000007  -0.000037
     5  O   -0.070048  -0.000006   0.000001   0.000000   0.000000   0.000000
     6  O    0.000003  -0.069320   0.001116   0.001035   0.004951   0.002899
     7  O    7.857380  -0.000006  -0.000003   0.000000   0.000000   0.000000
     8  O   -0.000006   7.858093   0.218817  -0.025960  -0.030866  -0.034500
     9  C   -0.000003   0.218817   4.842286   0.397034   0.411983   0.407239
    10  H    0.000000  -0.025960   0.397034   0.501792  -0.020576  -0.016287
    11  H    0.000000  -0.030866   0.411983  -0.020576   0.520950  -0.030645
    12  H    0.000000  -0.034500   0.407239  -0.016287  -0.030645   0.494134
    13  C    0.215828   0.000000   0.000000   0.000000   0.000000   0.000000
    14  H   -0.032834   0.000000   0.000000   0.000000   0.000000   0.000000
    15  H   -0.030773   0.000000   0.000000   0.000000   0.000000   0.000000
    16  H   -0.026412   0.000000   0.000000   0.000000   0.000000   0.000000
    17  O   -0.000010  -0.000099  -0.000408  -0.000001   0.000023   0.000233
    18  H    0.000001   0.000383   0.000374   0.000005  -0.000013  -0.000035
    19  H    0.000000  -0.000003  -0.000003   0.000000  -0.000003   0.000007
    20  O   -0.000137  -0.006896  -0.013651  -0.000166   0.000608   0.010167
    21  H   -0.000063   0.000387   0.000547   0.000003  -0.000035  -0.000551
    22  H    0.001869   0.001876   0.001096   0.000020  -0.000032  -0.000880
    23  O   -0.000351   0.000011   0.000020   0.000000   0.000000  -0.000001
    24  H    0.000112  -0.000006  -0.000005   0.000000   0.000000   0.000000
    25  H    0.000111   0.000007   0.000012   0.000000  -0.000001  -0.000002
    26  O   -0.000044   0.000025   0.000016   0.000000  -0.000001   0.000000
    27  H    0.000343  -0.000004  -0.000004   0.000000   0.000000   0.000000
    28  H    0.000000   0.000033   0.000012   0.000000   0.000001  -0.000002
              13         14         15         16         17         18
     1  N   -0.000256  -0.000081   0.000022   0.000009  -0.000535   0.001373
     2  N    0.004008  -0.000422  -0.000242   0.000487  -0.000466   0.000386
     3  C   -0.000019  -0.000015  -0.000011   0.000003   0.003440  -0.010354
     4  C   -0.044777  -0.004884  -0.010054   0.004375  -0.000106   0.000006
     5  O    0.001395   0.003756   0.004884   0.001174  -0.000001   0.000002
     6  O   -0.000001   0.000000   0.000000   0.000000  -0.016602   0.022340
     7  O    0.215828  -0.032834  -0.030773  -0.026412  -0.000010   0.000001
     8  O    0.000000   0.000000   0.000000   0.000000  -0.000099   0.000383
     9  C    0.000000   0.000000   0.000000   0.000000  -0.000408   0.000374
    10  H    0.000000   0.000000   0.000000   0.000000  -0.000001   0.000005
    11  H    0.000000   0.000000   0.000000   0.000000   0.000023  -0.000013
    12  H    0.000000   0.000000   0.000000   0.000000   0.000233  -0.000035
    13  C    4.806432   0.416775   0.415002   0.396236  -0.000001   0.000004
    14  H    0.416775   0.500501  -0.031994  -0.017323   0.000002   0.000000
    15  H    0.415002  -0.031994   0.524796  -0.021528   0.000000   0.000000
    16  H    0.396236  -0.017323  -0.021528   0.506895   0.000000   0.000000
    17  O   -0.000001   0.000002   0.000000   0.000000   8.124489   0.286896
    18  H    0.000004   0.000000   0.000000   0.000000   0.286896   0.352886
    19  H    0.000000   0.000000   0.000000   0.000000   0.305967  -0.009434
    20  O    0.000001   0.000000   0.000000   0.000002  -0.015816   0.000572
    21  H   -0.000001   0.000000   0.000000   0.000000   0.020697  -0.003610
    22  H    0.000017   0.000000   0.000006  -0.000012   0.000614   0.000310
    23  O    0.001336   0.001885   0.000108  -0.000061  -0.015021   0.002534
    24  H   -0.000101  -0.000159  -0.000005   0.000001   0.002386   0.000103
    25  H   -0.000090  -0.000048   0.000003   0.000004   0.014041  -0.001933
    26  O    0.000079   0.000000   0.000011   0.000000  -0.000161   0.000590
    27  H    0.000065  -0.000012  -0.000004   0.000000   0.000002  -0.000083
    28  H   -0.000002   0.000001  -0.000002   0.000000   0.000064   0.000109
              19         20         21         22         23         24
     1  N   -0.000017  -0.007010   0.000742  -0.000287  -0.003118   0.001229
     2  N    0.000052  -0.010557   0.001299   0.014629   0.002689  -0.000685
     3  C   -0.000213   0.053242  -0.003511  -0.007883   0.000447   0.000234
     4  C    0.000004   0.001313   0.000094   0.000683   0.016751  -0.002222
     5  O    0.000000  -0.000011   0.000004   0.000080  -0.005139   0.000225
     6  O    0.000699  -0.006656   0.000502   0.000845   0.000070   0.000077
     7  O    0.000000  -0.000137  -0.000063   0.001869  -0.000351   0.000112
     8  O   -0.000003  -0.006896   0.000387   0.001876   0.000011  -0.000006
     9  C   -0.000003  -0.013651   0.000547   0.001096   0.000020  -0.000005
    10  H    0.000000  -0.000166   0.000003   0.000020   0.000000   0.000000
    11  H   -0.000003   0.000608  -0.000035  -0.000032   0.000000   0.000000
    12  H    0.000007   0.010167  -0.000551  -0.000880  -0.000001   0.000000
    13  C    0.000000   0.000001  -0.000001   0.000017   0.001336  -0.000101
    14  H    0.000000   0.000000   0.000000   0.000000   0.001885  -0.000159
    15  H    0.000000   0.000000   0.000000   0.000006   0.000108  -0.000005
    16  H    0.000000   0.000002   0.000000  -0.000012  -0.000061   0.000001
    17  O    0.305967  -0.015816   0.020697   0.000614  -0.015021   0.002386
    18  H   -0.009434   0.000572  -0.003610   0.000310   0.002534   0.000103
    19  H    0.339538   0.000676  -0.000333  -0.000020   0.000518  -0.000067
    20  O    0.000676   8.017311   0.323063   0.321969  -0.000088  -0.000033
    21  H   -0.000333   0.323063   0.345440  -0.028193  -0.000137  -0.000028
    22  H   -0.000020   0.321969  -0.028193   0.352529   0.000532  -0.000041
    23  O    0.000518  -0.000088  -0.000137   0.000532   8.080828   0.305543
    24  H   -0.000067  -0.000033  -0.000028  -0.000041   0.305543   0.357939
    25  H   -0.000596   0.000351   0.000501   0.000093   0.322533  -0.023074
    26  O   -0.000023   0.000000   0.000000  -0.000003  -0.018780   0.025598
    27  H    0.000002  -0.000001   0.000003   0.000003   0.001316  -0.005649
    28  H    0.000002  -0.000001  -0.000001   0.000001   0.001014  -0.002068
              25         26         27         28
     1  N    0.000689   0.003352   0.002689   0.001748
     2  N   -0.000257  -0.005141   0.000257  -0.000525
     3  C    0.000539   0.003511  -0.000163   0.001316
     4  C   -0.002432   0.006421  -0.006636  -0.000549
     5  O    0.000151  -0.016453   0.022292   0.000777
     6  O    0.000147  -0.000492  -0.000028   0.001619
     7  O    0.000111  -0.000044   0.000343   0.000000
     8  O    0.000007   0.000025  -0.000004   0.000033
     9  C    0.000012   0.000016  -0.000004   0.000012
    10  H    0.000000   0.000000   0.000000   0.000000
    11  H   -0.000001  -0.000001   0.000000   0.000001
    12  H   -0.000002   0.000000   0.000000  -0.000002
    13  C   -0.000090   0.000079   0.000065  -0.000002
    14  H   -0.000048   0.000000  -0.000012   0.000001
    15  H    0.000003   0.000011  -0.000004  -0.000002
    16  H    0.000004   0.000000   0.000000   0.000000
    17  O    0.014041  -0.000161   0.000002   0.000064
    18  H   -0.001933   0.000590  -0.000083   0.000109
    19  H   -0.000596  -0.000023   0.000002   0.000002
    20  O    0.000351   0.000000  -0.000001  -0.000001
    21  H    0.000501   0.000000   0.000003  -0.000001
    22  H    0.000093  -0.000003   0.000003   0.000001
    23  O    0.322533  -0.018780   0.001316   0.001014
    24  H   -0.023074   0.025598  -0.005649  -0.002068
    25  H    0.340348   0.001628   0.000003  -0.000067
    26  O    0.001628   8.074170   0.301765   0.307029
    27  H    0.000003   0.301765   0.349526  -0.017565
    28  H   -0.000067   0.307029  -0.017565   0.362569
 Mulliken charges:
               1
     1  N   -0.100149
     2  N   -0.099690
     3  C    0.421493
     4  C    0.474877
     5  O   -0.392238
     6  O   -0.410464
     7  O   -0.233007
     8  O   -0.228776
     9  C   -0.199073
    10  H    0.158789
    11  H    0.152224
    12  H    0.165978
    13  C   -0.211930
    14  H    0.164853
    15  H    0.149779
    16  H    0.156148
    17  O   -0.709624
    18  H    0.356589
    19  H    0.363249
    20  O   -0.668251
    21  H    0.343180
    22  H    0.340181
    23  O   -0.695441
    24  H    0.340695
    25  H    0.347339
    26  O   -0.683098
    27  H    0.351882
    28  H    0.344487
 Sum of Mulliken charges =   0.00000
 Mulliken charges with hydrogens summed into heavy atoms:
               1
     1  N   -0.100149
     2  N   -0.099690
     3  C    0.421493
     4  C    0.474877
     5  O   -0.392238
     6  O   -0.410464
     7  O   -0.233007
     8  O   -0.228776
     9  C    0.277918
    13  C    0.258850
    17  O    0.010213
    20  O    0.015109
    23  O   -0.007407
    26  O    0.013271
 Electronic spatial extent (au):  <R**2>=           3573.1517
 Charge=              0.0000 electrons
 Dipole moment (field-independent basis, Debye):
    X=              2.8012    Y=             -1.7760    Z=             -1.1735  Tot=              3.5182
 Quadrupole moment (field-independent basis, Debye-Ang):
   XX=            -66.0293   YY=            -77.1640   ZZ=            -89.8174
   XY=             14.4275   XZ=             -9.9178   YZ=              6.8511
 Traceless Quadrupole moment (field-independent basis, Debye-Ang):
   XX=             11.6409   YY=              0.5062   ZZ=            -12.1472
   XY=             14.4275   XZ=             -9.9178   YZ=              6.8511
 Octapole moment (field-independent basis, Debye-Ang**2):
  XXX=             12.9747  YYY=             19.4632  ZZZ=             -8.1532  XYY=             29.1863
  XXY=            -50.7885  XXZ=              5.0525  XZZ=              6.0214  YZZ=             18.9832
  YYZ=             20.4181  XYZ=             22.8518
 Hexadecapole moment (field-independent basis, Debye-Ang**3):
 XXXX=          -2040.1921 YYYY=           -907.4990 ZZZZ=           -827.1550 XXXY=             47.8164
 XXXZ=           -111.7430 YYYX=            114.9432 YYYZ=             84.1438 ZZZX=            -40.2453
 ZZZY=             43.0644 XXYY=           -514.3763 XXZZ=           -575.8706 YYZZ=           -275.6460
 XXYZ=             34.5212 YYXZ=              6.2604 ZZXY=             73.4095
 N-N= 1.050777459376D+03 E-N=-4.153748415946D+03  KE= 8.687204250525D+02
   1 Symmetry operations used in ECPInt.
 ECPInt:  NShTT=   22155 NPrTT=   66780 LenC2=   19947 LenP2D=   43224.
 LDataN:  DoStor=T MaxTD1= 7 Len=  274
 D1PCM: PCM CHGder 1st derivatives, ID1Alg=3 FixD1E=F DoIter=F DoCFld=F I1PDM=0.
 Calling FoFJK, ICntrl=      2127 FMM=F ISym2X=0 I1Cent= 0 IOpClX= 0 NMat=1 NMatS=1 NMatT=0.
 ***** Axes restored to original set *****
 -------------------------------------------------------------------
 Center     Atomic                   Forces (Hartrees/Bohr)
 Number     Number              X              Y              Z
 -------------------------------------------------------------------
      1        7           0.000091494    0.000212178   -0.000344484
      2        7          -0.000111139   -0.000049602    0.000394014
      3        6          -0.000166248    0.000117575    0.000424215
      4        6           0.000032741    0.000467747   -0.000105147
      5        8          -0.000001466   -0.000136031    0.000042817
      6        8           0.000086594   -0.000049192   -0.000106798
      7        8          -0.000030004   -0.000137091    0.000151146
      8        8           0.000036393   -0.000119703   -0.000101550
      9        6          -0.000133691    0.000114640    0.000061628
     10        1          -0.000034952   -0.000042168   -0.000017083
     11        1          -0.000001080    0.000014368    0.000009601
     12        1          -0.000030250    0.000042062   -0.000034325
     13        6           0.000118297    0.000141362   -0.000103204
     14        1           0.000020871   -0.000002436   -0.000014951
     15        1          -0.000007821    0.000014178   -0.000005539
     16        1           0.000022539   -0.000020679    0.000043644
     17        8           0.000124033    0.000135602   -0.000161064
     18        1          -0.000248023   -0.000082182    0.000176681
     19        1          -0.000068647   -0.000298194   -0.000136025
     20        8          -0.000174199    0.000049779   -0.000025783
     21        1          -0.000014497   -0.000137173   -0.000211528
     22        1           0.000280614    0.000199125   -0.000029269
     23        8           0.000250304    0.000077805   -0.000143427
     24        1          -0.000075367   -0.000219665    0.000093716
     25        1          -0.000112314   -0.000150987   -0.000071261
     26        8           0.000295699   -0.000089010   -0.000057024
     27        1           0.000075145    0.000170097    0.000087635
     28        1          -0.000225027   -0.000222403    0.000183361
 -------------------------------------------------------------------
 Cartesian Forces:  Max     0.000467747 RMS     0.000152372

 GradGradGradGradGradGradGradGradGradGradGradGradGradGradGradGradGradGrad
 Berny optimization.
 FormGI is forming the generalized inverse of G from B-inverse, IUseBI=4.
 Internal  Forces:  Max     0.001162052 RMS     0.000288133
 Search for a local minimum.
 Step number   1 out of a maximum of  115
 All quantities printed in internal units (Hartrees-Bohrs-Radians)
 Mixed Optimization -- En-DIIS/RFO-DIIS
 Second derivative matrix not updated -- first step.
 ITU=  0
     Eigenvalues ---    0.00230   0.00343   0.00586   0.00930   0.01041
     Eigenvalues ---    0.01159   0.01178   0.01243   0.01466   0.01474
     Eigenvalues ---    0.02321   0.02869   0.02973   0.03017   0.03031
     Eigenvalues ---    0.03476   0.03854   0.04299   0.04392   0.04492
     Eigenvalues ---    0.04576   0.04848   0.05250   0.05893   0.07829
     Eigenvalues ---    0.08472   0.09760   0.10245   0.10269   0.10703
     Eigenvalues ---    0.10731   0.11034   0.11252   0.11804   0.15015
     Eigenvalues ---    0.15441   0.16000   0.16000   0.16000   0.16000
     Eigenvalues ---    0.16000   0.16000   0.16000   0.17505   0.19902
     Eigenvalues ---    0.20780   0.23200   0.23754   0.24964   0.24978
     Eigenvalues ---    0.24994   0.24997   0.25000   0.25000   0.25000
     Eigenvalues ---    0.34889   0.34899   0.34939   0.34976   0.35278
     Eigenvalues ---    0.35320   0.35378   0.39461   0.39545   0.40435
     Eigenvalues ---    0.52796   0.53115   0.53375   0.53785   0.54140
     Eigenvalues ---    0.54831   0.55571   0.55592   0.66326   0.67246
     Eigenvalues ---    0.92759   1.02917   1.05483
 RFO step:  Lambda=-9.80098706D-05 EMin= 2.30000000D-03
 Linear search not attempted -- first point.
 Iteration  1 RMS(Cart)=  0.03505414 RMS(Int)=  0.00046295
 Iteration  2 RMS(Cart)=  0.00064446 RMS(Int)=  0.00002064
 Iteration  3 RMS(Cart)=  0.00000042 RMS(Int)=  0.00002064
 Variable       Old X    -DE/DX   Delta X   Delta X   Delta X     New X
                                 (Linear)    (Quad)   (Total)
    R1        2.31291   0.00024   0.00000   0.00036   0.00035   2.31326
    R2        2.71741  -0.00022   0.00000  -0.00052  -0.00053   2.71688
    R3        2.77714  -0.00021   0.00000  -0.00056  -0.00057   2.77657
    R4        2.27065  -0.00031   0.00000  -0.00022  -0.00022   2.27042
    R5        2.45629  -0.00010   0.00000  -0.00015  -0.00015   2.45614
    R6        2.26117  -0.00020   0.00000  -0.00027  -0.00027   2.26090
    R7        2.46259  -0.00001   0.00000  -0.00002  -0.00002   2.46257
    R8        3.72720  -0.00025   0.00000  -0.00780  -0.00779   3.71941
    R9        3.65348  -0.00036   0.00000  -0.00792  -0.00792   3.64556
   R10        2.70967  -0.00017   0.00000  -0.00041  -0.00041   2.70926
   R11        2.72177  -0.00017   0.00000  -0.00044  -0.00044   2.72133
   R12        2.05159   0.00003   0.00000   0.00007   0.00007   2.05167
   R13        2.05774   0.00000   0.00000   0.00001   0.00001   2.05775
   R14        2.05715  -0.00002   0.00000  -0.00005  -0.00005   2.05710
   R15        2.05839  -0.00002   0.00000  -0.00005  -0.00005   2.05834
   R16        2.05855   0.00001   0.00000   0.00003   0.00003   2.05858
   R17        2.05226   0.00004   0.00000   0.00011   0.00011   2.05237
   R18        1.82979  -0.00053   0.00000  -0.00113  -0.00112   1.82867
   R19        1.81310  -0.00033   0.00000  -0.00059  -0.00059   1.81251
   R20        3.78154  -0.00017   0.00000  -0.00390  -0.00390   3.77764
   R21        3.71663  -0.00015   0.00000  -0.00344  -0.00342   3.71321
   R22        1.82604  -0.00023   0.00000  -0.00042  -0.00042   1.82562
   R23        1.81983  -0.00029   0.00000  -0.00052  -0.00052   1.81930
   R24        1.83096  -0.00031   0.00000  -0.00038  -0.00039   1.83058
   R25        1.82649  -0.00031   0.00000  -0.00056  -0.00056   1.82594
   R26        3.70896  -0.00021   0.00000  -0.00248  -0.00249   3.70647
   R27        1.82949  -0.00047   0.00000  -0.00102  -0.00101   1.82848
   R28        1.81328  -0.00028   0.00000  -0.00051  -0.00051   1.81277
    A1        1.97038  -0.00019   0.00000   0.00010   0.00007   1.97044
    A2        1.95051  -0.00046   0.00000  -0.00295  -0.00293   1.94758
    A3        2.09923  -0.00009   0.00000  -0.00052  -0.00057   2.09867
    A4        1.93823   0.00010   0.00000   0.00055   0.00057   1.93880
    A5        2.24199  -0.00001   0.00000   0.00006   0.00008   2.24207
    A6        2.18596  -0.00013   0.00000  -0.00222  -0.00220   2.18376
    A7        1.86491   0.00009   0.00000   0.00123   0.00122   1.86613
    A8        2.23185   0.00004   0.00000   0.00103   0.00102   2.23287
    A9        2.02669  -0.00056   0.00000  -0.00932  -0.00930   2.01739
   A10        2.08990  -0.00116   0.00000  -0.00713  -0.00714   2.08277
   A11        2.02717  -0.00037   0.00000  -0.00150  -0.00150   2.02567
   A12        2.02903  -0.00043   0.00000  -0.00174  -0.00174   2.02729
   A13        1.83873  -0.00004   0.00000  -0.00021  -0.00021   1.83852
   A14        1.92230   0.00002   0.00000   0.00007   0.00007   1.92237
   A15        1.90508  -0.00005   0.00000  -0.00032  -0.00032   1.90476
   A16        1.93017   0.00003   0.00000   0.00027   0.00027   1.93044
   A17        1.93135   0.00006   0.00000   0.00039   0.00039   1.93175
   A18        1.93388  -0.00002   0.00000  -0.00022  -0.00022   1.93366
   A19        1.91362  -0.00002   0.00000  -0.00012  -0.00012   1.91350
   A20        1.92716   0.00001   0.00000   0.00003   0.00003   1.92719
   A21        1.84281  -0.00004   0.00000  -0.00022  -0.00022   1.84260
   A22        1.92248  -0.00001   0.00000  -0.00008  -0.00008   1.92240
   A23        1.92714   0.00004   0.00000   0.00024   0.00024   1.92738
   A24        1.92925   0.00002   0.00000   0.00014   0.00014   1.92940
   A25        1.86802   0.00014   0.00000   0.00144   0.00142   1.86945
   A26        1.62319  -0.00046   0.00000  -0.00576  -0.00575   1.61744
   A27        1.81020   0.00001   0.00000  -0.00135  -0.00133   1.80886
   A28        2.22646   0.00012   0.00000   0.00128   0.00128   2.22774
   A29        2.11795   0.00001   0.00000   0.00135   0.00135   2.11929
   A30        1.72247   0.00005   0.00000   0.00068   0.00066   1.72313
   A31        2.68800  -0.00080   0.00000  -0.00465  -0.00460   2.68340
   A32        1.81025  -0.00017   0.00000  -0.00107  -0.00107   1.80918
   A33        2.73797  -0.00023   0.00000  -0.00094  -0.00094   2.73704
   A34        1.83015  -0.00065   0.00000  -0.00094  -0.00096   1.82919
   A35        2.79837  -0.00043   0.00000  -0.00091  -0.00097   2.79741
   A36        1.56065  -0.00085   0.00000  -0.00774  -0.00776   1.55288
   A37        1.99546  -0.00007   0.00000  -0.00036  -0.00040   1.99505
   A38        1.83427   0.00014   0.00000  -0.00193  -0.00194   1.83233
   A39        2.69349  -0.00082   0.00000  -0.00445  -0.00445   2.68905
   A40        2.91851   0.00021   0.00000  -0.00098  -0.00099   2.91752
   A41        3.23697   0.00065   0.00000   0.01714   0.01713   3.25410
    D1        3.08649   0.00035   0.00000  -0.00140  -0.00147   3.08503
    D2       -1.77306   0.00025   0.00000   0.00388   0.00388  -1.76918
    D3        1.45366   0.00021   0.00000   0.00292   0.00292   1.45658
    D4       -0.18571   0.00024   0.00000   0.00804   0.00802  -0.17768
    D5        2.92531   0.00016   0.00000   0.00931   0.00932   2.93462
    D6        1.08188   0.00017   0.00000   0.00053   0.00051   1.08239
    D7       -2.16122   0.00022   0.00000   0.00169   0.00168  -2.15954
    D8       -3.11665   0.00009   0.00000   0.00290   0.00290  -3.11375
    D9        0.11886   0.00006   0.00000   0.00188   0.00188   0.12073
   D10       -0.70505  -0.00001   0.00000   0.00325   0.00330  -0.70175
   D11        2.47362   0.00009   0.00000   0.00173   0.00174   2.47537
   D12        3.08347   0.00000   0.00000  -0.00198  -0.00199   3.08147
   D13       -0.08976  -0.00008   0.00000  -0.00074  -0.00072  -0.09049
   D14       -0.86936   0.00009   0.00000   0.00618   0.00628  -0.86308
   D15        0.31247   0.00015   0.00000   0.00379   0.00383   0.31630
   D16       -1.08658   0.00001   0.00000   0.00007   0.00007  -1.08651
   D17        1.03475  -0.00001   0.00000  -0.00009  -0.00009   1.03467
   D18        3.12048   0.00000   0.00000  -0.00003  -0.00003   3.12045
   D19       -3.12475  -0.00002   0.00000  -0.00146  -0.00146  -3.12621
   D20       -1.04286   0.00001   0.00000  -0.00122  -0.00122  -1.04407
   D21        1.08398  -0.00004   0.00000  -0.00164  -0.00164   1.08233
   D22        2.75425  -0.00003   0.00000  -0.00152  -0.00150   2.75275
   D23        0.46982   0.00000   0.00000  -0.00081  -0.00080   0.46903
   D24       -1.27033   0.00007   0.00000   0.00010   0.00011  -1.27021
   D25       -0.61474   0.00008   0.00000   0.04571   0.04570  -0.56904
   D26       -2.60835   0.00024   0.00000   0.04828   0.04829  -2.56007
   D27        1.20690   0.00001   0.00000   0.04342   0.04343   1.25032
   D28       -0.62695   0.00001   0.00000   0.00794   0.00796  -0.61899
   D29        1.43136   0.00011   0.00000   0.00543   0.00544   1.43681
   D30       -2.27529   0.00045   0.00000   0.01374   0.01377  -2.26152
   D31       -0.94082   0.00029   0.00000   0.01938   0.01938  -0.92144
   D32        1.83088   0.00045   0.00000   0.00247   0.00245   1.83333
   D33        0.33235   0.00019   0.00000   0.00812   0.00812   0.34048
   D34       -1.52353   0.00044   0.00000   0.01392   0.01393  -1.50961
   D35        0.14819   0.00020   0.00000  -0.00873  -0.00866   0.13953
   D36        2.15687  -0.00011   0.00000  -0.01159  -0.01155   2.14532
         Item               Value     Threshold  Converged?
 Maximum Force            0.001162     0.000450     NO 
 RMS     Force            0.000288     0.000300     YES
 Maximum Displacement     0.172654     0.001800     NO 
 RMS     Displacement     0.035001     0.001200     NO 
 Predicted change in Energy=-4.950435D-05
 GradGradGradGradGradGradGradGradGradGradGradGradGradGradGradGradGradGrad

                          Input orientation:                          
 ---------------------------------------------------------------------
 Center     Atomic      Atomic             Coordinates (Angstroms)
 Number     Number       Type             X           Y           Z
 ---------------------------------------------------------------------
      1          7           0        0.304046   -0.338742   -1.019183
      2          7           0       -0.313028   -0.690292   -0.022131
      3          6           0        1.712169   -0.177778   -0.777745
      4          6           0       -1.757057   -0.771877   -0.280885
      5          8           0       -2.303735   -0.368353   -1.265633
      6          8           0        2.178195    0.918767   -0.623138
      7          8           0       -2.290397   -1.387974    0.736041
      8          8           0        2.334013   -1.316040   -0.861276
      9          6           0        3.750291   -1.286153   -0.602346
     10          1           0        4.087939   -2.309609   -0.733739
     11          1           0        4.247101   -0.624792   -1.310522
     12          1           0        3.919104   -0.953947    0.420456
     13          6           0       -3.719000   -1.507616    0.721477
     14          1           0       -4.169557   -0.516158    0.742088
     15          1           0       -4.045969   -2.049948   -0.164896
     16          1           0       -3.974606   -2.058988    1.621584
     17          8           0        1.171125    2.127972    1.728494
     18          1           0        1.589854    1.994294    0.866393
     19          1           0        1.514806    2.949473    2.084810
     20          8           0        1.742367   -0.682475    2.233674
     21          1           0        1.592020    0.267347    2.326066
     22          1           0        0.955904   -0.993438    1.773636
     23          8           0       -1.604376    1.720784    0.951297
     24          1           0       -1.550491    2.120567    0.070587
     25          1           0       -0.743816    1.895077    1.354639
     26          8           0       -1.386227    2.281110   -1.877299
     27          1           0       -1.646112    1.352601   -1.958288
     28          1           0       -0.482024    2.314297   -2.195930
 ---------------------------------------------------------------------
                    Distance matrix (angstroms):
                    1          2          3          4          5
     1  N    0.000000
     2  N    1.224125   0.000000
     3  C    1.437710   2.221496   0.000000
     4  C    2.231779   1.469296   3.554624   0.000000
     5  O    2.619568   2.369146   4.049918   1.196418   0.000000
     6  O    2.291422   3.025967   1.201456   4.296700   4.707141
     7  O    3.303458   2.229703   4.447095   1.303137   2.246442
     8  O    2.258498   2.846498   1.299734   4.167712   4.750823
     9  C    3.598326   4.147561   2.326629   5.540641   6.159021
    10  H    4.275938   4.743109   3.192323   6.060832   6.701110
    11  H    3.964137   4.739095   2.628603   6.093579   6.556007
    12  H    3.939503   4.263372   2.628438   5.722223   6.473758
    13  C    4.536636   3.580728   5.789104   2.322770   2.692490
    14  H    4.811099   3.935374   6.084332   2.632873   2.744828
    15  H    4.751912   3.975411   6.085783   2.624126   2.659843
    16  H    5.314110   4.240552   6.452530   3.192737   3.739797
    17  O    3.792918   3.634558   3.448253   4.584865   5.222172
    18  H    3.263702   3.408437   2.726912   4.491077   5.028685
    19  H    4.681140   4.585638   4.244158   5.490907   6.067512
    20  O    3.573233   3.051781   3.053567   4.310101   5.358616
    21  H    3.635507   3.171800   3.137868   4.369497   5.336790
    22  H    2.941663   2.219654   2.783304   3.410323   4.500348
    23  O    3.430235   2.903176   4.194472   2.784770   3.125439
    24  H    3.267278   3.072595   4.080074   2.921033   2.923625
    25  H    3.423885   2.960610   3.856896   3.288502   3.797669
    26  O    3.233730   3.663692   4.105510   3.465081   2.869776
    27  H    2.746939   3.114359   3.874763   2.709132   1.968228
    28  H    3.006868   3.712347   3.610564   3.849360   3.373528
                    6          7          8          9         10
     6  O    0.000000
     7  O    5.209294   0.000000
     8  O    2.252855   4.893032   0.000000
     9  C    2.708060   6.188018   1.440063   0.000000
    10  H    3.752568   6.610056   2.019827   1.085695   0.000000
    11  H    2.671225   6.892732   2.083159   1.088913   1.787909
    12  H    2.761686   6.232646   2.070377   1.088569   1.788432
    13  C    6.517073   1.433678   6.259455   7.588931   7.981801
    14  H    6.649573   2.071555   6.745889   8.069969   8.577924
    15  H    6.911113   2.081329   6.459701   7.845790   8.157909
    16  H    7.194635   2.017674   6.820209   8.075716   8.403273
    17  O    2.829583   5.032790   4.463232   4.872490   5.853420
    18  H    1.929146   5.149085   3.807483   4.193568   5.227277
    19  H    3.449179   5.925555   5.248345   5.491696   6.497936
    20  O    3.303831   4.359337   3.214057   3.526924   4.117622
    21  H    3.076647   4.510148   3.635494   3.955641   4.715159
    22  H    3.300765   3.430850   2.990989   3.679616   4.222426
    23  O    4.174916   3.190820   5.293263   6.334662   7.175365
    24  H    3.978527   3.646937   5.269536   6.336945   7.215628
    25  H    3.661002   3.681440   4.969365   5.843544   6.736955
    26  O    4.016716   4.594480   5.273707   6.382374   7.235256
    27  H    4.073839   3.896827   4.915941   6.158146   6.913078
    28  H    3.390862   5.057022   4.784424   5.780592   6.663563
                   11         12         13         14         15
    11  H    0.000000
    12  H    1.792264   0.000000
    13  C    8.268444   7.664059   0.000000
    14  H    8.664014   8.106883   1.089227   0.000000
    15  H    8.492264   8.061405   1.089353   1.786170   0.000000
    16  H    8.845939   8.060676   1.086066   1.786574   1.787928
    17  O    5.125910   4.331349   6.176156   6.040472   6.946798
    18  H    4.319667   3.783701   6.361471   6.283999   7.012985
    19  H    5.636407   4.877234   7.008356   6.791575   7.808816
    20  O    4.340316   2.845987   5.726616   6.099454   6.413108
    21  H    4.590222   3.246264   5.825130   6.026495   6.584958
    22  H    4.525473   3.257792   4.819351   5.249975   5.467435
    23  O    6.697562   6.159936   3.866137   3.409960   4.628788
    24  H    6.561747   6.284227   4.276658   3.776604   4.865805
    25  H    6.193712   5.543686   4.564092   4.233790   5.364366
    26  O    6.363953   6.625090   5.152661   4.736330   5.363265
    27  H    6.249771   6.476898   4.433830   4.141505   4.533531
    28  H    5.637980   6.074276   5.796231   5.499211   5.989443
                   16         17         18         19         20
    16  H    0.000000
    17  O    6.634804   0.000000
    18  H    6.925506   0.967689   0.000000
    19  H    7.445329   0.959136   1.550013   0.000000
    20  O    5.912126   2.912068   3.009620   3.642114   0.000000
    21  H    6.074164   1.999043   2.261194   2.694062   0.966076
    22  H    5.046627   3.129147   3.186146   3.994465   0.962735
    23  O    4.511535   2.910884   3.207043   3.538903   4.315186
    24  H    5.074506   3.186832   3.242070   3.760349   4.835173
    25  H    5.113111   1.964944   2.386261   2.597359   3.687490
    26  O    6.146409   4.423261   4.057976   4.955907   5.955757
    27  H    5.465923   4.704294   4.343048   5.374760   5.761586
    28  H    6.774745   4.262478   3.711186   4.766080   5.792231
                   21         22         23         24         25
    21  H    0.000000
    22  H    1.516378   0.000000
    23  O    3.770865   3.820769   0.000000
    24  H    4.289171   4.345045   0.968700   0.000000
    25  H    3.008207   3.377592   0.966244   1.533088   0.000000
    26  O    5.531138   5.434848   2.891800   1.961381   3.317701
    27  H    5.478957   5.118754   2.933085   2.171463   3.476191
    28  H    5.379602   5.363413   3.393666   2.513215   3.584804
                   26         27         28
    26  O    0.000000
    27  H    0.967589   0.000000
    28  H    0.959276   1.528539   0.000000
 Stoichiometry    C4H14N2O8
 Framework group  C1[X(C4H14N2O8)]
 Deg. of freedom    78
 Full point group                 C1      NOp   1
 Largest Abelian subgroup         C1      NOp   1
 Largest concise Abelian subgroup C1      NOp   1
                         Standard orientation:                         
 ---------------------------------------------------------------------
 Center     Atomic      Atomic             Coordinates (Angstroms)
 Number     Number       Type             X           Y           Z
 ---------------------------------------------------------------------
      1          7           0        0.306472   -0.325131   -1.024677
      2          7           0       -0.312695   -0.690167   -0.033787
      3          6           0        1.714357   -0.169219   -0.778582
      4          6           0       -1.756369   -0.766422   -0.296125
      5          8           0       -2.300915   -0.348278   -1.275942
      6          8           0        2.181331    0.924483   -0.607562
      7          8           0       -2.292128   -1.396355    0.711005
      8          8           0        2.335084   -1.306876   -0.877286
      9          6           0        3.750950   -1.282284   -0.615557
     10          1           0        4.087690   -2.304144   -0.760962
     11          1           0        4.249701   -0.611454   -1.313385
     12          1           0        3.918380   -0.964890    0.412163
     13          6           0       -3.720835   -1.514162    0.692316
     14          1           0       -4.170330   -0.522591    0.726302
     15          1           0       -4.046888   -2.043429   -0.202254
     16          1           0       -3.978590   -2.078026    1.584033
     17          8           0        1.171578    2.101166    1.759368
     18          1           0        1.591633    1.979323    0.896159
     19          1           0        1.515558    2.917113    2.127947
     20          8           0        1.738847   -0.716844    2.225379
     21          1           0        1.589393    0.231733    2.331054
     22          1           0        0.952828   -1.020326    1.759620
     23          8           0       -1.603039    1.708239    0.971741
     24          1           0       -1.547205    2.120481    0.096916
     25          1           0       -0.742977    1.875791    1.378986
     26          8           0       -1.379433    2.308601   -1.848201
     27          1           0       -1.640205    1.381635   -1.942866
     28          1           0       -0.474650    2.345306   -2.164794
 ---------------------------------------------------------------------
 Rotational constants (GHZ):      0.7155075      0.3850167      0.3633570
 Standard basis: def2TZVP (5D, 7F)
 There are   588 symmetry adapted cartesian basis functions of A   symmetry.
 There are   518 symmetry adapted basis functions of A   symmetry.
   518 basis functions,   826 primitive gaussians,   588 cartesian basis functions
    58 alpha electrons       58 beta electrons
       nuclear repulsion energy      1054.0566369819 Hartrees.
 NAtoms=   28 NActive=   28 NUniq=   28 SFac= 1.00D+00 NAtFMM=   60 NAOKFM=F Big=F
 Integral buffers will be    131072 words long.
 Raffenetti 2 integral format.
 Two-electron integral symmetry is turned on.
 Nuclear repulsion after empirical dispersion term =     1054.0397462385 Hartrees.
 ------------------------------------------------------------------------------
[...]
 Alpha virt. eigenvalues --    1.89718   1.91813   1.93079   1.95107   1.95444
 Alpha virt. eigenvalues --    1.97411   1.98048   1.99541   2.01606   2.02237
 Alpha virt. eigenvalues --    2.02880   2.03838   2.06887   2.08049   2.08841
 Alpha virt. eigenvalues --    2.11588   2.12271   2.12790   2.13114   2.14091
 Alpha virt. eigenvalues --    2.15354   2.16846   2.17274   2.17887   2.18546
 Alpha virt. eigenvalues --    2.18889   2.20116   2.20918   2.22045   2.23105
 Alpha virt. eigenvalues --    2.25031   2.25682   2.26787   2.29351   2.30169
 Alpha virt. eigenvalues --    2.31276   2.32926   2.33519   2.35358   2.37066
 Alpha virt. eigenvalues --    2.37100   2.39331   2.39678   2.40708   2.41737
 Alpha virt. eigenvalues --    2.42962   2.43353   2.44371   2.46573   2.47136
 Alpha virt. eigenvalues --    2.48307   2.48709   2.49923   2.50958   2.52109
 Alpha virt. eigenvalues --    2.52831   2.56043   2.57105   2.60829   2.60987
 Alpha virt. eigenvalues --    2.61195   2.63919   2.64554   2.65839   2.66209
 Alpha virt. eigenvalues --    2.69093   2.70034   2.72068   2.72452   2.73530
 Alpha virt. eigenvalues --    2.73938   2.75591   2.77750   2.79064   2.79675
 Alpha virt. eigenvalues --    2.80661   2.81977   2.83955   2.84124   2.86634
 Alpha virt. eigenvalues --    2.86848   2.87078   2.88797   2.90485   2.91293
 Alpha virt. eigenvalues --    2.91613   2.93079   2.95814   2.98787   2.99979
 Alpha virt. eigenvalues --    3.01318   3.02150   3.03714   3.06269   3.09884
 Alpha virt. eigenvalues --    3.13224   3.14129   3.14312   3.15704   3.16789
 Alpha virt. eigenvalues --    3.18040   3.19160   3.20983   3.22713   3.23723
 Alpha virt. eigenvalues --    3.25377   3.27513   3.28907   3.31092   3.31283
 Alpha virt. eigenvalues --    3.33077   3.33427   3.35875   3.37453   3.38848
 Alpha virt. eigenvalues --    3.40854   3.41419   3.42402   3.43687   3.45515
 Alpha virt. eigenvalues --    3.47417   3.47792   3.49626   3.51923   3.53856
 Alpha virt. eigenvalues --    3.55871   3.59535   3.61244   3.64135   3.65705
 Alpha virt. eigenvalues --    3.66308   3.66899   3.68431   3.70442   3.71662
 Alpha virt. eigenvalues --    3.75239   3.76280   3.79613   3.81604   3.82992
 Alpha virt. eigenvalues --    3.85490   3.87445   3.90315   3.93157   3.97760
 Alpha virt. eigenvalues --    4.03092   4.03717   4.05150   4.06460   4.07671
 Alpha virt. eigenvalues --    4.14717   4.15520   4.21709   4.24409   4.24787
 Alpha virt. eigenvalues --    4.29550   4.35165   4.38865   4.39071   4.46079
 Alpha virt. eigenvalues --    4.46814   4.50227   4.51723   4.59317   4.62751
 Alpha virt. eigenvalues --    4.63950   4.70143   4.78043   4.82282   4.86100
 Alpha virt. eigenvalues --    4.89279   4.94895   4.96267   4.99393   5.01433
 Alpha virt. eigenvalues --    5.07267   5.09242   5.15153   5.17018   5.19067
 Alpha virt. eigenvalues --    5.20748   5.21527   5.21949   5.24827   5.25148
 Alpha virt. eigenvalues --    5.26672   5.27182   5.29967   5.32009   5.32583
 Alpha virt. eigenvalues --    5.33388   5.38715   5.39132   5.43430   5.46124
 Alpha virt. eigenvalues --    5.47184   5.47566   5.49238   5.50584   5.51479
 Alpha virt. eigenvalues --    5.51881   5.53832   5.54742   5.55260   5.55667
 Alpha virt. eigenvalues --    5.56634   5.57966   5.58646   5.59372   5.59936
 Alpha virt. eigenvalues --    5.65812   5.73311   5.74666   5.75703   5.77815
 Alpha virt. eigenvalues --    5.89917   5.91290   5.96083   5.98685   6.07830
 Alpha virt. eigenvalues --    6.10013   6.12284   6.13092   6.13599   6.15725
 Alpha virt. eigenvalues --    6.16808   6.20151   6.21812   6.27718   6.30274
 Alpha virt. eigenvalues --    6.30846   6.31934   6.33895   6.35203   6.37629
 Alpha virt. eigenvalues --    6.42625   6.44028   6.44900   6.46202   6.47523
 Alpha virt. eigenvalues --    6.48389   6.48629   6.49387   6.49834   6.51565
 Alpha virt. eigenvalues --    6.53327   6.54264   6.54379   6.55789   6.57213
 Alpha virt. eigenvalues --    6.58619   6.59447   6.60479   6.64922   6.71542
 Alpha virt. eigenvalues --    6.72309   6.73319   6.74292   6.82578   6.84547
 Alpha virt. eigenvalues --    6.91783   6.96733   6.98012   6.98769   6.99635
 Alpha virt. eigenvalues --    7.01099   7.02231   7.04631   7.07015   7.08610
 Alpha virt. eigenvalues --    7.09817   7.11427   7.13560   7.18756   7.22416
 Alpha virt. eigenvalues --    7.23102   7.25289   7.39722   7.46205   7.47982
 Alpha virt. eigenvalues --    7.50918  22.40439  22.42626  23.44420  23.57838
 Alpha virt. eigenvalues --   32.37137  32.48214  43.55067  43.56442  43.60095
 Alpha virt. eigenvalues --   43.67375  44.00408  44.02221  44.24209  44.25732
          Condensed to atoms (all electrons):
               1          2          3          4          5          6
     1  N    6.702133   0.296023   0.299063  -0.066128   0.001799  -0.061126
     2  N    0.296023   6.679328  -0.027141   0.318312  -0.070580  -0.006370
     3  C    0.299063  -0.027141   4.414399  -0.006347   0.000684   0.534216
     4  C   -0.066128   0.318312  -0.006347   4.354478   0.559334  -0.000869
     5  O    0.001799  -0.070580   0.000684   0.559334   7.955246   0.000068
     6  O   -0.061126  -0.006370   0.534216  -0.000869   0.000068   8.001544
     7  O    0.002849  -0.091036  -0.000533   0.408016  -0.069889   0.000002
     8  O   -0.072188  -0.005106   0.394514   0.000543  -0.000009  -0.068576
     9  C    0.004963  -0.000149  -0.072309   0.000064   0.000001   0.001177
    10  H    0.000248   0.000044   0.003961   0.000005   0.000000   0.001026
    11  H   -0.000348   0.000046  -0.007999   0.000006   0.000000   0.004938
    12  H   -0.000399  -0.000231   0.002702  -0.000037   0.000000   0.002882
    13  C   -0.000300   0.004077  -0.000028  -0.044666   0.001610  -0.000001
    14  H   -0.000077  -0.000431  -0.000015  -0.004753   0.003626   0.000000
    15  H    0.000027  -0.000253  -0.000010  -0.010152   0.004913   0.000000
    16  H    0.000009   0.000486   0.000003   0.004320   0.001179   0.000000
    17  O   -0.000684  -0.000528   0.003958  -0.000126  -0.000001  -0.016908
    18  H    0.001592   0.000309  -0.010945   0.000005   0.000002   0.022699
    19  H   -0.000017   0.000059  -0.000249   0.000005   0.000000   0.000711
    20  O   -0.007424  -0.010493   0.055445   0.001359  -0.000011  -0.006940
    21  H    0.000776   0.001300  -0.003567   0.000080   0.000004   0.000502
    22  H   -0.000287   0.014693  -0.008105   0.000747   0.000079   0.000874
    23  O   -0.003918   0.003936   0.000433   0.016582  -0.005505   0.000082
    24  H    0.001349  -0.000838   0.000329  -0.002401   0.000247   0.000078
    25  H    0.000754  -0.000299   0.000537  -0.002459   0.000144   0.000140
    26  O    0.004435  -0.006426   0.003186   0.007362  -0.015980  -0.000714
    27  H    0.002751   0.000485  -0.000079  -0.006283   0.022094  -0.000044
    28  H    0.002347  -0.000618   0.001482  -0.000619   0.000808   0.002676
               7          8          9         10         11         12
     1  N    0.002849  -0.072188   0.004963   0.000248  -0.000348  -0.000399
     2  N   -0.091036  -0.005106  -0.000149   0.000044   0.000046  -0.000231
     3  C   -0.000533   0.394514  -0.072309   0.003961  -0.007999   0.002702
     4  C    0.408016   0.000543   0.000064   0.000005   0.000006  -0.000037
     5  O   -0.069889  -0.000009   0.000001   0.000000   0.000000   0.000000
     6  O    0.000002  -0.068576   0.001177   0.001026   0.004938   0.002882
     7  O    7.857072  -0.000006  -0.000003   0.000000   0.000000   0.000000
     8  O   -0.000006   7.856168   0.218591  -0.025928  -0.030890  -0.034422
     9  C   -0.000003   0.218591   4.842778   0.397120   0.411599   0.407518
    10  H    0.000000  -0.025928   0.397120   0.501355  -0.020498  -0.016216
    11  H    0.000000  -0.030890   0.411599  -0.020498   0.520792  -0.030644
    12  H    0.000000  -0.034422   0.407518  -0.016216  -0.030644   0.493906
    13  C    0.215656   0.000000   0.000000   0.000000   0.000000   0.000000
    14  H   -0.032865   0.000000   0.000000   0.000000   0.000000   0.000000
    15  H   -0.030811   0.000000   0.000000   0.000000   0.000000   0.000000
    16  H   -0.026423   0.000000   0.000000   0.000000   0.000000   0.000000
    17  O   -0.000011  -0.000098  -0.000417  -0.000002   0.000024   0.000241
    18  H    0.000001   0.000384   0.000379   0.000005  -0.000015  -0.000038
    19  H    0.000000  -0.000004  -0.000004   0.000000  -0.000003   0.000007
    20  O   -0.000130  -0.007373  -0.014082  -0.000172   0.000631   0.010283
    21  H   -0.000059   0.000413   0.000565   0.000003  -0.000036  -0.000563
    22  H    0.001757   0.001934   0.001109   0.000020  -0.000033  -0.000881
    23  O   -0.000668   0.000012   0.000021   0.000000   0.000000  -0.000001
    24  H    0.000127  -0.000006  -0.000005   0.000000   0.000000   0.000000
    25  H    0.000134   0.000007   0.000011   0.000000  -0.000001  -0.000002
    26  O   -0.000043   0.000033   0.000021   0.000000  -0.000001   0.000000
    27  H    0.000338  -0.000003  -0.000005   0.000000   0.000000   0.000000
    28  H    0.000000   0.000049   0.000018   0.000000   0.000002  -0.000003
              13         14         15         16         17         18
     1  N   -0.000300  -0.000077   0.000027   0.000009  -0.000684   0.001592
     2  N    0.004077  -0.000431  -0.000253   0.000486  -0.000528   0.000309
     3  C   -0.000028  -0.000015  -0.000010   0.000003   0.003958  -0.010945
     4  C   -0.044666  -0.004753  -0.010152   0.004320  -0.000126   0.000005
     5  O    0.001610   0.003626   0.004913   0.001179  -0.000001   0.000002
     6  O   -0.000001   0.000000   0.000000   0.000000  -0.016908   0.022699
     7  O    0.215656  -0.032865  -0.030811  -0.026423  -0.000011   0.000001
     8  O    0.000000   0.000000   0.000000   0.000000  -0.000098   0.000384
     9  C    0.000000   0.000000   0.000000   0.000000  -0.000417   0.000379
    10  H    0.000000   0.000000   0.000000   0.000000  -0.000002   0.000005
    11  H    0.000000   0.000000   0.000000   0.000000   0.000024  -0.000015
    12  H    0.000000   0.000000   0.000000   0.000000   0.000241  -0.000038
    13  C    4.806310   0.416785   0.415102   0.396262  -0.000002   0.000004
    14  H    0.416785   0.500655  -0.032041  -0.017351   0.000002   0.000000
    15  H    0.415102  -0.032041   0.524937  -0.021557   0.000000   0.000000
    16  H    0.396262  -0.017351  -0.021557   0.507249   0.000000   0.000000
    17  O   -0.000002   0.000002   0.000000   0.000000   8.125072   0.286539
    18  H    0.000004   0.000000   0.000000   0.000000   0.286539   0.353428
    19  H    0.000000   0.000000   0.000000   0.000000   0.306082  -0.009291
    20  O    0.000001   0.000000   0.000000   0.000002  -0.016582   0.000539
    21  H   -0.000001  -0.000001   0.000000   0.000000   0.021152  -0.003728
    22  H    0.000016   0.000001   0.000005  -0.000011   0.000677   0.000326
    23  O    0.001445   0.001921   0.000114  -0.000060  -0.015041   0.002598
    24  H   -0.000098  -0.000155  -0.000004   0.000001   0.002505   0.000143
    25  H   -0.000102  -0.000048   0.000004   0.000003   0.013838  -0.001918
    26  O    0.000084  -0.000004   0.000011   0.000000  -0.000186   0.000767
    27  H    0.000046  -0.000010  -0.000006   0.000000   0.000008  -0.000101
    28  H   -0.000003   0.000002  -0.000002   0.000000   0.000074   0.000139
              19         20         21         22         23         24
     1  N   -0.000017  -0.007424   0.000776  -0.000287  -0.003918   0.001349
     2  N    0.000059  -0.010493   0.001300   0.014693   0.003936  -0.000838
     3  C   -0.000249   0.055445  -0.003567  -0.008105   0.000433   0.000329
     4  C    0.000005   0.001359   0.000080   0.000747   0.016582  -0.002401
     5  O    0.000000  -0.000011   0.000004   0.000079  -0.005505   0.000247
     6  O    0.000711  -0.006940   0.000502   0.000874   0.000082   0.000078
     7  O    0.000000  -0.000130  -0.000059   0.001757  -0.000668   0.000127
     8  O   -0.000004  -0.007373   0.000413   0.001934   0.000012  -0.000006
     9  C   -0.000004  -0.014082   0.000565   0.001109   0.000021  -0.000005
    10  H    0.000000  -0.000172   0.000003   0.000020   0.000000   0.000000
    11  H   -0.000003   0.000631  -0.000036  -0.000033   0.000000   0.000000
    12  H    0.000007   0.010283  -0.000563  -0.000881  -0.000001   0.000000
    13  C    0.000000   0.000001  -0.000001   0.000016   0.001445  -0.000098
    14  H    0.000000   0.000000  -0.000001   0.000001   0.001921  -0.000155
    15  H    0.000000   0.000000   0.000000   0.000005   0.000114  -0.000004
    16  H    0.000000   0.000002   0.000000  -0.000011  -0.000060   0.000001
    17  O    0.306082  -0.016582   0.021152   0.000677  -0.015041   0.002505
    18  H   -0.009291   0.000539  -0.003728   0.000326   0.002598   0.000143
    19  H    0.338875   0.000696  -0.000333  -0.000020   0.000526  -0.000079
    20  O    0.000696   8.015602   0.323284   0.322193  -0.000092  -0.000036
    21  H   -0.000333   0.323284   0.344897  -0.028277  -0.000133  -0.000025
    22  H   -0.000020   0.322193  -0.028277   0.352574   0.000507  -0.000038
    23  O    0.000526  -0.000092  -0.000133   0.000507   8.077989   0.305901
    24  H   -0.000079  -0.000036  -0.000025  -0.000038   0.305901   0.357636
    25  H   -0.000569   0.000330   0.000495   0.000088   0.323270  -0.023576
    26  O   -0.000028   0.000000   0.000000  -0.000005  -0.018845   0.026516
    27  H    0.000003  -0.000001   0.000004   0.000004   0.001360  -0.005451
    28  H    0.000004  -0.000002  -0.000001   0.000001   0.001083  -0.002173
              25         26         27         28
     1  N    0.000754   0.004435   0.002751   0.002347
     2  N   -0.000299  -0.006426   0.000485  -0.000618
     3  C    0.000537   0.003186  -0.000079   0.001482
     4  C   -0.002459   0.007362  -0.006283  -0.000619
     5  O    0.000144  -0.015980   0.022094   0.000808
     6  O    0.000140  -0.000714  -0.000044   0.002676
     7  O    0.000134  -0.000043   0.000338   0.000000
     8  O    0.000007   0.000033  -0.000003   0.000049
     9  C    0.000011   0.000021  -0.000005   0.000018
    10  H    0.000000   0.000000   0.000000   0.000000
    11  H   -0.000001  -0.000001   0.000000   0.000002
    12  H   -0.000002   0.000000   0.000000  -0.000003
    13  C   -0.000102   0.000084   0.000046  -0.000003
    14  H   -0.000048  -0.000004  -0.000010   0.000002
    15  H    0.000004   0.000011  -0.000006  -0.000002
    16  H    0.000003   0.000000   0.000000   0.000000
    17  O    0.013838  -0.000186   0.000008   0.000074
    18  H   -0.001918   0.000767  -0.000101   0.000139
    19  H   -0.000569  -0.000028   0.000003   0.000004
    20  O    0.000330   0.000000  -0.000001  -0.000002
    21  H    0.000495   0.000000   0.000004  -0.000001
    22  H    0.000088  -0.000005   0.000004   0.000001
    23  O    0.323270  -0.018845   0.001360   0.001083
    24  H   -0.023576   0.026516  -0.005451  -0.002173
    25  H    0.339233   0.001549   0.000006  -0.000081
    26  O    0.001549   8.066121   0.303339   0.307901
    27  H    0.000006   0.303339   0.348033  -0.018462
    28  H   -0.000081   0.307901  -0.018462   0.362130
 Mulliken charges:
               1
     1  N   -0.108223
     2  N   -0.098602
     3  C    0.422417
     4  C    0.473618
     5  O   -0.389863
     6  O   -0.412068
     7  O   -0.233474
     8  O   -0.228040
     9  C   -0.198961
    10  H    0.159027
    11  H    0.152431
    12  H    0.165896
    13  C   -0.212199
    14  H    0.164762
    15  H    0.149724
    16  H    0.155886
    17  O   -0.709590
    18  H    0.356176
    19  H    0.363630
    20  O   -0.667028
    21  H    0.343251
    22  H    0.340050
    23  O   -0.693515
    24  H    0.340055
    25  H    0.348513
    26  O   -0.679093
    27  H    0.351976
    28  H    0.343247
 Sum of Mulliken charges =   0.00000
 Mulliken charges with hydrogens summed into heavy atoms:
               1
     1  N   -0.108223
     2  N   -0.098602
     3  C    0.422417
     4  C    0.473618
     5  O   -0.389863
     6  O   -0.412068
     7  O   -0.233474
     8  O   -0.228040
     9  C    0.278394
    13  C    0.258173
    17  O    0.010216
    20  O    0.016273
    23  O   -0.004947
    26  O    0.016129
 Electronic spatial extent (au):  <R**2>=           3546.5570
 Charge=              0.0000 electrons
 Dipole moment (field-independent basis, Debye):
    X=              2.7583    Y=             -1.8889    Z=             -0.9252  Tot=              3.4688
 Quadrupole moment (field-independent basis, Debye-Ang):
   XX=            -65.0372   YY=            -78.2194   ZZ=            -90.3706
   XY=             13.9332   XZ=             -9.7751   YZ=              7.8309
 Traceless Quadrupole moment (field-independent basis, Debye-Ang):
   XX=             12.8385   YY=             -0.3436   ZZ=            -12.4948
   XY=             13.9332   XZ=             -9.7751   YZ=              7.8309
 Octapole moment (field-independent basis, Debye-Ang**2):
  XXX=              9.3037  YYY=             16.3239  ZZZ=             -5.0322  XYY=             29.0639
  XXY=            -48.3911  XXZ=              4.0846  XZZ=              6.4301  YZZ=             17.2400
  YYZ=             22.5127  XYZ=             22.5719
 Hexadecapole moment (field-independent basis, Debye-Ang**3):
 XXXX=          -2019.2539 YYYY=           -900.9207 ZZZZ=           -832.4702 XXXY=             41.5647
 XXXZ=           -105.7801 YYYX=            108.6036 YYYZ=             91.4096 ZZZX=            -41.9032
 ZZZY=             53.5649 XXYY=           -505.9342 XXZZ=           -570.2152 YYZZ=           -280.0162
 XXYZ=             30.5565 YYXZ=              7.7793 ZZXY=             73.2854
 N-N= 1.053957464701D+03 E-N=-4.160048263178D+03  KE= 8.687299091031D+02
 1\1\GINC-D11S8B4\FOpt\RwB97XD\def2TZVP\C4H14N2O8\PMMASS\23-Feb-2022\0\
 \#n wB97XD/Def2TZVP scrf(smd,solvent=toluene) opt\\dmad cycloaddition 
 toluene with water - opt\\0,1\N,0.2903313996,-0.3415367687,-1.01970771
 45\N,-0.3240057892,-0.6965049503,-0.0222056996\C,1.6979404111,-0.17436
 53126,-0.7856034102\C,-1.7698193835,-0.7750304082,-0.2771861402\O,-2.3
 1911105,-0.3684620887,-1.2591138256\O,2.1570460522,0.9263807482,-0.635
 3714417\O,-2.3000448573,-1.3974993724,0.7377406424\O,2.327498945,-1.30
 72783709,-0.8767605304\C,3.746751229,-1.2673067143,-0.6346842576\H,4.0
 896717218,-2.2887311233,-0.7680260397\H,4.2302561978,-0.6042532381,-1.
 3504929687\H,3.92579705,-0.9315517491,0.3851114824\C,-3.7284506457,-1.
 5197504238,0.7256819925\H,-4.1811392047,-0.5294639221,0.7546042607\H,-
 4.0567017752,-2.0561435573,-0.1638557727\H,-3.9809760741,-2.0783604818
 ,1.6222113929\O,1.1637113915,2.1272916184,1.7308285944\H,1.5702353889,
 1.9943728199,0.8623722951\H,1.5164528345,2.9466545485,2.0833225197\O,1
 .721946644,-0.6750905793,2.2496293884\H,1.5921756341,0.2793382913,2.32
 71258592\H,0.9002661418,-0.9845017585,1.8547446713\O,-1.610831601,1.74
 14861982,0.9496784773\H,-1.535352771,2.1277233491,0.0644632842\H,-0.75
 41644229,1.9090471209,1.3641811825\O,-1.2929608064,2.2641691236,-1.881
 5570305\H,-1.5971286059,1.3493752928,-1.9674920535\H,-0.3668540545,2.2
 381017086,-2.1314091581\\Version=ES64L-G09RevD.01\State=1-A\HF=-872.24
 71169\RMSD=3.863e-09\RMSF=8.310e-06\Dipole=1.0906039,-0.7281842,-0.377
 8502\Quadrupole=9.0994865,-0.000804,-9.0986825,10.5625031,-7.5370478,5
 .6206603\PG=C01 [X(C4H14N2O8)]\\@


 ON INDUCTION, OR "WHY DO YOU BELIEVE THE SUN WILL RISE TOMORROW?":

 ... THE FARMER WHO HAS FED THE CHICKEN EVERY DAY THROUGHOUT ITS
 LIFE AT LAST WRINGS ITS NECK INSTEAD, SHOWING THAT MORE REFINED VIEWS
 AS TO THE UNIFORMITY OF NATURE WOULD HAVE BEEN USEFUL TO THE CHICKEN.

                               -- BERTRAND RUSSELL
 Job cpu time:       0 days 14 hours 12 minutes 55.2 seconds.
 File lengths (MBytes):  RWF=    243 Int=      0 D2E=      0 Chk=     20 Scr=      1
 Normal termination of Gaussian 09 at Wed Feb 23 18:45:51 2022.
