 Entering Gaussian System, Link 0=g09
 Input=ts_cyclo_water2.com
 Output=ts_cyclo_water2.log
 Initial command:
 /apps/applications/gaussian/G09.D01/2/default/g09/l1.exe "/nobackup/pmmass/Temp/Gau-55641.inp" -scrdir="/nobackup/pmmass/Temp/"
 Entering Link 1 = /apps/applications/gaussian/G09.D01/2/default/g09/l1.exe PID=     55642.
  
 Copyright (c) 1988,1990,1992,1993,1995,1998,2003,2009,2013,
            Gaussian, Inc.  All Rights Reserved.
  
 This is part of the Gaussian(R) 09 program.  It is based on
 the Gaussian(R) 03 system (copyright 2003, Gaussian, Inc.),
 the Gaussian(R) 98 system (copyright 1998, Gaussian, Inc.),
 the Gaussian(R) 94 system (copyright 1995, Gaussian, Inc.),
 the Gaussian 92(TM) system (copyright 1992, Gaussian, Inc.),
 the Gaussian 90(TM) system (copyright 1990, Gaussian, Inc.),
 the Gaussian 88(TM) system (copyright 1988, Gaussian, Inc.),
 the Gaussian 86(TM) system (copyright 1986, Carnegie Mellon
 University), and the Gaussian 82(TM) system (copyright 1983,
 Carnegie Mellon University). Gaussian is a federally registered
 trademark of Gaussian, Inc.
  
 This software contains proprietary and confidential information,
 including trade secrets, belonging to Gaussian, Inc.
  
 This software is provided under written license and may be
 used, copied, transmitted, or stored only in accord with that
 written license.
  
 The following legend is applicable only to US Government
 contracts under FAR:
  
                    RESTRICTED RIGHTS LEGEND
  
 Use, reproduction and disclosure by the US Government is
 subject to restrictions as set forth in subparagraphs (a)
 and (c) of the Commercial Computer Software - Restricted
 Rights clause in FAR 52.227-19.
  
 Gaussian, Inc.
 340 Quinnipiac St., Bldg. 40, Wallingford CT 06492
  
  
 ---------------------------------------------------------------
 Warning -- This program may not be used in any manner that
 competes with the business of Gaussian, Inc. or will provide
 assistance to any competitor of Gaussian, Inc.  The licensee
 of this program is prohibited from giving any competitor of
 Gaussian, Inc. access to this program.  By using this program,
 the user acknowledges that Gaussian, Inc. is engaged in the
 business of creating and licensing software in the field of
 computational chemistry and represents and warrants to the
 licensee that it is not a competitor of Gaussian, Inc. and that
 it will not use this program in any manner prohibited above.
 ---------------------------------------------------------------
  

 Cite this work as:
 Gaussian 09, Revision D.01,
 M. J. Frisch, G. W. Trucks, H. B. Schlegel, G. E. Scuseria, 
 M. A. Robb, J. R. Cheeseman, G. Scalmani, V. Barone, B. Mennucci, 
 G. A. Petersson, H. Nakatsuji, M. Caricato, X. Li, H. P. Hratchian, 
 A. F. Izmaylov, J. Bloino, G. Zheng, J. L. Sonnenberg, M. Hada, 
 M. Ehara, K. Toyota, R. Fukuda, J. Hasegawa, M. Ishida, T. Nakajima, 
 Y. Honda, O. Kitao, H. Nakai, T. Vreven, J. A. Montgomery, Jr., 
 J. E. Peralta, F. Ogliaro, M. Bearpark, J. J. Heyd, E. Brothers, 
 K. N. Kudin, V. N. Staroverov, T. Keith, R. Kobayashi, J. Normand, 
 K. Raghavachari, A. Rendell, J. C. Burant, S. S. Iyengar, J. Tomasi, 
 M. Cossi, N. Rega, J. M. Millam, M. Klene, J. E. Knox, J. B. Cross, 
 V. Bakken, C. Adamo, J. Jaramillo, R. Gomperts, R. E. Stratmann, 
 O. Yazyev, A. J. Austin, R. Cammi, C. Pomelli, J. W. Ochterski, 
 R. L. Martin, K. Morokuma, V. G. Zakrzewski, G. A. Voth, 
 P. Salvador, J. J. Dannenberg, S. Dapprich, A. D. Daniels, 
 O. Farkas, J. B. Foresman, J. V. Ortiz, J. Cioslowski, 
 and D. J. Fox, Gaussian, Inc., Wallingford CT, 2013.
 
 ******************************************
 Gaussian 09:  ES64L-G09RevD.01 24-Apr-2013
                25-Feb-2022 
 ******************************************
 %nprocshared=8
 Will use up to    8 processors via shared memory.
 %mem=4GB
 %NoSave
 %chk="ts_cyclo_water2.chk"
 ----------------------------------------------------------------------
 #n wB97XD/Def2TZVP scrf(smd,solvent=toluene) opt=(calcfc,ts,noeigentes
 t) int=(grid=ultrafine)
 ----------------------------------------------------------------------
 1/5=1,10=4,11=1,14=-1,18=20,26=4,38=1/1,3;
 2/9=110,12=2,17=6,18=5,40=1/2;
 3/5=44,7=101,11=2,16=1,25=1,30=1,70=32201,71=2,72=13,74=-58,75=-5,140=1/1,2,3;
 4//1;
 5/5=2,38=5,53=13/2;
 8/6=4,10=90,11=11/1;
 11/6=1,8=1,9=11,15=111,16=1/1,2,10;
 10/6=1,13=1/2;
 6/7=2,8=2,9=2,10=2,28=1/1;
 7/10=1,18=20,25=1/1,2,3,16;
 1/5=1,10=4,11=1,14=-1,18=20,26=4/3(2);
 2/9=110/2;
 99//99;
 2/9=110/2;
 3/5=44,7=101,11=2,16=1,25=1,30=1,70=32205,71=1,72=13,74=-58,75=-5/1,2,3;
 4/5=5,16=3,69=1/1;
 5/5=2,38=5,53=13/2;
 7//1,2,3,16;
 1/5=1,11=1,14=-1,18=20,26=4/3(-5);
 2/9=110/2;
 6/7=2,8=2,9=2,10=2,19=2,28=1/1;
 99/9=1/99;
 -----------------------------------------
 ts cycloaddition toluene with 4 h2o - opt
 -----------------------------------------
 Symbolic Z-matrix:
 Charge =  0 Multiplicity = 1
 C                    -0.50496  -1.05898  -1.19622 
 C                    -1.58832  -1.94164  -0.50531 
 C                     0.41994  -2.86692   0.1065 
 C                     0.76109  -1.84977  -0.94363 
 H                    -0.68208  -0.50554  -2.10389 
 H                     1.75371  -1.51452  -1.19299 
 C                    -0.91194  -2.5114    0.72968 
 H                    -1.45418  -3.38174   1.0991 
 H                    -0.80844  -1.77786   1.52636 
 C                    -1.12939  -2.6842   -1.6538 
 H                    -1.61539  -2.71635  -2.6165 
 C                     0.20385  -3.23689  -1.32734 
 H                     0.74106  -3.97524  -1.89789 
 H                    -2.59292  -1.5432   -0.47586 
 H                     1.22366  -3.32047   0.66467 
 N                     0.63762   0.23542   0.87367 
 N                    -0.17844   0.57257  -0.07053 
 C                     1.97745   0.40863   0.55998 
 C                    -1.51338   0.78017   0.40136 
 O                    -1.87318   0.71755   1.54782 
 O                     2.8482    0.06602   1.33214 
 O                    -2.27211   1.12396  -0.62194 
 O                     2.23847   1.00011  -0.61504 
 C                     3.61473   1.18189  -0.93963 
 H                     3.62802   1.66612  -1.91366 
 H                     4.10921   1.81472  -0.20286 
 H                     4.13334   0.22457  -0.99919 
 C                    -3.60261   1.55002  -0.31378 
 H                    -4.17808   0.73413   0.12453 
 H                    -3.56821   2.39952   0.36661 
 H                    -4.03696   1.85041  -1.26348 
 O                    -1.39494   4.03525   0.36551 
 H                    -0.87265   3.74961  -0.40257 
 H                    -0.87006   3.79478   1.13129 
 O                    -3.964    -1.20282   1.85298 
 H                    -4.35547  -1.32635   2.7191 
 H                    -3.29707  -0.51061   1.96242 
 O                     0.16123   2.93561  -1.76579 
 H                     1.07391   3.22999  -1.78796 
 H                     0.19687   2.05153  -1.35954 
 O                     5.66877  -0.25874   1.38174 
 H                     4.70799  -0.12639   1.37693 
 H                     5.89132  -0.43398   2.29715 
 
 Add virtual bond connecting atoms H42        and O21        Dist= 3.53D+00.
 Add virtual bond connecting atoms O38        and H33        Dist= 3.58D+00.
 Add virtual bond connecting atoms H37        and O20        Dist= 3.64D+00.
 Add virtual bond connecting atoms H40        and N17        Dist= 3.77D+00.
 Add virtual bond connecting atoms N17        and C1         Dist= 3.80D+00.

 GradGradGradGradGradGradGradGradGradGradGradGradGradGradGradGradGradGrad
 Berny optimization.
 Initialization pass.
                           ----------------------------
                           !    Initial Parameters    !
                           ! (Angstroms and Degrees)  !
 --------------------------                            --------------------------
 ! Name  Definition              Value          Derivative Info.                !
 --------------------------------------------------------------------------------
 ! R1    R(1,2)                  1.5589         calculate D2E/DX2 analytically  !
 ! R2    R(1,4)                  1.5139         calculate D2E/DX2 analytically  !
 ! R3    R(1,5)                  1.0777         calculate D2E/DX2 analytically  !
 ! R4    R(1,10)                 1.8002         calculate D2E/DX2 analytically  !
 ! R5    R(1,17)                 2.0089         calculate D2E/DX2 analytically  !
 ! R6    R(2,7)                  1.519          calculate D2E/DX2 analytically  !
 ! R7    R(2,10)                 1.4426         calculate D2E/DX2 analytically  !
 ! R8    R(2,14)                 1.0811         calculate D2E/DX2 analytically  !
 ! R9    R(3,4)                  1.5012         calculate D2E/DX2 analytically  !
 ! R10   R(3,7)                  1.5128         calculate D2E/DX2 analytically  !
 ! R11   R(3,12)                 1.4965         calculate D2E/DX2 analytically  !
 ! R12   R(3,15)                 1.0785         calculate D2E/DX2 analytically  !
 ! R13   R(4,6)                  1.077          calculate D2E/DX2 analytically  !
 ! R14   R(4,12)                 1.5433         calculate D2E/DX2 analytically  !
 ! R15   R(7,8)                  1.0899         calculate D2E/DX2 analytically  !
 ! R16   R(7,9)                  1.0879         calculate D2E/DX2 analytically  !
 ! R17   R(10,11)                1.0789         calculate D2E/DX2 analytically  !
 ! R18   R(10,12)                1.4797         calculate D2E/DX2 analytically  !
 ! R19   R(12,13)                1.0767         calculate D2E/DX2 analytically  !
 ! R20   R(16,17)                1.2927         calculate D2E/DX2 analytically  !
 ! R21   R(16,18)                1.3869         calculate D2E/DX2 analytically  !
 ! R22   R(17,19)                1.431          calculate D2E/DX2 analytically  !
 ! R23   R(17,40)                1.9974         calculate D2E/DX2 analytically  !
 ! R24   R(18,21)                1.2132         calculate D2E/DX2 analytically  !
 ! R25   R(18,23)                1.3411         calculate D2E/DX2 analytically  !
 ! R26   R(19,20)                1.2032         calculate D2E/DX2 analytically  !
 ! R27   R(19,22)                1.3195         calculate D2E/DX2 analytically  !
 ! R28   R(20,37)                1.9255         calculate D2E/DX2 analytically  !
 ! R29   R(21,42)                1.8703         calculate D2E/DX2 analytically  !
 ! R30   R(22,28)                1.4306         calculate D2E/DX2 analytically  !
 ! R31   R(23,24)                1.4257         calculate D2E/DX2 analytically  !
 ! R32   R(24,25)                1.0878         calculate D2E/DX2 analytically  !
 ! R33   R(24,26)                1.0899         calculate D2E/DX2 analytically  !
 ! R34   R(24,27)                1.0904         calculate D2E/DX2 analytically  !
 ! R35   R(28,29)                1.0904         calculate D2E/DX2 analytically  !
 ! R36   R(28,30)                1.0889         calculate D2E/DX2 analytically  !
 ! R37   R(28,31)                1.0867         calculate D2E/DX2 analytically  !
 ! R38   R(32,33)                0.9718         calculate D2E/DX2 analytically  !
 ! R39   R(32,34)                0.959          calculate D2E/DX2 analytically  !
 ! R40   R(33,38)                1.8947         calculate D2E/DX2 analytically  !
 ! R41   R(35,36)                0.9585         calculate D2E/DX2 analytically  !
 ! R42   R(35,37)                0.9674         calculate D2E/DX2 analytically  !
 ! R43   R(38,39)                0.9592         calculate D2E/DX2 analytically  !
 ! R44   R(38,40)                0.9736         calculate D2E/DX2 analytically  !
 ! R45   R(41,42)                0.9699         calculate D2E/DX2 analytically  !
 ! R46   R(41,43)                0.9582         calculate D2E/DX2 analytically  !
 ! A1    A(2,1,4)              102.2083         calculate D2E/DX2 analytically  !
 ! A2    A(2,1,5)              123.3544         calculate D2E/DX2 analytically  !
 ! A3    A(2,1,17)             108.9327         calculate D2E/DX2 analytically  !
 ! A4    A(4,1,5)              123.1051         calculate D2E/DX2 analytically  !
 ! A5    A(4,1,10)              82.0049         calculate D2E/DX2 analytically  !
 ! A6    A(4,1,17)             101.2335         calculate D2E/DX2 analytically  !
 ! A7    A(5,1,10)             101.1004         calculate D2E/DX2 analytically  !
 ! A8    A(5,1,17)              94.6792         calculate D2E/DX2 analytically  !
 ! A9    A(10,1,17)            158.7541         calculate D2E/DX2 analytically  !
 ! A10   A(1,2,7)              105.2643         calculate D2E/DX2 analytically  !
 ! A11   A(1,2,14)             116.6902         calculate D2E/DX2 analytically  !
 ! A12   A(7,2,10)             108.2131         calculate D2E/DX2 analytically  !
 ! A13   A(7,2,14)             121.9955         calculate D2E/DX2 analytically  !
 ! A14   A(10,2,14)            120.4643         calculate D2E/DX2 analytically  !
 ! A15   A(4,3,7)              109.2073         calculate D2E/DX2 analytically  !
 ! A16   A(4,3,15)             118.5283         calculate D2E/DX2 analytically  !
 ! A17   A(7,3,12)             109.0054         calculate D2E/DX2 analytically  !
 ! A18   A(7,3,15)             122.7998         calculate D2E/DX2 analytically  !
 ! A19   A(12,3,15)            119.9672         calculate D2E/DX2 analytically  !
 ! A20   A(1,4,3)              106.2945         calculate D2E/DX2 analytically  !
 ! A21   A(1,4,6)              124.7176         calculate D2E/DX2 analytically  !
 ! A22   A(1,4,12)              97.2411         calculate D2E/DX2 analytically  !
 ! A23   A(3,4,6)              125.6137         calculate D2E/DX2 analytically  !
 ! A24   A(6,4,12)             123.7108         calculate D2E/DX2 analytically  !
 ! A25   A(2,7,3)               98.3522         calculate D2E/DX2 analytically  !
 ! A26   A(2,7,8)              110.705          calculate D2E/DX2 analytically  !
 ! A27   A(2,7,9)              112.6344         calculate D2E/DX2 analytically  !
 ! A28   A(3,7,8)              112.9514         calculate D2E/DX2 analytically  !
 ! A29   A(3,7,9)              112.1086         calculate D2E/DX2 analytically  !
 ! A30   A(8,7,9)              109.7275         calculate D2E/DX2 analytically  !
 ! A31   A(1,10,11)            114.2026         calculate D2E/DX2 analytically  !
 ! A32   A(1,10,12)             88.2004         calculate D2E/DX2 analytically  !
 ! A33   A(2,10,11)            125.6213         calculate D2E/DX2 analytically  !
 ! A34   A(2,10,12)            107.6532         calculate D2E/DX2 analytically  !
 ! A35   A(11,10,12)           126.2706         calculate D2E/DX2 analytically  !
 ! A36   A(3,12,10)            104.4272         calculate D2E/DX2 analytically  !
 ! A37   A(3,12,13)            127.2442         calculate D2E/DX2 analytically  !
 ! A38   A(4,12,10)             92.5487         calculate D2E/DX2 analytically  !
 ! A39   A(4,12,13)            124.607          calculate D2E/DX2 analytically  !
 ! A40   A(10,12,13)           126.0702         calculate D2E/DX2 analytically  !
 ! A41   A(17,16,18)           114.3348         calculate D2E/DX2 analytically  !
 ! A42   A(1,17,16)            107.4614         calculate D2E/DX2 analytically  !
 ! A43   A(1,17,19)             98.6835         calculate D2E/DX2 analytically  !
 ! A44   A(1,17,40)            105.6805         calculate D2E/DX2 analytically  !
 ! A45   A(16,17,19)           112.6976         calculate D2E/DX2 analytically  !
 ! A46   A(16,17,40)           123.0824         calculate D2E/DX2 analytically  !
 ! A47   A(19,17,40)           106.3001         calculate D2E/DX2 analytically  !
 ! A48   A(16,18,21)           120.9403         calculate D2E/DX2 analytically  !
 ! A49   A(16,18,23)           116.1842         calculate D2E/DX2 analytically  !
 ! A50   A(21,18,23)           122.8537         calculate D2E/DX2 analytically  !
 ! A51   A(17,19,20)           125.8454         calculate D2E/DX2 analytically  !
 ! A52   A(17,19,22)           108.5707         calculate D2E/DX2 analytically  !
 ! A53   A(20,19,22)           125.49           calculate D2E/DX2 analytically  !
 ! A54   A(19,20,37)           117.3533         calculate D2E/DX2 analytically  !
 ! A55   A(18,21,42)           139.2899         calculate D2E/DX2 analytically  !
 ! A56   A(19,22,28)           116.4439         calculate D2E/DX2 analytically  !
 ! A57   A(18,23,24)           116.3333         calculate D2E/DX2 analytically  !
 ! A58   A(23,24,25)           105.8077         calculate D2E/DX2 analytically  !
 ! A59   A(23,24,26)           110.9841         calculate D2E/DX2 analytically  !
 ! A60   A(23,24,27)           111.0774         calculate D2E/DX2 analytically  !
 ! A61   A(25,24,26)           109.9553         calculate D2E/DX2 analytically  !
 ! A62   A(25,24,27)           109.6386         calculate D2E/DX2 analytically  !
 ! A63   A(26,24,27)           109.3246         calculate D2E/DX2 analytically  !
 ! A64   A(22,28,29)           110.7671         calculate D2E/DX2 analytically  !
 ! A65   A(22,28,30)           109.727          calculate D2E/DX2 analytically  !
 ! A66   A(22,28,31)           105.4149         calculate D2E/DX2 analytically  !
 ! A67   A(29,28,30)           110.4408         calculate D2E/DX2 analytically  !
 ! A68   A(29,28,31)           110.3162         calculate D2E/DX2 analytically  !
 ! A69   A(30,28,31)           110.0627         calculate D2E/DX2 analytically  !
 ! A70   A(33,32,34)           105.264          calculate D2E/DX2 analytically  !
 ! A71   A(36,35,37)           105.7569         calculate D2E/DX2 analytically  !
 ! A72   A(20,37,35)           160.3546         calculate D2E/DX2 analytically  !
 ! A73   A(33,38,39)           113.8265         calculate D2E/DX2 analytically  !
 ! A74   A(33,38,40)            96.308          calculate D2E/DX2 analytically  !
 ! A75   A(39,38,40)           104.6838         calculate D2E/DX2 analytically  !
 ! A76   A(17,40,38)           159.1868         calculate D2E/DX2 analytically  !
 ! A77   A(42,41,43)           105.0563         calculate D2E/DX2 analytically  !
 ! A78   L(32,33,38,2,-1)      172.0322         calculate D2E/DX2 analytically  !
 ! A79   L(21,42,41,25,-1)     179.9005         calculate D2E/DX2 analytically  !
 ! A80   L(32,33,38,2,-2)      183.9092         calculate D2E/DX2 analytically  !
 ! A81   L(21,42,41,25,-2)     182.3614         calculate D2E/DX2 analytically  !
 ! D1    D(4,1,2,7)             36.3302         calculate D2E/DX2 analytically  !
 ! D2    D(4,1,2,14)           175.0877         calculate D2E/DX2 analytically  !
 ! D3    D(5,1,2,7)           -179.4345         calculate D2E/DX2 analytically  !
 ! D4    D(5,1,2,14)           -40.6771         calculate D2E/DX2 analytically  !
 ! D5    D(17,1,2,7)           -70.2243         calculate D2E/DX2 analytically  !
 ! D6    D(17,1,2,14)           68.5331         calculate D2E/DX2 analytically  !
 ! D7    D(2,1,4,3)            -13.8342         calculate D2E/DX2 analytically  !
 ! D8    D(2,1,4,6)           -173.9919         calculate D2E/DX2 analytically  !
 ! D9    D(2,1,4,12)            45.773          calculate D2E/DX2 analytically  !
 ! D10   D(5,1,4,3)           -158.1868         calculate D2E/DX2 analytically  !
 ! D11   D(5,1,4,6)             41.6555         calculate D2E/DX2 analytically  !
 ! D12   D(5,1,4,12)           -98.5796         calculate D2E/DX2 analytically  !
 ! D13   D(10,1,4,3)           -60.1091         calculate D2E/DX2 analytically  !
 ! D14   D(10,1,4,6)           139.7332         calculate D2E/DX2 analytically  !
 ! D15   D(10,1,4,12)           -0.5019         calculate D2E/DX2 analytically  !
 ! D16   D(17,1,4,3)            98.5875         calculate D2E/DX2 analytically  !
 ! D17   D(17,1,4,6)           -61.5702         calculate D2E/DX2 analytically  !
 ! D18   D(17,1,4,12)          158.1947         calculate D2E/DX2 analytically  !
 ! D19   D(4,1,10,11)         -128.8863         calculate D2E/DX2 analytically  !
 ! D20   D(4,1,10,12)            0.5196         calculate D2E/DX2 analytically  !
 ! D21   D(5,1,10,11)           -6.5766         calculate D2E/DX2 analytically  !
 ! D22   D(5,1,10,12)          122.8292         calculate D2E/DX2 analytically  !
 ! D23   D(17,1,10,11)         130.65           calculate D2E/DX2 analytically  !
 ! D24   D(17,1,10,12)         -99.9442         calculate D2E/DX2 analytically  !
 ! D25   D(2,1,17,16)           81.7138         calculate D2E/DX2 analytically  !
 ! D26   D(2,1,17,19)          -35.4952         calculate D2E/DX2 analytically  !
 ! D27   D(2,1,17,40)         -145.2364         calculate D2E/DX2 analytically  !
 ! D28   D(4,1,17,16)          -25.5069         calculate D2E/DX2 analytically  !
 ! D29   D(4,1,17,19)         -142.716          calculate D2E/DX2 analytically  !
 ! D30   D(4,1,17,40)          107.5429         calculate D2E/DX2 analytically  !
 ! D31   D(5,1,17,16)         -150.6039         calculate D2E/DX2 analytically  !
 ! D32   D(5,1,17,19)           92.187          calculate D2E/DX2 analytically  !
 ! D33   D(5,1,17,40)          -17.5541         calculate D2E/DX2 analytically  !
 ! D34   D(10,1,17,16)          71.357          calculate D2E/DX2 analytically  !
 ! D35   D(10,1,17,19)         -45.852          calculate D2E/DX2 analytically  !
 ! D36   D(10,1,17,40)        -155.5932         calculate D2E/DX2 analytically  !
 ! D37   D(1,2,7,3)            -42.8663         calculate D2E/DX2 analytically  !
 ! D38   D(1,2,7,8)           -161.3452         calculate D2E/DX2 analytically  !
 ! D39   D(1,2,7,9)             75.3862         calculate D2E/DX2 analytically  !
 ! D40   D(10,2,7,3)            34.5147         calculate D2E/DX2 analytically  !
 ! D41   D(10,2,7,8)           -83.9642         calculate D2E/DX2 analytically  !
 ! D42   D(10,2,7,9)           152.7672         calculate D2E/DX2 analytically  !
 ! D43   D(14,2,7,3)          -178.8783         calculate D2E/DX2 analytically  !
 ! D44   D(14,2,7,8)            62.6428         calculate D2E/DX2 analytically  !
 ! D45   D(14,2,7,9)           -60.6258         calculate D2E/DX2 analytically  !
 ! D46   D(7,2,10,11)          161.6365         calculate D2E/DX2 analytically  !
 ! D47   D(7,2,10,12)          -25.7241         calculate D2E/DX2 analytically  !
 ! D48   D(14,2,10,11)          14.4245         calculate D2E/DX2 analytically  !
 ! D49   D(14,2,10,12)        -172.9361         calculate D2E/DX2 analytically  !
 ! D50   D(7,3,4,1)            -13.1701         calculate D2E/DX2 analytically  !
 ! D51   D(7,3,4,6)            146.7583         calculate D2E/DX2 analytically  !
 ! D52   D(15,3,4,1)          -160.553          calculate D2E/DX2 analytically  !
 ! D53   D(15,3,4,6)            -0.6245         calculate D2E/DX2 analytically  !
 ! D54   D(4,3,7,2)             34.558          calculate D2E/DX2 analytically  !
 ! D55   D(4,3,7,8)            151.3171         calculate D2E/DX2 analytically  !
 ! D56   D(4,3,7,9)            -84.0938         calculate D2E/DX2 analytically  !
 ! D57   D(12,3,7,2)           -31.4695         calculate D2E/DX2 analytically  !
 ! D58   D(12,3,7,8)            85.2896         calculate D2E/DX2 analytically  !
 ! D59   D(12,3,7,9)          -150.1213         calculate D2E/DX2 analytically  !
 ! D60   D(15,3,7,2)          -179.7332         calculate D2E/DX2 analytically  !
 ! D61   D(15,3,7,8)           -62.9741         calculate D2E/DX2 analytically  !
 ! D62   D(15,3,7,9)            61.6149         calculate D2E/DX2 analytically  !
 ! D63   D(7,3,12,10)           17.9156         calculate D2E/DX2 analytically  !
 ! D64   D(7,3,12,13)         -145.6772         calculate D2E/DX2 analytically  !
 ! D65   D(15,3,12,10)         167.2265         calculate D2E/DX2 analytically  !
 ! D66   D(15,3,12,13)           3.6337         calculate D2E/DX2 analytically  !
 ! D67   D(1,4,12,10)            0.6053         calculate D2E/DX2 analytically  !
 ! D68   D(1,4,12,13)          138.9164         calculate D2E/DX2 analytically  !
 ! D69   D(6,4,12,10)         -140.1938         calculate D2E/DX2 analytically  !
 ! D70   D(6,4,12,13)           -1.8826         calculate D2E/DX2 analytically  !
 ! D71   D(1,10,12,3)           58.2751         calculate D2E/DX2 analytically  !
 ! D72   D(1,10,12,4)           -0.5052         calculate D2E/DX2 analytically  !
 ! D73   D(1,10,12,13)        -137.8769         calculate D2E/DX2 analytically  !
 ! D74   D(2,10,12,3)            4.7545         calculate D2E/DX2 analytically  !
 ! D75   D(2,10,12,4)          -54.0259         calculate D2E/DX2 analytically  !
 ! D76   D(2,10,12,13)         168.6024         calculate D2E/DX2 analytically  !
 ! D77   D(11,10,12,3)         177.3328         calculate D2E/DX2 analytically  !
 ! D78   D(11,10,12,4)         118.5525         calculate D2E/DX2 analytically  !
 ! D79   D(11,10,12,13)        -18.8192         calculate D2E/DX2 analytically  !
 ! D80   D(18,16,17,1)          90.5314         calculate D2E/DX2 analytically  !
 ! D81   D(18,16,17,19)       -161.8234         calculate D2E/DX2 analytically  !
 ! D82   D(18,16,17,40)        -32.3614         calculate D2E/DX2 analytically  !
 ! D83   D(17,16,18,21)       -176.1716         calculate D2E/DX2 analytically  !
 ! D84   D(17,16,18,23)          5.4789         calculate D2E/DX2 analytically  !
 ! D85   D(1,17,19,20)         116.2676         calculate D2E/DX2 analytically  !
 ! D86   D(1,17,19,22)         -67.1085         calculate D2E/DX2 analytically  !
 ! D87   D(16,17,19,20)          3.1322         calculate D2E/DX2 analytically  !
 ! D88   D(16,17,19,22)        179.7562         calculate D2E/DX2 analytically  !
 ! D89   D(40,17,19,20)       -134.493          calculate D2E/DX2 analytically  !
 ! D90   D(40,17,19,22)         42.1309         calculate D2E/DX2 analytically  !
 ! D91   D(1,17,40,38)         135.7572         calculate D2E/DX2 analytically  !
 ! D92   D(16,17,40,38)       -100.5431         calculate D2E/DX2 analytically  !
 ! D93   D(19,17,40,38)         31.5478         calculate D2E/DX2 analytically  !
 ! D94   D(16,18,21,42)        171.0735         calculate D2E/DX2 analytically  !
 ! D95   D(23,18,21,42)        -10.6897         calculate D2E/DX2 analytically  !
 ! D96   D(16,18,23,24)        179.8928         calculate D2E/DX2 analytically  !
 ! D97   D(21,18,23,24)          1.578          calculate D2E/DX2 analytically  !
 ! D98   D(17,19,20,37)       -123.6764         calculate D2E/DX2 analytically  !
 ! D99   D(22,19,20,37)         60.255          calculate D2E/DX2 analytically  !
 ! D100  D(17,19,22,28)       -171.751          calculate D2E/DX2 analytically  !
 ! D101  D(20,19,22,28)          4.8879         calculate D2E/DX2 analytically  !
 ! D102  D(19,20,37,35)          5.6917         calculate D2E/DX2 analytically  !
 ! D103  D(18,21,41,43)        171.6063         calculate D2E/DX2 analytically  !
 ! D104  D(19,22,28,29)        -64.4468         calculate D2E/DX2 analytically  !
 ! D105  D(19,22,28,30)         57.7461         calculate D2E/DX2 analytically  !
 ! D106  D(19,22,28,31)        176.2297         calculate D2E/DX2 analytically  !
 ! D107  D(18,23,24,25)        179.8427         calculate D2E/DX2 analytically  !
 ! D108  D(18,23,24,26)        -60.9163         calculate D2E/DX2 analytically  !
 ! D109  D(18,23,24,27)         60.9312         calculate D2E/DX2 analytically  !
 ! D110  D(34,32,38,39)        -55.1207         calculate D2E/DX2 analytically  !
 ! D111  D(34,32,38,40)         52.7034         calculate D2E/DX2 analytically  !
 ! D112  D(36,35,37,20)        176.7572         calculate D2E/DX2 analytically  !
 ! D113  D(33,38,40,17)          5.6745         calculate D2E/DX2 analytically  !
 ! D114  D(39,38,40,17)        122.3617         calculate D2E/DX2 analytically  !
 --------------------------------------------------------------------------------
 Trust Radius=3.00D-01 FncErr=1.00D-07 GrdErr=1.00D-06
 Number of steps in this run=    251 maximum allowed number of steps=    258.
 Search for a saddle point of order  1.
 GradGradGradGradGradGradGradGradGradGradGradGradGradGradGradGradGradGrad

                          Input orientation:                          
 ---------------------------------------------------------------------
 Center     Atomic      Atomic             Coordinates (Angstroms)
 Number     Number       Type             X           Y           Z
 ---------------------------------------------------------------------
      1          6           0       -0.504960   -1.058980   -1.196220
      2          6           0       -1.588320   -1.941640   -0.505310
      3          6           0        0.419940   -2.866920    0.106500
      4          6           0        0.761090   -1.849770   -0.943630
      5          1           0       -0.682080   -0.505540   -2.103890
      6          1           0        1.753710   -1.514520   -1.192990
      7          6           0       -0.911940   -2.511400    0.729680
      8          1           0       -1.454180   -3.381740    1.099100
      9          1           0       -0.808440   -1.777860    1.526360
     10          6           0       -1.129390   -2.684200   -1.653800
     11          1           0       -1.615390   -2.716350   -2.616500
     12          6           0        0.203850   -3.236890   -1.327340
     13          1           0        0.741060   -3.975240   -1.897890
     14          1           0       -2.592920   -1.543200   -0.475860
     15          1           0        1.223660   -3.320470    0.664670
     16          7           0        0.637620    0.235420    0.873670
     17          7           0       -0.178440    0.572570   -0.070530
     18          6           0        1.977450    0.408630    0.559980
     19          6           0       -1.513380    0.780170    0.401360
     20          8           0       -1.873180    0.717550    1.547820
     21          8           0        2.848200    0.066020    1.332140
     22          8           0       -2.272110    1.123960   -0.621940
     23          8           0        2.238470    1.000110   -0.615040
     24          6           0        3.614730    1.181890   -0.939630
     25          1           0        3.628020    1.666120   -1.913660
     26          1           0        4.109210    1.814720   -0.202860
     27          1           0        4.133340    0.224570   -0.999190
     28          6           0       -3.602610    1.550020   -0.313780
     29          1           0       -4.178080    0.734130    0.124530
     30          1           0       -3.568210    2.399520    0.366610
     31          1           0       -4.036960    1.850410   -1.263480
     32          8           0       -1.394940    4.035250    0.365510
     33          1           0       -0.872650    3.749610   -0.402570
     34          1           0       -0.870060    3.794780    1.131290
     35          8           0       -3.964000   -1.202820    1.852980
     36          1           0       -4.355470   -1.326350    2.719100
     37          1           0       -3.297070   -0.510610    1.962420
     38          8           0        0.161230    2.935610   -1.765790
     39          1           0        1.073910    3.229990   -1.787960
     40          1           0        0.196870    2.051530   -1.359540
     41          8           0        5.668770   -0.258740    1.381740
     42          1           0        4.707990   -0.126390    1.376930
     43          1           0        5.891320   -0.433980    2.297150
 ---------------------------------------------------------------------
                    Distance matrix (angstroms):
                    1          2          3          4          5
     1  C    0.000000
     2  C    1.558882   0.000000
     3  C    2.412709   2.294246   0.000000
     4  C    1.513946   2.391713   1.501250   0.000000
     5  H    1.077744   2.332190   3.417073   2.288208   0.000000
     6  H    2.304152   3.438677   2.301435   1.076971   2.789418
     7  C    2.446272   1.518985   1.512829   2.456980   3.479286
     8  H    3.400695   2.160096   2.182343   3.380399   4.373535
     9  H    2.832195   2.182366   2.170477   2.927362   3.848828
    10  C    1.800176   1.442581   2.352119   2.185070   2.269191
    11  H    2.448903   2.249007   3.402935   3.032674   2.453878
    12  C    2.294100   2.359084   1.496486   1.543325   2.974588
    13  H    3.247996   3.391286   2.312806   2.329943   3.755873
    14  H    2.261187   1.081130   3.341961   3.400320   2.716345
    15  H    3.400790   3.343240   1.078530   2.227904   4.384131
    16  N    2.695442   3.405288   3.203193   2.768726   3.340134
    17  N    2.008917   2.915141   3.495639   2.740940   2.355956
    18  C    3.376459   4.401514   3.655230   2.973339   3.873630
    19  C    2.636597   2.869829   4.138349   3.728109   2.936050
    20  O    3.543704   3.371614   4.492686   4.442728   4.031086
    21  O    4.347633   5.204770   4.000097   3.633925   4.959421
    22  O    2.866678   3.143100   4.868766   4.259913   2.716550
    23  O    3.479085   4.828070   4.333773   3.226831   3.607391
    24  C    4.696720   6.084144   5.262503   4.163441   4.760830
    25  H    5.002241   6.496890   5.909423   4.639152   4.830037
    26  H    5.525892   6.831073   5.968599   5.018679   5.652785
    27  H    4.816653   6.137897   4.956733   3.959551   4.994166
    28  C    4.144999   4.035559   5.988898   5.567509   3.994911
    29  H    4.295513   3.776678   5.840349   5.675641   4.327199
    30  H    4.877208   4.850348   6.611232   6.206129   4.782519
    31  H    4.576472   4.577150   6.632798   6.067530   4.184735
    32  O    5.402059   6.043090   7.141486   6.402794   5.217747
    33  H    4.887496   5.736991   6.760800   5.857893   4.586623
    34  H    5.395330   6.008400   6.862401   6.231123   5.384652
    35  O    4.613379   3.428008   5.003834   5.528657   5.187872
    36  H    5.497967   4.293311   5.657170   6.314170   6.117905
    37  H    4.251305   3.325262   4.776275   5.167895   4.834571
    38  O    4.089617   5.332664   6.102602   4.892406   3.559072
    39  H    4.608498   5.956376   6.417863   5.158945   4.139746
    40  H    3.192884   4.456682   5.137138   3.963769   2.804499
    41  O    6.738042   7.684951   5.998254   5.658979   7.248712
    42  H    5.887756   6.817733   5.245176   4.892142   6.427497
    43  H    7.314824   8.128458   6.376060   6.231081   7.910996
                    6          7          8          9         10
     6  H    0.000000
     7  C    3.434548   0.000000
     8  H    4.362424   1.089948   0.000000
     9  H    3.745507   1.087884   1.781000   0.000000
    10  C    3.145276   2.399609   2.858410   3.322330   0.000000
    11  H    3.849885   3.425459   3.778150   4.323797   1.078898
    12  C    2.320921   2.450031   2.942390   3.361116   1.479720
    13  H    2.752724   3.432107   3.762083   4.353725   2.285814
    14  H    4.405484   2.283951   2.675342   2.692270   2.198032
    15  H    2.644487   2.284646   2.713542   2.692877   3.364073
    16  N    2.928998   3.157038   4.184530   2.563277   4.246718
    17  N    3.057624   3.269439   4.316493   2.910581   3.744009
    18  C    2.611794   4.111441   5.141366   3.670942   4.911097
    19  C    4.299004   3.362136   4.220408   2.882028   4.046355
    20  O    5.064436   3.466908   4.145008   2.713154   4.730275
    21  O    3.173688   4.598337   5.518318   4.099833   5.683377
    22  O    4.847154   4.110083   4.892067   3.895906   4.107630
    23  O    2.625335   4.905513   5.981183   4.646114   5.098592
    24  C    3.286064   6.075996   7.118777   5.865634   6.161442
    25  H    3.761499   6.711941   7.770867   6.586115   6.451803
    26  H    4.196734   6.693048   7.723316   6.330886   7.056092
    27  H    2.953749   5.994112   6.973426   5.899942   6.048618
    28  C    6.233344   4.982333   5.561856   4.718929   5.083413
    29  H    6.479075   4.644065   5.030885   4.430541   4.913446
    30  H    6.787849   5.595063   6.199083   5.139246   5.989500
    31  H    6.697730   5.723969   6.295072   5.600972   5.400833
    32  O    6.568323   6.574537   7.453416   5.956828   7.021334
    33  H    5.935789   6.362687   7.310906   5.854726   6.559375
    34  H    6.362005   6.319094   7.200324   5.586966   7.056994
    35  O    6.485931   3.505603   3.408111   3.224114   4.746262
    36  H    7.256854   4.149703   3.907238   3.769338   5.601214
    37  H    6.039439   3.348381   3.519226   2.826544   4.743456
    38  O    4.761066   6.086788   7.122223   5.830550   5.767192
    39  H    4.829751   6.576144   7.644693   6.293371   6.312699
    40  H    3.894638   5.139517   6.187996   4.899316   4.926733
    41  O    4.851176   6.986086   7.782637   6.654539   7.830220
    42  H    4.154415   6.139285   6.974728   5.760268   7.057104
    43  H    5.519824   7.284022   8.005060   6.876548   8.364440
                   11         12         13         14         15
    11  H    0.000000
    12  C    2.289657   0.000000
    13  H    2.766597   1.076700   0.000000
    14  H    2.629484   3.378687   4.364907   0.000000
    15  H    4.380781   2.239442   2.688557   4.361855   0.000000
    16  N    5.096105   4.133949   5.042014   3.926972   3.609914
    17  N    4.400430   4.029603   4.986712   3.235813   4.202638
    18  C    5.723987   4.471851   5.175722   5.076503   3.805962
    19  C    4.619907   4.698303   5.743081   2.707946   4.937203
    20  O    5.403673   5.312080   6.381963   3.118381   5.164879
    21  O    6.577004   4.997463   5.586136   5.955186   3.814834
    22  O    4.376932   5.064087   6.058802   2.690353   5.799028
    23  O    5.715781   4.753864   5.351827   5.461696   4.618973
    24  C    6.735156   5.595537   5.980989   6.795301   5.344365
    25  H    6.869744   6.009011   6.337170   7.146125   6.106948
    26  H    7.689428   6.483445   6.909501   7.501247   5.953922
    27  H    6.656771   5.246930   5.472991   6.974343   4.878727
    28  C    5.239606   6.199270   7.204538   3.257876   6.926176
    29  H    5.097689   6.089190   7.103963   2.838914   6.775716
    30  H    6.235750   6.990495   8.020931   4.148010   7.467874
    31  H    5.343216   6.623380   7.561094   3.771231   7.624296
    32  O    7.384110   7.635829   8.593802   5.767336   7.813653
    33  H    6.874721   7.129182   8.032020   5.565837   7.451144
    34  H    7.549587   7.526123   8.493812   5.834827   7.431566
    35  O    5.270958   5.623420   6.625174   2.723824   5.727856
    36  H    6.157009   6.388367   7.369385   3.655322   6.270876
    37  H    5.353489   5.523727   6.573595   2.739941   5.478729
    38  O    5.985377   6.188199   6.936390   5.413779   6.795177
    39  H    6.578584   6.541385   7.213752   6.160405   6.996166
    40  H    5.253277   5.288523   6.075189   4.635289   5.831819
    41  O    8.665146   6.787772   6.989326   8.564814   5.444941
    42  H    7.914576   6.105372   6.424533   7.664429   4.780169
    43  H    9.257638   7.303461   7.527553   8.994570   5.725720
                   16         17         18         19         20
    16  N    0.000000
    17  N    1.292725   0.000000
    18  C    1.386920   2.252172   0.000000
    19  C    2.268619   1.431029   3.514128   0.000000
    20  O    2.644058   2.347812   3.987306   1.203224   0.000000
    21  O    2.263969   3.374111   1.213185   4.516607   4.771000
    22  O    3.390115   2.234175   4.468489   1.319472   2.243250
    23  O    2.315973   2.514107   1.341138   3.893305   4.654403
    24  C    3.612070   3.938876   2.351052   5.315745   6.043192
    25  H    4.331120   4.368308   3.228708   5.707733   6.568472
    26  H    3.962959   4.465914   2.665223   5.748817   6.329112
    27  H    3.965827   4.424360   2.666974   5.844286   6.542826
    28  C    4.595407   3.569246   5.762230   2.338584   2.673853
    29  H    4.899070   4.007651   6.179492   2.679437   2.708984
    30  H    4.757042   3.875484   5.895369   2.616453   2.664096
    31  H    5.387699   4.236057   6.448012   3.207111   3.724073
    32  O    4.339151   3.695965   4.956128   3.257431   3.554392
    33  H    4.032274   3.268908   4.495745   3.142358   3.741453
    34  H    3.874082   3.507898   4.461022   3.167733   3.263295
    35  O    4.919603   4.602430   6.290425   3.470589   2.855253
    36  H    5.547584   5.369871   6.912151   4.229281   3.422161
    37  H    4.150147   3.877115   5.534655   2.698995   1.925547
    38  O    3.805880   2.928010   3.885034   3.485223   4.476452
    39  H    4.030145   3.402915   3.780116   4.181962   5.111274
    40  H    2.912000   1.997430   3.090978   2.764431   3.810164
    41  O    5.080827   6.081943   3.840119   7.322824   7.606690
    42  H    4.117291   5.144014   2.899914   6.362313   6.637261
    43  H    5.484137   6.592499   4.364187   7.739364   7.885111
                   21         22         23         24         25
    21  O    0.000000
    22  O    5.581688   0.000000
    23  O    2.244060   4.512285   0.000000
    24  C    2.644555   5.895691   1.425656   0.000000
    25  H    3.701845   6.064158   2.015151   1.087837   0.000000
    26  H    2.646568   6.432264   2.081622   1.089869   1.783385
    27  H    2.666800   6.479275   2.083162   1.090397   1.780357
    28  C    6.820869   1.430636   5.874638   7.253772   7.406423
    29  H    7.160538   2.083724   6.464505   7.877869   8.121454
    30  H    6.895490   2.069821   6.053059   7.401589   7.584407
    31  H    7.571441   2.013454   6.365886   7.687663   7.694713
    32  O    5.890110   3.196888   4.834793   5.911163   6.003126
    33  H    5.515685   2.983396   4.157398   5.197903   5.184627
    34  H    5.269673   3.488960   4.530211   5.588313   5.834007
    35  O    6.948906   3.794947   7.029556   8.421559   8.947467
    36  H    7.466941   4.637559   7.746544   9.121494   9.703270
    37  H    6.204361   3.225101   6.290292   7.685013   8.229157
    38  O    5.005150   3.242162   3.063546   3.960396   3.694875
    39  H    4.784750   4.121992   2.775663   3.371964   2.997494
    40  H    4.268131   2.738668   2.414103   3.551671   3.496910
    41  O    2.839638   8.305671   4.163987   3.418077   4.327749
    42  H    1.870253   7.367540   3.366820   2.876328   3.899668
    43  H    3.231381   8.808510   4.886796   4.274417   5.221481
                   26         27         28         29         30
    26  H    0.000000
    27  H    1.778567   0.000000
    28  C    7.717159   7.878549   0.000000
    29  H    8.363853   8.402506   1.090393   0.000000
    30  H    7.720691   8.118478   1.088928   1.789991   0.000000
    31  H    8.215003   8.334687   1.086657   1.786776   1.782818
    32  O    5.962337   6.851684   3.392876   4.324504   2.720058
    33  H    5.348141   6.151569   3.506959   4.505199   3.111338
    34  H    5.522112   6.505333   3.820210   4.617807   3.132331
    35  O    8.860516   8.702829   3.521872   2.604831   3.916989
    36  H    9.489730   9.396325   4.247195   3.317957   4.476170
    37  H    8.059068   8.032597   3.085553   2.388178   3.330012
    38  O    4.391548   4.869812   4.265523   5.220099   4.329347
    39  H    3.705209   4.360599   5.183179   6.121302   5.184702
    40  H    4.086611   4.354702   3.972553   4.803977   4.156503
    41  O    3.040135   2.874015   9.597129   9.976313   9.665332
    42  H    2.573360   2.469685   8.644936   9.015056   8.711857
    43  H    3.805603   3.793421  10.044298  10.367139  10.061730
                   31         32         33         34         35
    31  H    0.000000
    32  O    3.795709   0.000000
    33  H    3.789589   0.971763   0.000000
    34  H    4.420945   0.959033   1.534527   0.000000
    35  O    4.363469   6.020798   6.258635   5.921934   0.000000
    36  H    5.104331   6.561317   6.902190   6.394935   0.958474
    37  H    4.065499   5.180064   5.442469   5.011740   0.967433
    38  O    4.365177   2.858901   1.894696   3.192930   6.873109
    39  H    5.319710   3.373588   2.445078   3.552468   7.634578
    40  H    4.239693   3.073240   2.223317   3.222033   6.182549
    41  O   10.278468   8.328690   7.876599   7.697405   9.690388
    42  H    9.346318   7.455734   7.023784   6.822797   8.751499
    43  H   10.792000   8.763266   8.398941   8.059646   9.895238
                   36         37         38         39         40
    36  H    0.000000
    37  H    1.535645   0.000000
    38  O    7.660230   6.142949   0.000000
    39  H    8.399523   6.867525   0.959237   0.000000
    40  H    6.983493   5.459633   0.973605   1.530200   0.000000
    41  O   10.169253   8.988154   7.102381   6.582627   6.541686
    42  H    9.240543   8.035634   6.318668   5.872679   5.708048
    43  H   10.294225   9.194804   7.790735   7.302071   7.209431
                   41         42         43
    41  O    0.000000
    42  H    0.969865   0.000000
    43  H    0.958234   1.530257   0.000000
 Stoichiometry    C11H22N2O8
 Framework group  C1[X(C11H22N2O8)]
 Deg. of freedom   123
 Full point group                 C1      NOp   1
 Largest Abelian subgroup         C1      NOp   1
 Largest concise Abelian subgroup C1      NOp   1
                         Standard orientation:                         
 ---------------------------------------------------------------------
 Center     Atomic      Atomic             Coordinates (Angstroms)
 Number     Number       Type             X           Y           Z
 ---------------------------------------------------------------------
      1          6           0       -0.504960   -1.058981   -1.196220
      2          6           0       -1.588319   -1.941642   -0.505310
      3          6           0        0.419942   -2.866920    0.106500
      4          6           0        0.761091   -1.849769   -0.943630
      5          1           0       -0.682080   -0.505541   -2.103890
      6          1           0        1.753711   -1.514518   -1.192990
      7          6           0       -0.911938   -2.511401    0.729680
      8          1           0       -1.454177   -3.381742    1.099100
      9          1           0       -0.808439   -1.777861    1.526360
     10          6           0       -1.129388   -2.684201   -1.653800
     11          1           0       -1.615388   -2.716352   -2.616500
     12          6           0        0.203853   -3.236890   -1.327340
     13          1           0        0.741064   -3.975239   -1.897890
     14          1           0       -2.592919   -1.543203   -0.475860
     15          1           0        1.223663   -3.320469    0.664670
     16          7           0        0.637619    0.235420    0.873670
     17          7           0       -0.178441    0.572570   -0.070530
     18          6           0        1.977449    0.408632    0.559980
     19          6           0       -1.513382    0.780168    0.401360
     20          8           0       -1.873182    0.717548    1.547820
     21          8           0        2.848199    0.066023    1.332140
     22          8           0       -2.272112    1.123957   -0.621940
     23          8           0        2.238468    1.000112   -0.615040
     24          6           0        3.614728    1.181894   -0.939630
     25          1           0        3.628017    1.666124   -1.913660
     26          1           0        4.109207    1.814724   -0.202860
     27          1           0        4.133339    0.224574   -0.999190
     28          6           0       -3.602612    1.550016   -0.313780
     29          1           0       -4.178082    0.734125    0.124530
     30          1           0       -3.568213    2.399516    0.366610
     31          1           0       -4.036963    1.850405   -1.263480
     32          8           0       -1.394945    4.035248    0.365510
     33          1           0       -0.872655    3.749609   -0.402570
     34          1           0       -0.870065    3.794779    1.131290
     35          8           0       -3.963999   -1.202825    1.852980
     36          1           0       -4.355469   -1.326355    2.719100
     37          1           0       -3.297070   -0.510614    1.962420
     38          8           0        0.161226    2.935610   -1.765790
     39          1           0        1.073906    3.229991   -1.787960
     40          1           0        0.196867    2.051530   -1.359540
     41          8           0        5.668770   -0.258734    1.381740
     42          1           0        4.707989   -0.126385    1.376930
     43          1           0        5.891320   -0.433974    2.297150
 ---------------------------------------------------------------------
 Rotational constants (GHZ):      0.3330197      0.2300044      0.1719858
 Standard basis: def2TZVP (5D, 7F)
 There are   888 symmetry adapted cartesian basis functions of A   symmetry.
 There are   783 symmetry adapted basis functions of A   symmetry.
   783 basis functions,  1247 primitive gaussians,   888 cartesian basis functions
    83 alpha electrons       83 beta electrons
       nuclear repulsion energy      1968.8878148107 Hartrees.
 NAtoms=   43 NActive=   43 NUniq=   43 SFac= 1.00D+00 NAtFMM=   60 NAOKFM=F Big=F
 Integral buffers will be    131072 words long.
 Raffenetti 2 integral format.
 Two-electron integral symmetry is turned on.
 Nuclear repulsion after empirical dispersion term =     1968.8515933326 Hartrees.
 Force inversion solution in PCM.
 ------------------------------------------------------------------------------
 Polarizable Continuum Model (PCM)
 =================================
 Model                : PCM (using non-symmetric T matrix).
 Atomic radii         : SMD-Coulomb.
 Polarization charges : Total charges.
 Charge compensation  : None.
 Solution method      : Matrix inversion.
 Cavity type          : VdW (van der Waals Surface) (Alpha=1.000).
 Cavity algorithm     : GePol (No added spheres)
                        Default sphere list used, NSphG=   43.
                        Lebedev-Laikov grids with approx.  5.0 points / Ang**2.
                        Smoothing algorithm: Karplus/York (Gamma=1.0000).
                        Polarization charges: spherical gaussians, with
                                              point-specific exponents (IZeta= 3).
                        Self-potential: point-specific (ISelfS= 7).
                        Self-field    : sphere-specific E.n sum rule (ISelfD= 2).
 1st derivatives      : Analytical E(r).r(x)/FMM algorithm (CHGder, D1EAlg=3).
                        Cavity 1st derivative terms included.
 2nd derivatives      : Analytical E(r).r(xy)/FMM algorithm (CHGder, D2EAlg=3).
                        Cavity 2nd derivative terms included.
 Solvent              : Toluene, Eps=   2.374100 Eps(inf)=   2.238315
 ------------------------------------------------------------------------------
 ------------------------------------------------------------------------------
 Atomic radii for non-electrostatic terms: SMD-CDS.
 ------------------------------------------------------------------------------
 Nuclear repulsion after PCM non-electrostatic terms =     1968.8406599624 Hartrees.
 One-electron integrals computed using PRISM.
   1 Symmetry operations used in ECPInt.
 ECPInt:  NShTT=   51040 NPrTT=  153156 LenC2=   44423 LenP2D=   94209.
 LDataN:  DoStor=T MaxTD1= 6 Len=  172
 NBasis=   783 RedAO= T EigKep=  2.43D-05  NBF=   783
 NBsUse=   783 1.00D-06 EigRej= -1.00D+00 NBFU=   783
 ExpMin= 9.52D-02 ExpMax= 2.70D+04 ExpMxC= 9.22D+02 IAcc=3 IRadAn=         5 AccDes= 0.00D+00
 Harris functional with IExCor= 4639 and IRadAn=       5 diagonalized for initial guess.
 HarFok:  IExCor= 4639 AccDes= 0.00D+00 IRadAn=         5 IDoV= 1 UseB2=F ITyADJ=14
 ICtDFT=  3500011 ScaDFX=  1.000000  1.000000  1.000000  1.000000
 FoFCou: FMM=F IPFlag=           0 FMFlag=      100000 FMFlg1=           0
         NFxFlg=           0 DoJE=T BraDBF=F KetDBF=T FulRan=T
         wScrn=  0.000000 ICntrl=     500 IOpCl=  0 I1Cent=   200000004 NGrid=           0
         NMat0=    1 NMatS0=      1 NMatT0=    0 NMatD0=    1 NMtDS0=    0 NMtDT0=    0
 Petite list used in FoFCou.
 Requested convergence on RMS density matrix=1.00D-08 within 128 cycles.
 Requested convergence on MAX density matrix=1.00D-06.
 Requested convergence on             energy=1.00D-06.
 No special actions if energy rises.
 Inv3:  Mode=1 IEnd=    27980748.
 Iteration    1 A*A^-1 deviation from unit magnitude is 5.77D-15 for   3052.
 Iteration    1 A*A^-1 deviation from orthogonality  is 2.68D-15 for   2133   1257.
 Iteration    1 A^-1*A deviation from unit magnitude is 5.77D-15 for   3052.
 Iteration    1 A^-1*A deviation from orthogonality  is 4.40D-15 for   1321    737.
 Error on total polarization charges =  0.01282
 SCF Done:  E(RwB97XD) =  -1143.67563598     A.U. after   17 cycles
            NFock= 17  Conv=0.72D-08     -V/T= 2.0044
 SMD-CDS (non-electrostatic) energy       (kcal/mol) =      -6.86
 (included in total energy above)
 DoSCS=F DFT=T ScalE2(SS,OS)=  1.000000  1.000000
 Range of M.O.s used for correlation:     1   783
 NBasis=   783 NAE=    83 NBE=    83 NFC=     0 NFV=     0
 NROrb=    783 NOA=    83 NOB=    83 NVA=   700 NVB=   700

 **** Warning!!: The largest alpha MO coefficient is  0.29208464D+02

   1 Symmetry operations used in ECPInt.
 ECPInt:  NShTT=   51040 NPrTT=  153156 LenC2=   44423 LenP2D=   94209.
 LDataN:  DoStor=T MaxTD1= 7 Len=  274
 Number of processors reduced to   3 by ecpmxn.
 Symmetrizing basis deriv contribution to polar:
 IMax=3 JMax=2 DiffMx= 0.00D+00
 G2DrvN: will do    44 centers at a time, making    1 passes.
 Calling FoFCou, ICntrl=  3107 FMM=F I1Cent=   0 AccDes= 0.00D+00.
 NEqPCM:  Using equilibrium solvation (IEInf=0, Eps=   2.3741, EpsInf=   2.2383)
 G2PCM: DoFxE=T DoFxN=T DoGrad=T DoDP/DQ/DG/TGxP=FFFF NFrqRd=   0 IEInf=0 SqF1=F DoCFld=F IF1Alg=4.
 End of G2Drv F.D. properties file   721 does not exist.
 End of G2Drv F.D. properties file   722 does not exist.
 End of G2Drv F.D. properties file   788 does not exist.
          IDoAtm=1111111111111111111111111111111111111111111
 NEqPCM:  Using equilibrium solvation (IEInf=0, Eps=   2.3741, EpsInf=   2.2383)
          Differentiating once with respect to nuclear coordinates.
          There are   132 degrees of freedom in the 1st order CPHF.  IDoFFX=6 NUNeed=     0.
    126 vectors produced by pass  0 Test12= 5.81D-14 1.00D-09 XBig12= 1.41D-01 1.49D-01.
 AX will form   126 AO Fock derivatives at one time.
    126 vectors produced by pass  1 Test12= 5.81D-14 1.00D-09 XBig12= 1.18D-02 1.86D-02.
    126 vectors produced by pass  2 Test12= 5.81D-14 1.00D-09 XBig12= 3.67D-04 2.82D-03.
    126 vectors produced by pass  3 Test12= 5.81D-14 1.00D-09 XBig12= 4.64D-06 3.54D-04.
    126 vectors produced by pass  4 Test12= 5.81D-14 1.00D-09 XBig12= 4.54D-08 2.81D-05.
    126 vectors produced by pass  5 Test12= 5.81D-14 1.00D-09 XBig12= 3.63D-10 1.59D-06.
    123 vectors produced by pass  6 Test12= 5.81D-14 1.00D-09 XBig12= 2.32D-12 1.14D-07.
     50 vectors produced by pass  7 Test12= 5.81D-14 1.00D-09 XBig12= 1.43D-14 7.76D-09.
     13 vectors produced by pass  8 Test12= 5.81D-14 1.00D-09 XBig12= 1.00D-14 6.90D-09.
      4 vectors produced by pass  9 Test12= 5.81D-14 1.00D-09 XBig12= 6.90D-15 3.75D-09.
      1 vectors produced by pass 10 Test12= 5.81D-14 1.00D-09 XBig12= 2.05D-15 2.50D-09.
 InvSVY:  IOpt=1 It=  1 EMax= 1.17D-15
 Solved reduced A of dimension   947 with   132 vectors.
 End of Minotr F.D. properties file   721 does not exist.
 End of Minotr F.D. properties file   722 does not exist.
 End of Minotr F.D. properties file   788 does not exist.

 **********************************************************************

            Population analysis using the SCF density.

 **********************************************************************

 Orbital symmetries:
       Occupied  (A) (A) (A) (A) (A) (A) (A) (A) (A) (A) (A) (A)
                 (A) (A) (A) (A) (A) (A) (A) (A) (A) (A) (A) (A)
                 (A) (A) (A) (A) (A) (A) (A) (A) (A) (A) (A) (A)
                 (A) (A) (A) (A) (A) (A) (A) (A) (A) (A) (A) (A)
                 (A) (A) (A) (A) (A) (A) (A) (A) (A) (A) (A) (A)
                 (A) (A) (A) (A) (A) (A) (A) (A) (A) (A) (A) (A)
                 (A) (A) (A) (A) (A) (A) (A) (A) (A) (A) (A)
       Virtual   (A) (A) (A) (A) (A) (A) (A) (A) (A) (A) (A) (A)
                 (A) (A) (A) (A) (A) (A) (A) (A) (A) (A) (A) (A)
                 (A) (A) (A) (A) (A) (A) (A) (A) (A) (A) (A) (A)
                 (A) (A) (A) (A) (A) (A) (A) (A) (A) (A) (A) (A)
                 (A) (A) (A) (A) (A) (A) (A) (A) (A) (A) (A) (A)
                 (A) (A) (A) (A) (A) (A) (A) (A) (A) (A) (A) (A)
                 (A) (A) (A) (A) (A) (A) (A) (A) (A) (A) (A) (A)
                 (A) (A) (A) (A) (A) (A) (A) (A) (A) (A) (A) (A)
                 (A) (A) (A) (A) (A) (A) (A) (A) (A) (A) (A) (A)
                 (A) (A) (A) (A) (A) (A) (A) (A) (A) (A) (A) (A)
                 (A) (A) (A) (A) (A) (A) (A) (A) (A) (A) (A) (A)
                 (A) (A) (A) (A) (A) (A) (A) (A) (A) (A) (A) (A)
                 (A) (A) (A) (A) (A) (A) (A) (A) (A) (A) (A) (A)
                 (A) (A) (A) (A) (A) (A) (A) (A) (A) (A) (A) (A)
                 (A) (A) (A) (A) (A) (A) (A) (A) (A) (A) (A) (A)
                 (A) (A) (A) (A) (A) (A) (A) (A) (A) (A) (A) (A)
                 (A) (A) (A) (A) (A) (A) (A) (A) (A) (A) (A) (A)
                 (A) (A) (A) (A) (A) (A) (A) (A) (A) (A) (A) (A)
                 (A) (A) (A) (A) (A) (A) (A) (A) (A) (A) (A) (A)
                 (A) (A) (A) (A) (A) (A) (A) (A) (A) (A) (A) (A)
                 (A) (A) (A) (A) (A) (A) (A) (A) (A) (A) (A) (A)
                 (A) (A) (A) (A) (A) (A) (A) (A) (A) (A) (A) (A)
                 (A) (A) (A) (A) (A) (A) (A) (A) (A) (A) (A) (A)
                 (A) (A) (A) (A) (A) (A) (A) (A) (A) (A) (A) (A)
                 (A) (A) (A) (A) (A) (A) (A) (A) (A) (A) (A) (A)
                 (A) (A) (A) (A) (A) (A) (A) (A) (A) (A) (A) (A)
                 (A) (A) (A) (A) (A) (A) (A) (A) (A) (A) (A) (A)
                 (A) (A) (A) (A) (A) (A) (A) (A) (A) (A) (A) (A)
                 (A) (A) (A) (A) (A) (A) (A) (A) (A) (A) (A) (A)
                 (A) (A) (A) (A) (A) (A) (A) (A) (A) (A) (A) (A)
                 (A) (A) (A) (A) (A) (A) (A) (A) (A) (A) (A) (A)
                 (A) (A) (A) (A) (A) (A) (A) (A) (A) (A) (A) (A)
                 (A) (A) (A) (A) (A) (A) (A) (A) (A) (A) (A) (A)
                 (A) (A) (A) (A) (A) (A) (A) (A) (A) (A) (A) (A)
                 (A) (A) (A) (A) (A) (A) (A) (A) (A) (A) (A) (A)
                 (A) (A) (A) (A) (A) (A) (A) (A) (A) (A) (A) (A)
                 (A) (A) (A) (A) (A) (A) (A) (A) (A) (A) (A) (A)
                 (A) (A) (A) (A) (A) (A) (A) (A) (A) (A) (A) (A)
                 (A) (A) (A) (A) (A) (A) (A) (A) (A) (A) (A) (A)
                 (A) (A) (A) (A) (A) (A) (A) (A) (A) (A) (A) (A)
                 (A) (A) (A) (A) (A) (A) (A) (A) (A) (A) (A) (A)
                 (A) (A) (A) (A) (A) (A) (A) (A) (A) (A) (A) (A)
                 (A) (A) (A) (A) (A) (A) (A) (A) (A) (A) (A) (A)
                 (A) (A) (A) (A) (A) (A) (A) (A) (A) (A) (A) (A)
                 (A) (A) (A) (A) (A) (A) (A) (A) (A) (A) (A) (A)
                 (A) (A) (A) (A) (A) (A) (A) (A) (A) (A) (A) (A)
                 (A) (A) (A) (A) (A) (A) (A) (A) (A) (A) (A) (A)
                 (A) (A) (A) (A) (A) (A) (A) (A) (A) (A) (A) (A)
                 (A) (A) (A) (A) (A) (A) (A) (A) (A) (A) (A) (A)
                 (A) (A) (A) (A) (A) (A) (A) (A) (A) (A) (A) (A)
                 (A) (A) (A) (A) (A) (A) (A) (A) (A) (A) (A) (A)
                 (A) (A) (A) (A) (A) (A) (A) (A) (A) (A) (A) (A)
                 (A) (A) (A) (A) (A) (A) (A) (A) (A) (A) (A) (A)
                 (A) (A) (A) (A) (A) (A) (A) (A) (A) (A) (A) (A)
                 (A) (A) (A) (A) (A) (A) (A) (A) (A) (A) (A) (A)
                 (A) (A) (A) (A) (A) (A) (A) (A) (A) (A) (A) (A)
                 (A) (A) (A) (A) (A) (A) (A) (A) (A) (A) (A) (A)
                 (A) (A) (A) (A) (A) (A) (A) (A) (A) (A) (A) (A)
                 (A) (A) (A) (A)
 The electronic state is 1-A.
 Alpha  occ. eigenvalues --  -19.30647 -19.30113 -19.24846 -19.24266 -19.23583
 Alpha  occ. eigenvalues --  -19.23289 -19.21927 -19.21696 -14.50766 -14.45685
 Alpha  occ. eigenvalues --  -10.44477 -10.43037 -10.36064 -10.35072 -10.33659
 Alpha  occ. eigenvalues --  -10.33582 -10.33005 -10.32996 -10.32703 -10.31801
 Alpha  occ. eigenvalues --  -10.29541  -1.23746  -1.22335  -1.14375  -1.12440
 Alpha  occ. eigenvalues --   -1.11340  -1.10604  -1.09930  -1.08645  -1.08152
 Alpha  occ. eigenvalues --   -1.08134  -0.91839  -0.90093  -0.85655  -0.83186
 Alpha  occ. eigenvalues --   -0.80643  -0.79545  -0.69700  -0.68709  -0.67346
 Alpha  occ. eigenvalues --   -0.66954  -0.65698  -0.65536  -0.63683  -0.62335
 Alpha  occ. eigenvalues --   -0.61964  -0.60066  -0.59609  -0.59440  -0.58986
 Alpha  occ. eigenvalues --   -0.58044  -0.57281  -0.56495  -0.55512  -0.54969
 Alpha  occ. eigenvalues --   -0.53363  -0.51822  -0.51208  -0.50700  -0.49991
 Alpha  occ. eigenvalues --   -0.49291  -0.48543  -0.47790  -0.46811  -0.46126
 Alpha  occ. eigenvalues --   -0.45891  -0.45422  -0.45163  -0.45028  -0.44111
 Alpha  occ. eigenvalues --   -0.43646  -0.40598  -0.40320  -0.39871  -0.39504
 Alpha  occ. eigenvalues --   -0.39164  -0.39127  -0.38641  -0.37824  -0.37656
 Alpha  occ. eigenvalues --   -0.37440  -0.33407  -0.28060
 Alpha virt. eigenvalues --   -0.05194   0.07167   0.09384   0.10221   0.11506
 Alpha virt. eigenvalues --    0.11863   0.12299   0.14091   0.14205   0.14737
 Alpha virt. eigenvalues --    0.15542   0.15779   0.16008   0.16490   0.16875
 Alpha virt. eigenvalues --    0.17106   0.17757   0.18494   0.19238   0.19421
 Alpha virt. eigenvalues --    0.19835   0.20443   0.20881   0.21570   0.22313
 Alpha virt. eigenvalues --    0.22501   0.22709   0.23171   0.23784   0.24343
 Alpha virt. eigenvalues --    0.25037   0.25998   0.26252   0.27113   0.27456
 Alpha virt. eigenvalues --    0.28765   0.29019   0.30007   0.30187   0.31087
 Alpha virt. eigenvalues --    0.31469   0.32611   0.33005   0.33544   0.34016
 Alpha virt. eigenvalues --    0.34253   0.34755   0.35411   0.36222   0.36678
 Alpha virt. eigenvalues --    0.37702   0.37989   0.38551   0.39338   0.40242
 Alpha virt. eigenvalues --    0.40700   0.41155   0.41313   0.42345   0.42607
 Alpha virt. eigenvalues --    0.42882   0.43556   0.44152   0.44254   0.44741
 Alpha virt. eigenvalues --    0.45059   0.45487   0.46223   0.46531   0.47003
 Alpha virt. eigenvalues --    0.47274   0.48325   0.48712   0.49162   0.49294
 Alpha virt. eigenvalues --    0.50038   0.50224   0.50488   0.50888   0.51416
 Alpha virt. eigenvalues --    0.51724   0.51917   0.52280   0.52872   0.53242
 Alpha virt. eigenvalues --    0.53814   0.54271   0.54562   0.54652   0.55161
 Alpha virt. eigenvalues --    0.55425   0.55780   0.56668   0.57453   0.57643
 Alpha virt. eigenvalues --    0.58113   0.58464   0.58902   0.59247   0.59475
 Alpha virt. eigenvalues --    0.60186   0.60703   0.61027   0.61689   0.61775
 Alpha virt. eigenvalues --    0.62903   0.63554   0.63831   0.64917   0.65034
 Alpha virt. eigenvalues --    0.65492   0.65725   0.67408   0.67771   0.68037
 Alpha virt. eigenvalues --    0.68734   0.69336   0.70723   0.70934   0.72429
 Alpha virt. eigenvalues --    0.72874   0.73896   0.74054   0.74713   0.75736
 Alpha virt. eigenvalues --    0.77036   0.78728   0.79166   0.79360   0.80383
 Alpha virt. eigenvalues --    0.81283   0.82165   0.82586   0.83672   0.84954
 Alpha virt. eigenvalues --    0.85688   0.86190   0.87442   0.87742   0.88773
 Alpha virt. eigenvalues --    0.88934   0.89494   0.90501   0.91096   0.92453
 Alpha virt. eigenvalues --    0.93579   0.94050   0.94911   0.95558   0.95850
 Alpha virt. eigenvalues --    0.96443   0.97644   0.98122   0.99143   0.99224
 Alpha virt. eigenvalues --    0.99914   1.00518   1.02678   1.03436   1.03920
 Alpha virt. eigenvalues --    1.05183   1.06390   1.06980   1.08025   1.08274
 Alpha virt. eigenvalues --    1.09330   1.10285   1.10416   1.12073   1.12704
 Alpha virt. eigenvalues --    1.13620   1.14195   1.14572   1.15702   1.17014
 Alpha virt. eigenvalues --    1.17289   1.17994   1.18573   1.20302   1.21849
 Alpha virt. eigenvalues --    1.22510   1.23065   1.23958   1.25732   1.26591
 Alpha virt. eigenvalues --    1.27093   1.27773   1.28522   1.29602   1.30274
 Alpha virt. eigenvalues --    1.30527   1.31283   1.31550   1.32852   1.33609
 Alpha virt. eigenvalues --    1.33934   1.34731   1.35689   1.36524   1.36593
 Alpha virt. eigenvalues --    1.37413   1.38253   1.39009   1.39907   1.40215
 Alpha virt. eigenvalues --    1.40894   1.41488   1.41747   1.42602   1.43150
 Alpha virt. eigenvalues --    1.43968   1.44863   1.46000   1.47319   1.48630
 Alpha virt. eigenvalues --    1.49686   1.50990   1.52670   1.53816   1.54610
 Alpha virt. eigenvalues --    1.56097   1.56963   1.57000   1.57525   1.58651
 Alpha virt. eigenvalues --    1.59714   1.59815   1.60429   1.61763   1.62433
 Alpha virt. eigenvalues --    1.62840   1.64558   1.64810   1.66025   1.66568
 Alpha virt. eigenvalues --    1.66848   1.67763   1.69597   1.69706   1.70315
 Alpha virt. eigenvalues --    1.71041   1.71656   1.72122   1.72685   1.73462
 Alpha virt. eigenvalues --    1.74281   1.75112   1.76473   1.77654   1.78425
 Alpha virt. eigenvalues --    1.79892   1.81441   1.82166   1.83018   1.83697
 Alpha virt. eigenvalues --    1.84316   1.85193   1.85830   1.87349   1.88318
 Alpha virt. eigenvalues --    1.89287   1.89802   1.90991   1.92368   1.93113
 Alpha virt. eigenvalues --    1.93234   1.94649   1.95045   1.96859   1.97486
 Alpha virt. eigenvalues --    1.98812   1.99204   2.01207   2.01774   2.02207
 Alpha virt. eigenvalues --    2.03033   2.04324   2.04710   2.05713   2.06013
 Alpha virt. eigenvalues --    2.07309   2.08182   2.09131   2.09909   2.11065
 Alpha virt. eigenvalues --    2.12350   2.12378   2.12935   2.13592   2.14643
 Alpha virt. eigenvalues --    2.14876   2.16052   2.16868   2.17383   2.17780
 Alpha virt. eigenvalues --    2.18248   2.18594   2.18858   2.19878   2.20481
 Alpha virt. eigenvalues --    2.21403   2.21724   2.22493   2.23432   2.23744
 Alpha virt. eigenvalues --    2.24143   2.25060   2.25504   2.26003   2.27245
 Alpha virt. eigenvalues --    2.28340   2.29180   2.29995   2.31299   2.32542
 Alpha virt. eigenvalues --    2.32900   2.33555   2.34834   2.35732   2.36577
 Alpha virt. eigenvalues --    2.36913   2.37637   2.38249   2.39437   2.40664
 Alpha virt. eigenvalues --    2.41611   2.42274   2.42635   2.43540   2.44058
 Alpha virt. eigenvalues --    2.45462   2.45977   2.46401   2.47257   2.47588
 Alpha virt. eigenvalues --    2.48835   2.49384   2.49938   2.50408   2.51488
 Alpha virt. eigenvalues --    2.51615   2.53059   2.53250   2.53472   2.54845
 Alpha virt. eigenvalues --    2.55556   2.56592   2.57147   2.57495   2.58180
 Alpha virt. eigenvalues --    2.59389   2.60675   2.61622   2.62307   2.62437
 Alpha virt. eigenvalues --    2.64017   2.64765   2.65262   2.67077   2.67227
 Alpha virt. eigenvalues --    2.68370   2.68927   2.70485   2.71084   2.72010
 Alpha virt. eigenvalues --    2.72296   2.72999   2.74594   2.75283   2.76211
 Alpha virt. eigenvalues --    2.76389   2.76542   2.76815   2.78388   2.78780
 Alpha virt. eigenvalues --    2.79270   2.79886   2.80176   2.81103   2.81242
 Alpha virt. eigenvalues --    2.82315   2.82829   2.83118   2.84046   2.84386
 Alpha virt. eigenvalues --    2.84684   2.86576   2.87091   2.88270   2.88780
 Alpha virt. eigenvalues --    2.89571   2.90427   2.90562   2.91970   2.92598
 Alpha virt. eigenvalues --    2.94007   2.94413   2.94750   2.96118   2.97390
 Alpha virt. eigenvalues --    2.98580   2.99828   3.01763   3.02513   3.05181
 Alpha virt. eigenvalues --    3.05622   3.05803   3.06314   3.07302   3.08611
 Alpha virt. eigenvalues --    3.09034   3.10622   3.11859   3.12425   3.12967
 Alpha virt. eigenvalues --    3.13966   3.15217   3.15710   3.16409   3.17071
 Alpha virt. eigenvalues --    3.17989   3.18227   3.19162   3.19559   3.20789
 Alpha virt. eigenvalues --    3.22271   3.23450   3.24191   3.24586   3.25432
 Alpha virt. eigenvalues --    3.25940   3.26523   3.26818   3.27969   3.28849
 Alpha virt. eigenvalues --    3.29782   3.31094   3.31649   3.32939   3.33414
 Alpha virt. eigenvalues --    3.34770   3.35918   3.36387   3.37085   3.37462
 Alpha virt. eigenvalues --    3.38798   3.39034   3.40083   3.40986   3.41536
 Alpha virt. eigenvalues --    3.42785   3.43819   3.44746   3.45864   3.45920
 Alpha virt. eigenvalues --    3.47832   3.48063   3.49875   3.50505   3.51676
 Alpha virt. eigenvalues --    3.52612   3.53045   3.55087   3.56182   3.56629
 Alpha virt. eigenvalues --    3.57402   3.58779   3.59589   3.60193   3.60441
 Alpha virt. eigenvalues --    3.62741   3.64343   3.65150   3.66104   3.66417
 Alpha virt. eigenvalues --    3.67834   3.68259   3.70179   3.70841   3.72939
 Alpha virt. eigenvalues --    3.73424   3.74714   3.77627   3.78208   3.78621
 Alpha virt. eigenvalues --    3.79709   3.80656   3.81366   3.82517   3.84640
 Alpha virt. eigenvalues --    3.86932   3.87358   3.87563   3.88912   3.91771
 Alpha virt. eigenvalues --    3.93505   3.95734   3.96314   3.99162   4.00526
 Alpha virt. eigenvalues --    4.02248   4.04569   4.04910   4.06566   4.06953
 Alpha virt. eigenvalues --    4.07863   4.08469   4.09191   4.09837   4.11826
 Alpha virt. eigenvalues --    4.12079   4.15117   4.15894   4.18030   4.19271
 Alpha virt. eigenvalues --    4.21696   4.23404   4.24836   4.25125   4.26171
 Alpha virt. eigenvalues --    4.27152   4.27820   4.28347   4.29188   4.31905
 Alpha virt. eigenvalues --    4.32784   4.35593   4.36983   4.37633   4.38659
 Alpha virt. eigenvalues --    4.39915   4.41307   4.43073   4.45798   4.47167
 Alpha virt. eigenvalues --    4.47885   4.49423   4.51998   4.52823   4.53281
 Alpha virt. eigenvalues --    4.54229   4.55498   4.58931   4.61112   4.61554
 Alpha virt. eigenvalues --    4.62699   4.67637   4.70631   4.74071   4.76174
 Alpha virt. eigenvalues --    4.76581   4.79359   4.80444   4.82349   4.84877
 Alpha virt. eigenvalues --    4.91933   4.95082   4.97518   4.99178   5.02664
 Alpha virt. eigenvalues --    5.04774   5.06708   5.07498   5.08070   5.10880
 Alpha virt. eigenvalues --    5.12468   5.13193   5.15008   5.16124   5.17298
 Alpha virt. eigenvalues --    5.19038   5.19757   5.20142   5.21593   5.21783
 Alpha virt. eigenvalues --    5.22627   5.24124   5.24867   5.27654   5.28632
 Alpha virt. eigenvalues --    5.29664   5.30752   5.31365   5.32045   5.32314
 Alpha virt. eigenvalues --    5.33281   5.34745   5.38859   5.41492   5.42552
 Alpha virt. eigenvalues --    5.45821   5.48575   5.48814   5.49802   5.50968
 Alpha virt. eigenvalues --    5.51330   5.53069   5.53249   5.53447   5.53778
 Alpha virt. eigenvalues --    5.55036   5.57656   5.58696   5.59397   5.59884
 Alpha virt. eigenvalues --    5.60747   5.62808   5.63427   5.69312   5.78524
 Alpha virt. eigenvalues --    5.79113   5.81332   5.82981   5.86818   5.92074
 Alpha virt. eigenvalues --    5.97941   6.03878   6.09061   6.11391   6.13046
 Alpha virt. eigenvalues --    6.13443   6.16286   6.16523   6.17232   6.22043
 Alpha virt. eigenvalues --    6.28611   6.31546   6.32188   6.33839   6.36300
 Alpha virt. eigenvalues --    6.36900   6.38476   6.39361   6.42155   6.42246
 Alpha virt. eigenvalues --    6.44425   6.45508   6.47031   6.49290   6.50162
 Alpha virt. eigenvalues --    6.50809   6.51456   6.51880   6.52353   6.53889
 Alpha virt. eigenvalues --    6.54762   6.55530   6.55671   6.57993   6.61358
 Alpha virt. eigenvalues --    6.65126   6.66077   6.75811   6.78383   6.81034
 Alpha virt. eigenvalues --    6.86410   6.87628   6.91375   6.98362   6.99202
 Alpha virt. eigenvalues --    7.01624   7.02233   7.03604   7.05674   7.06861
 Alpha virt. eigenvalues --    7.07367   7.11411   7.12651   7.14173   7.15985
 Alpha virt. eigenvalues --    7.18851   7.20309   7.23980   7.27074   7.29072
 Alpha virt. eigenvalues --    7.44323   7.48630   7.52912   7.59614  22.46741
 Alpha virt. eigenvalues --   22.48591  22.55052  22.66592  22.69648  22.71758
 Alpha virt. eigenvalues --   22.80880  22.92939  22.96996  23.56667  23.64418
 Alpha virt. eigenvalues --   32.52726  32.72834  43.54464  43.55764  43.59908
 Alpha virt. eigenvalues --   43.75572  44.06134  44.16578  44.28596  44.41454
          Condensed to atoms (all electrons):
               1          2          3          4          5          6
     1  C    5.535736   0.111910   0.037279   0.016918   0.427435  -0.038838
     2  C    0.111910   5.292932  -0.079467   0.067696  -0.034220   0.002979
     3  C    0.037279  -0.079467   5.247554   0.143846   0.004657  -0.026645
     4  C    0.016918   0.067696   0.143846   5.503473  -0.039837   0.443456
     5  H    0.427435  -0.034220   0.004657  -0.039837   0.460441  -0.003440
     6  H   -0.038838   0.002979  -0.026645   0.443456  -0.003440   0.478542
     7  C   -0.043449   0.256389   0.225125  -0.041301   0.002422   0.002826
     8  H    0.004199  -0.024310  -0.019242   0.009015  -0.000085  -0.000046
     9  H   -0.011283  -0.013480  -0.023306  -0.002025  -0.000132   0.000302
    10  C    0.165658   0.113539   0.006681  -0.053361   0.008361   0.002670
    11  H    0.002234  -0.041065   0.007231   0.001015  -0.005563   0.000044
    12  C   -0.052472   0.039622   0.168945   0.140574  -0.002784  -0.030523
    13  H    0.001799   0.009992  -0.035805  -0.024211   0.000203  -0.004062
    14  H   -0.023832   0.400822   0.008756   0.000106   0.001479  -0.000083
    15  H    0.003758   0.001609   0.438634  -0.026054  -0.000096  -0.002371
    16  N   -0.047873  -0.021286  -0.002153   0.042783   0.005000  -0.008451
    17  N    0.041959   0.003850  -0.006997  -0.008731  -0.010002   0.000293
    18  C    0.017099  -0.001155  -0.000171   0.001382  -0.000992   0.006727
    19  C   -0.019043  -0.008355  -0.001160  -0.000826  -0.001975  -0.000252
    20  O   -0.010407   0.001553  -0.000116   0.002660   0.000181   0.000020
    21  O    0.001322   0.000104   0.002302  -0.010628  -0.000043  -0.000005
    22  O   -0.007791   0.001760  -0.000791   0.006082   0.002300   0.000083
    23  O    0.000338   0.000739  -0.000075  -0.002760  -0.000993   0.007767
    24  C   -0.000183   0.000008   0.000140  -0.001185   0.000025  -0.000212
    25  H   -0.000058  -0.000001  -0.000024   0.000179   0.000040  -0.000329
    26  H   -0.000055   0.000006  -0.000019   0.000340  -0.000002   0.000172
    27  H    0.000203  -0.000028   0.000181  -0.000354   0.000011  -0.000635
    28  C   -0.001023  -0.001821  -0.000174   0.000100   0.000402   0.000001
    29  H    0.001252  -0.002535   0.000031  -0.000090  -0.000023  -0.000001
    30  H   -0.000244   0.000126  -0.000009   0.000038  -0.000001   0.000000
    31  H    0.000118   0.000192   0.000005  -0.000051   0.000013   0.000000
    32  O   -0.000160  -0.000035   0.000003  -0.000023  -0.000017   0.000000
    33  H   -0.000031  -0.000003  -0.000004   0.000029   0.000028   0.000001
    34  H    0.000080  -0.000007   0.000001  -0.000003  -0.000006   0.000001
    35  O    0.001271  -0.008706   0.002585  -0.000177  -0.000014   0.000000
    36  H   -0.000041   0.000355  -0.000047   0.000000   0.000001   0.000000
    37  H   -0.001353   0.004747  -0.000582   0.000176   0.000028   0.000001
    38  O    0.000042  -0.000031  -0.000002  -0.000361   0.001735  -0.000052
    39  H    0.000135  -0.000009   0.000007  -0.000008  -0.000161   0.000014
    40  H   -0.004256   0.000220   0.000129   0.000260   0.000736   0.000008
    41  O   -0.000002   0.000000  -0.000018  -0.000027   0.000000   0.000073
    42  H    0.000018  -0.000001  -0.000020  -0.000111   0.000000   0.000082
    43  H    0.000000   0.000000   0.000000  -0.000005   0.000000   0.000007
               7          8          9         10         11         12
     1  C   -0.043449   0.004199  -0.011283   0.165658   0.002234  -0.052472
     2  C    0.256389  -0.024310  -0.013480   0.113539  -0.041065   0.039622
     3  C    0.225125  -0.019242  -0.023306   0.006681   0.007231   0.168945
     4  C   -0.041301   0.009015  -0.002025  -0.053361   0.001015   0.140574
     5  H    0.002422  -0.000085  -0.000132   0.008361  -0.005563  -0.002784
     6  H    0.002826  -0.000046   0.000302   0.002670   0.000044  -0.030523
     7  C    4.972559   0.394474   0.404196   0.013792   0.002193  -0.008141
     8  H    0.394474   0.535874  -0.014387  -0.003363  -0.000131  -0.008998
     9  H    0.404196  -0.014387   0.483694   0.001969  -0.000044   0.005921
    10  C    0.013792  -0.003363   0.001969   5.232749   0.435892   0.209423
    11  H    0.002193  -0.000131  -0.000044   0.435892   0.456892  -0.037469
    12  C   -0.008141  -0.008998   0.005921   0.209423  -0.037469   5.242579
    13  H    0.002028   0.000090  -0.000071  -0.050109  -0.003221   0.459586
    14  H   -0.016908  -0.001965  -0.000258  -0.020659  -0.001856  -0.000213
    15  H   -0.021011  -0.000954  -0.001916   0.005864   0.000035  -0.035914
    16  N   -0.005133   0.000480   0.009234   0.012007  -0.000004  -0.005279
    17  N    0.015164  -0.000110  -0.006601  -0.002719   0.000078   0.005597
    18  C   -0.002105   0.000028   0.000651  -0.001238   0.000003  -0.003651
    19  C    0.006729  -0.000069  -0.001551   0.002089   0.000131  -0.000426
    20  O   -0.006951   0.000120   0.007940   0.000991  -0.000007  -0.000304
    21  O   -0.000851  -0.000002   0.000274  -0.000161   0.000000  -0.000241
    22  O    0.000160  -0.000031   0.000813   0.001173   0.000147  -0.000233
    23  O    0.000004   0.000001   0.000122  -0.000201   0.000000   0.001853
    24  C    0.000002   0.000000  -0.000004   0.000079   0.000000  -0.000291
    25  H    0.000004   0.000000   0.000000   0.000003   0.000000  -0.000003
    26  H    0.000003   0.000000  -0.000001  -0.000002   0.000000   0.000029
    27  H   -0.000019   0.000000   0.000000   0.000040   0.000000  -0.000381
    28  C    0.000205  -0.000015  -0.000174  -0.000616  -0.000024   0.000083
    29  H    0.000696  -0.000006  -0.000149   0.000143  -0.000003   0.000014
    30  H    0.000046   0.000000   0.000006   0.000007   0.000001  -0.000001
    31  H   -0.000017  -0.000001  -0.000010   0.000050   0.000006  -0.000001
    32  O   -0.000004   0.000000  -0.000002  -0.000002   0.000000   0.000000
    33  H    0.000003   0.000000  -0.000001   0.000001   0.000000   0.000001
    34  H   -0.000006   0.000000   0.000002  -0.000001   0.000000   0.000000
    35  O   -0.001104   0.003299   0.002739   0.000515   0.000016  -0.000215
    36  H   -0.000524   0.000040   0.000143  -0.000063  -0.000001   0.000010
    37  H   -0.003529  -0.000181   0.000464  -0.000444  -0.000008   0.000079
    38  O    0.000005   0.000000  -0.000009  -0.000068  -0.000001   0.000019
    39  H   -0.000001   0.000000   0.000000   0.000013   0.000000  -0.000014
    40  H   -0.000031   0.000001   0.000044   0.000307   0.000004  -0.000052
    41  O    0.000000   0.000000   0.000000   0.000000   0.000000  -0.000001
    42  H    0.000005   0.000000  -0.000004  -0.000003   0.000000   0.000007
    43  H    0.000000   0.000000   0.000000   0.000000   0.000000   0.000000
              13         14         15         16         17         18
     1  C    0.001799  -0.023832   0.003758  -0.047873   0.041959   0.017099
     2  C    0.009992   0.400822   0.001609  -0.021286   0.003850  -0.001155
     3  C   -0.035805   0.008756   0.438634  -0.002153  -0.006997  -0.000171
     4  C   -0.024211   0.000106  -0.026054   0.042783  -0.008731   0.001382
     5  H    0.000203   0.001479  -0.000096   0.005000  -0.010002  -0.000992
     6  H   -0.004062  -0.000083  -0.002371  -0.008451   0.000293   0.006727
     7  C    0.002028  -0.016908  -0.021011  -0.005133   0.015164  -0.002105
[...]
     4  C    0.000494   0.002648  -0.010987   0.006161  -0.002147  -0.001319
     5  H   -0.002624   0.000190  -0.000044   0.002539  -0.000975   0.000029
     6  H   -0.000183   0.000022   0.000084   0.000084   0.007506  -0.000137
     7  C    0.006403  -0.006773  -0.000877   0.000090   0.000020   0.000001
     8  H   -0.000038   0.000104  -0.000002  -0.000033   0.000001   0.000000
     9  H   -0.001160   0.007788   0.000294   0.000814   0.000125  -0.000004
    10  C    0.001619   0.000963  -0.000164   0.001439  -0.000211   0.000078
    11  H    0.000118  -0.000007   0.000000   0.000150   0.000000   0.000000
    12  C   -0.000668  -0.000302  -0.000267  -0.000251   0.001921  -0.000290
    13  H   -0.000010   0.000000   0.000000   0.000002  -0.000009  -0.000001
    14  H    0.010098  -0.001888  -0.000003   0.003150  -0.000005   0.000000
    15  H    0.000030   0.000001   0.001281  -0.000002  -0.000029  -0.000016
    16  N   -0.048636  -0.012059  -0.096556   0.003386  -0.089363   0.006470
    17  N    0.213861  -0.056600   0.006420  -0.087809  -0.012806   0.000205
    18  C   -0.005469  -0.000863   0.581510  -0.000403   0.316010  -0.045440
    19  C    4.685540   0.552840  -0.000855   0.313129  -0.005577  -0.000178
    20  O    0.552840   7.973849  -0.000013  -0.077287  -0.000018   0.000008
    21  O   -0.000855  -0.000013   8.050573   0.000004  -0.104942   0.012802
    22  O    0.313129  -0.077287   0.000004   7.978247   0.000098  -0.000002
    23  O   -0.005577  -0.000018  -0.104942   0.000098   8.087600   0.205874
    24  C   -0.000178   0.000008   0.012802  -0.000002   0.205874   4.835625
    25  H    0.000046   0.000000   0.002156  -0.000002  -0.031471   0.389689
    26  H   -0.000013   0.000000   0.003089   0.000000  -0.028654   0.424219
    27  H   -0.000013   0.000000   0.000917   0.000000  -0.039158   0.416416
    28  C   -0.065802   0.011112  -0.000001   0.213268   0.000006   0.000000
    29  H    0.008328  -0.001742   0.000000  -0.037498   0.000000   0.000000
    30  H   -0.004824   0.001349   0.000000  -0.031624   0.000000   0.000000
    31  H    0.002583   0.001510   0.000000  -0.027971   0.000000   0.000000
    32  O    0.055925  -0.005584   0.000000  -0.008208  -0.000067  -0.000009
    33  H   -0.001254   0.000313   0.000002   0.001136   0.000114  -0.000007
    34  H    0.000330   0.001243  -0.000010  -0.000257  -0.000016  -0.000006
    35  O    0.004772  -0.017790   0.000000   0.000230   0.000000   0.000000
    36  H   -0.000920   0.000865   0.000000  -0.000019   0.000000   0.000000
    37  H   -0.015500   0.025409   0.000000   0.000221   0.000000   0.000000
    38  O    0.000972  -0.000010   0.000008  -0.000756  -0.005395   0.000370
    39  H   -0.001047   0.000002   0.000004   0.000227   0.002067  -0.000004
    40  H   -0.001702   0.000004   0.000007  -0.000110   0.009121  -0.000559
    41  O    0.000000   0.000000  -0.021269   0.000000   0.000258   0.000628
    42  H    0.000003   0.000000   0.028253   0.000000  -0.000120  -0.001679
    43  H    0.000000   0.000000   0.000809   0.000000  -0.000011  -0.000333
              25         26         27         28         29         30
     1  C   -0.000062  -0.000055   0.000188  -0.000955   0.001252  -0.000244
     2  C   -0.000002   0.000006  -0.000027  -0.001832  -0.002473   0.000131
     3  C   -0.000025  -0.000019   0.000180  -0.000155   0.000015  -0.000009
     4  C    0.000203   0.000363  -0.000401   0.000089  -0.000085   0.000036
     5  H    0.000038  -0.000003   0.000013   0.000417  -0.000020  -0.000002
     6  H   -0.000338   0.000150  -0.000530   0.000001  -0.000001   0.000000
     7  C    0.000004   0.000003  -0.000020   0.000157   0.000731   0.000045
     8  H    0.000000   0.000000   0.000000  -0.000014  -0.000007   0.000000
     9  H    0.000000  -0.000001   0.000000  -0.000150  -0.000157   0.000006
    10  C    0.000003  -0.000002   0.000042  -0.000696   0.000122   0.000012
    11  H    0.000000   0.000000   0.000000  -0.000023  -0.000004   0.000001
    12  C   -0.000001   0.000030  -0.000392   0.000083   0.000019  -0.000001
    13  H    0.000000   0.000000  -0.000002   0.000000   0.000000   0.000000
    14  H    0.000000   0.000000   0.000000  -0.000985  -0.001033   0.000323
    15  H   -0.000001  -0.000006   0.000041   0.000000   0.000000   0.000000
    16  N    0.000306   0.000361  -0.000270   0.000113  -0.000059  -0.000031
    17  N    0.000077  -0.000172  -0.000058   0.005099  -0.000683   0.000362
    18  C    0.005051  -0.016941   0.002466  -0.000023  -0.000009   0.000000
    19  C    0.000046  -0.000013  -0.000013  -0.065802   0.008328  -0.004824
    20  O    0.000000   0.000000   0.000000   0.011112  -0.001742   0.001349
    21  O    0.002156   0.003089   0.000917  -0.000001   0.000000   0.000000
    22  O   -0.000002   0.000000   0.000000   0.213268  -0.037498  -0.031624
    23  O   -0.031471  -0.028654  -0.039158   0.000006   0.000000   0.000000
    24  C    0.389689   0.424219   0.416416   0.000000   0.000000   0.000000
    25  H    0.529953  -0.019224  -0.020818   0.000000   0.000000   0.000000
    26  H   -0.019224   0.511588  -0.035673   0.000000   0.000000   0.000000
    27  H   -0.020818  -0.035673   0.524884   0.000000   0.000000   0.000000
    28  C    0.000000   0.000000   0.000000   4.867880   0.394410   0.414188
    29  H    0.000000   0.000000   0.000000   0.394410   0.540764  -0.031608
    30  H    0.000000   0.000000   0.000000   0.414188  -0.031608   0.493129
    31  H    0.000000   0.000000   0.000000   0.395788  -0.021570  -0.016537
    32  O    0.000003   0.000000   0.000000  -0.015150   0.001033   0.011371
    33  H   -0.000012   0.000002   0.000000   0.000888  -0.000012  -0.001204
    34  H   -0.000001  -0.000001   0.000000   0.001269  -0.000129  -0.000762
    35  O    0.000000   0.000000   0.000000  -0.011628   0.018386  -0.000037
    36  H    0.000000   0.000000   0.000000   0.000858  -0.000765  -0.000032
    37  H    0.000000   0.000000   0.000000   0.005441  -0.006880  -0.000453
    38  O    0.000765  -0.000074   0.000010  -0.000201   0.000008   0.000137
    39  H    0.000563  -0.000309   0.000099   0.000008  -0.000001  -0.000004
    40  H    0.000027   0.000164  -0.000009  -0.000015   0.000011  -0.000067
    41  O    0.000547   0.005052   0.001943   0.000000   0.000000   0.000000
    42  H    0.000038  -0.001508  -0.002076   0.000000   0.000000   0.000000
    43  H   -0.000030   0.000118  -0.000127   0.000000   0.000000   0.000000
              31         32         33         34         35         36
     1  C    0.000108  -0.000152  -0.000052   0.000098   0.001323  -0.000040
     2  C    0.000227  -0.000023  -0.000009  -0.000007  -0.010572   0.000369
     3  C    0.000005   0.000003  -0.000003   0.000001   0.002778  -0.000047
     4  C   -0.000051  -0.000022   0.000028  -0.000003  -0.000192  -0.000001
     5  H    0.000008  -0.000020   0.000024  -0.000007  -0.000017   0.000001
     6  H    0.000000   0.000000   0.000001   0.000001   0.000000   0.000000
     7  C   -0.000024  -0.000003   0.000002  -0.000009  -0.000491  -0.000551
     8  H   -0.000001   0.000000   0.000000   0.000000   0.003516   0.000050
     9  H   -0.000009  -0.000002  -0.000001   0.000003   0.002526   0.000158
    10  C    0.000051  -0.000002   0.000000  -0.000001   0.000514  -0.000075
    11  H    0.000006   0.000000   0.000000   0.000000   0.000018  -0.000001
    12  C    0.000000   0.000000   0.000001   0.000000  -0.000237   0.000012
    13  H    0.000000   0.000000   0.000000   0.000000   0.000000   0.000000
    14  H   -0.000402   0.000009  -0.000003   0.000000   0.008848  -0.000166
    15  H    0.000000   0.000000   0.000000   0.000000   0.000008  -0.000001
    16  N    0.000018  -0.001091   0.000175   0.000172  -0.000059   0.000006
    17  N    0.000400  -0.009219   0.000073  -0.000287  -0.000136  -0.000018
    18  C    0.000006   0.000324  -0.000196   0.000405  -0.000013   0.000000
    19  C    0.002583   0.055925  -0.001254   0.000330   0.004772  -0.000920
    20  O    0.001510  -0.005584   0.000313   0.001243  -0.017790   0.000865
    21  O    0.000000   0.000000   0.000002  -0.000010   0.000000   0.000000
    22  O   -0.027971  -0.008208   0.001136  -0.000257   0.000230  -0.000019
    23  O    0.000000  -0.000067   0.000114  -0.000016   0.000000   0.000000
    24  C    0.000000  -0.000009  -0.000007  -0.000006   0.000000   0.000000
    25  H    0.000000   0.000003  -0.000012  -0.000001   0.000000   0.000000
    26  H    0.000000   0.000000   0.000002  -0.000001   0.000000   0.000000
    27  H    0.000000   0.000000   0.000000   0.000000   0.000000   0.000000
    28  C    0.395788  -0.015150   0.000888   0.001269  -0.011628   0.000858
    29  H   -0.021570   0.001033  -0.000012  -0.000129   0.018386  -0.000765
    30  H   -0.016537   0.011371  -0.001204  -0.000762  -0.000037  -0.000032
    31  H    0.520151  -0.000283   0.000035   0.000036   0.000449  -0.000008
    32  O   -0.000283   8.031315   0.325306   0.311635   0.000000   0.000000
    33  H    0.000035   0.325306   0.324470  -0.027456   0.000000   0.000000
    34  H    0.000036   0.311635  -0.027456   0.377555   0.000001   0.000000
    35  O    0.000449   0.000000   0.000000   0.000001   8.089394   0.301960
    36  H   -0.000008   0.000000   0.000000   0.000000   0.301960   0.370845
    37  H    0.000020  -0.000037   0.000004   0.000007   0.284774  -0.009677
    38  O    0.000093  -0.022577   0.026948   0.002271   0.000000   0.000000
    39  H   -0.000003   0.001013  -0.001343   0.000069   0.000000   0.000000
    40  H   -0.000048   0.001904  -0.003370   0.000211   0.000000   0.000000
    41  O    0.000000   0.000000   0.000000   0.000000   0.000000   0.000000
    42  H    0.000000   0.000000   0.000000   0.000000   0.000000   0.000000
    43  H    0.000000   0.000000   0.000000   0.000000   0.000000   0.000000
              37         38         39         40         41         42
     1  C   -0.001369   0.000329   0.000121  -0.004214  -0.000003   0.000021
     2  C    0.005016  -0.000048  -0.000010   0.000220   0.000000  -0.000001
     3  C   -0.000561   0.000000   0.000007   0.000089  -0.000021  -0.000021
     4  C    0.000170  -0.000402  -0.000018   0.000361  -0.000022  -0.000144
     5  H    0.000031   0.001388  -0.000129   0.000855   0.000000  -0.000001
     6  H    0.000001  -0.000046   0.000014   0.000013   0.000070   0.000100
     7  C   -0.003712   0.000002  -0.000002  -0.000006   0.000000   0.000005
     8  H   -0.000194   0.000000   0.000000   0.000001   0.000000   0.000000
     9  H    0.000565  -0.000009   0.000000   0.000043   0.000000  -0.000004
    10  C   -0.000463  -0.000064   0.000013   0.000318   0.000000  -0.000003
    11  H   -0.000008  -0.000001   0.000000   0.000003   0.000000   0.000000
    12  C    0.000078   0.000015  -0.000014  -0.000037  -0.000001   0.000006
    13  H    0.000000   0.000000   0.000000  -0.000001   0.000000   0.000000
    14  H   -0.002261  -0.000002   0.000001  -0.000002   0.000000   0.000000
    15  H   -0.000007   0.000000   0.000000   0.000001   0.000025   0.000021
    16  N   -0.000187  -0.002600  -0.000698  -0.002698  -0.000065   0.000396
    17  N    0.000704  -0.022502   0.002094   0.030197   0.000003  -0.000020
    18  C   -0.000006   0.008270   0.001730  -0.003417  -0.001750  -0.002927
    19  C   -0.015500   0.000972  -0.001047  -0.001702   0.000000   0.000003
    20  O    0.025409  -0.000010   0.000002   0.000004   0.000000   0.000000
    21  O    0.000000   0.000008   0.000004   0.000007  -0.021269   0.028253
    22  O    0.000221  -0.000756   0.000227  -0.000110   0.000000   0.000000
    23  O    0.000000  -0.005395   0.002067   0.009121   0.000258  -0.000120
    24  C    0.000000   0.000370  -0.000004  -0.000559   0.000628  -0.001679
    25  H    0.000000   0.000765   0.000563   0.000027   0.000547   0.000038
    26  H    0.000000  -0.000074  -0.000309   0.000164   0.005052  -0.001508
    27  H    0.000000   0.000010   0.000099  -0.000009   0.001943  -0.002076
    28  C    0.005441  -0.000201   0.000008  -0.000015   0.000000   0.000000
    29  H   -0.006880   0.000008  -0.000001   0.000011   0.000000   0.000000
    30  H   -0.000453   0.000137  -0.000004  -0.000067   0.000000   0.000000
    31  H    0.000020   0.000093  -0.000003  -0.000048   0.000000   0.000000
    32  O   -0.000037  -0.022577   0.001013   0.001904   0.000000   0.000000
    33  H    0.000004   0.026948  -0.001343  -0.003370   0.000000   0.000000
    34  H    0.000007   0.002271   0.000069   0.000211   0.000000   0.000000
    35  O    0.284774   0.000000   0.000000   0.000000   0.000000   0.000000
    36  H   -0.009677   0.000000   0.000000   0.000000   0.000000   0.000000
    37  H    0.379563   0.000001   0.000000  -0.000008   0.000000   0.000000
    38  O    0.000001   8.079285   0.307898   0.305121   0.000000   0.000001
    39  H    0.000000   0.307898   0.370093  -0.022841   0.000000   0.000000
    40  H   -0.000008   0.305121  -0.022841   0.340110   0.000000  -0.000005
    41  O    0.000000   0.000000   0.000000   0.000000   8.088266   0.313671
    42  H    0.000000   0.000001   0.000000  -0.000005   0.313671   0.346751
    43  H    0.000000   0.000000   0.000000   0.000000   0.304850  -0.021935
              43
     1  C    0.000000
     2  C    0.000000
     3  C    0.000000
     4  C   -0.000004
     5  H    0.000000
     6  H    0.000006
     7  C    0.000000
     8  H    0.000000
     9  H    0.000000
    10  C    0.000000
    11  H    0.000000
    12  C    0.000000
    13  H    0.000000
    14  H    0.000000
    15  H    0.000000
    16  N    0.000014
    17  N    0.000000
    18  C    0.000544
    19  C    0.000000
    20  O    0.000000
    21  O    0.000809
    22  O    0.000000
    23  O   -0.000011
    24  C   -0.000333
    25  H   -0.000030
    26  H    0.000118
    27  H   -0.000127
    28  C    0.000000
    29  H    0.000000
    30  H    0.000000
    31  H    0.000000
    32  O    0.000000
    33  H    0.000000
    34  H    0.000000
    35  O    0.000000
    36  H    0.000000
    37  H    0.000000
    38  O    0.000000
    39  H    0.000000
    40  H    0.000000
    41  O    0.304850
    42  H   -0.021935
    43  H    0.387892
 Mulliken charges:
               1
     1  C   -0.105125
     2  C   -0.076599
     3  C   -0.098263
     4  C   -0.167713
     5  H    0.183821
     6  H    0.169667
     7  C   -0.148021
     8  H    0.125830
     9  H    0.156884
    10  C   -0.081924
    11  H    0.183524
    12  C   -0.085551
    13  H    0.164295
    14  H    0.182199
    15  H    0.152460
    16  N   -0.296144
    17  N   -0.064107
    18  C    0.431283
    19  C    0.328906
    20  O   -0.390608
    21  O   -0.456027
    22  O   -0.244680
    23  O   -0.310614
    24  C   -0.242439
    25  H    0.142519
    26  H    0.157511
    27  H    0.152373
    28  C   -0.213445
    29  H    0.139655
    30  H    0.166346
    31  H    0.145417
    32  O   -0.677390
    33  H    0.355399
    34  H    0.333645
    35  O   -0.678323
    36  H    0.337196
    37  H    0.339318
    38  O   -0.679204
    39  H    0.340398
    40  H    0.350330
    41  O   -0.692183
    42  H    0.341177
    43  H    0.328208
 Sum of Mulliken charges =   0.00000
 Mulliken charges with hydrogens summed into heavy atoms:
               1
     1  C    0.078696
     2  C    0.105600
     3  C    0.054197
     4  C    0.001954
     7  C    0.134694
    10  C    0.101600
    12  C    0.078744
    16  N   -0.296144
    17  N   -0.064107
    18  C    0.431283
    19  C    0.328906
    20  O   -0.390608
    21  O   -0.456027
    22  O   -0.244680
    23  O   -0.310614
    24  C    0.209965
    28  C    0.237973
    32  O    0.011655
    35  O   -0.001809
    38  O    0.011523
    41  O   -0.022798
 Electronic spatial extent (au):  <R**2>=           6858.2085
 Charge=              0.0000 electrons
 Dipole moment (field-independent basis, Debye):
    X=             -1.9410    Y=             -6.6129    Z=             -4.1229  Tot=              8.0309
 Quadrupole moment (field-independent basis, Debye-Ang):
   XX=           -136.3785   YY=           -125.1980   ZZ=           -115.3740
   XY=             12.9671   XZ=             -4.4359   YZ=              6.4422
 Traceless Quadrupole moment (field-independent basis, Debye-Ang):
   XX=            -10.7283   YY=              0.4522   ZZ=             10.2761
   XY=             12.9671   XZ=             -4.4359   YZ=              6.4422
 Octapole moment (field-independent basis, Debye-Ang**2):
  XXX=           -140.6751  YYY=            -84.5733  ZZZ=             30.5235  XYY=             55.6426
  XXY=             33.3059  XXZ=             10.6564  XZZ=             -2.3197  YZZ=            -20.3504
  YYZ=             -8.6976  XYZ=             -5.6819
 Hexadecapole moment (field-independent basis, Debye-Ang**3):
 XXXX=          -5136.1478 YYYY=          -3189.1040 ZZZZ=           -925.9948 XXXY=             24.9240
 XXXZ=              6.5436 YYYX=            199.4680 YYYZ=             28.8380 ZZZX=            -11.9507
 ZZZY=             -0.2074 XXYY=          -1227.7384 XXZZ=           -596.3737 YYZZ=           -592.0358
 XXYZ=            -90.4528 YYXZ=            -18.4828 ZZXY=             55.7791
 N-N= 1.970489689426D+03 E-N=-6.622330546375D+03  KE= 1.138729653890D+03
 1\1\GINC-D10S0B3\FTS\RwB97XD\def2TZVP\C11H22N2O8\PMMASS\26-Feb-2022\0\
 \#n wB97XD/Def2TZVP scrf(smd,solvent=toluene) opt=(calcfc,ts,noeigente
 st) int=(grid=ultrafine)\\ts cycloaddition toluene with 4 h2o - opt\\0
 ,1\C,-0.510147734,-1.064275958,-1.1941673348\C,-1.591253483,-1.9412837
 828,-0.4925475083\C,0.4193366999,-2.862367085,0.1184089484\C,0.7567421
 729,-1.8533972899,-0.94127036\H,-0.6909873227,-0.5158302754,-2.1040410
 205\H,1.7485603885,-1.5191816609,-1.195315894\C,-0.9103271487,-2.50229
 11479,0.7437735414\H,-1.4515600307,-3.3700143493,1.1207629623\H,-0.804
 1942763,-1.7634756838,1.5352536637\C,-1.1368484177,-2.6920169525,-1.63
 7444773\H,-1.626350554,-2.7307673921,-2.5981070755\C,0.1980740657,-3.2
 425663536,-1.312048348\H,0.7323870575,-3.9861237906,-1.8785324127\H,-2
 .5956106029,-1.5424243005,-0.460807521\H,1.225461588,-3.3112592245,0.6
 768796908\N,0.63391437,0.2391566796,0.8695204322\N,-0.179763839,0.5712
 580392,-0.0784782142\C,1.9750392725,0.4056006322,0.556443656\C,-1.5131
 840003,0.7915613001,0.3906918751\O,-1.8706107047,0.7527638209,1.539170
 8852\O,2.8436187884,0.056705272,1.3275901592\O,-2.2725075661,1.1208097
 238,-0.6367503162\O,2.2385384181,1.0003832369,-0.616504318\C,3.6155742
 962,1.1774672822,-0.9402471069\H,3.6301120864,1.6761041196,-1.90700549
 08\H,4.1157702719,1.7948203889,-0.194330436\H,4.1271999374,0.217431539
 7,-1.014432294\C,-3.6004154321,1.5587873599,-0.3324733496\H,-4.1722316
 079,0.7597721721,0.1401751572\H,-3.5577907735,2.4334122137,0.314920580
 3\H,-4.0422439008,1.8244647986,-1.289105066\O,-1.4036459035,4.03344323
 33,0.3861206687\H,-0.8767590338,3.7516450931,-0.3800473087\H,-0.937736
 8816,3.6909185928,1.150951202\O,-3.9522345169,-1.1931969402,1.80672715
 61\H,-4.3393200462,-1.3446586513,2.6701277199\H,-3.2882260257,-0.50221
 87017,1.9358806385\O,0.1911539819,2.9606105211,-1.7320987007\H,1.10633
 00082,3.2451276167,-1.6964937717\H,0.201143289,2.0630002935,-1.3567348
 34\O,5.6705962665,-0.2847136429,1.3436656609\H,4.7103782948,-0.1540472
 195,1.3447628919\H,5.9096785484,-0.3701635276,2.267295965\\Version=ES6
 4L-G09RevD.01\State=1-A\HF=-1143.6757162\RMSD=8.437e-09\RMSF=3.195e-06
 \Dipole=-0.7752256,-2.5954373,-1.626621\Quadrupole=-7.887148,0.2318437
 ,7.6553042,9.6829454,-3.2622417,4.7935937\PG=C01 [X(C11H22N2O8)]\\@


 DEFINE YOUR TERMS, YOU WILL PERMIT ME AGAIN TO SAY, 
 OR WE SHALL NEVER UNDERSTAND ONE ANOTHER.

                                    -- VOLTAIRE
 Job cpu time:       4 days 10 hours 39 minutes  4.2 seconds.
 File lengths (MBytes):  RWF=   2334 Int=      0 D2E=      0 Chk=     50 Scr=      1
 Normal termination of Gaussian 09 at Sat Feb 26 07:06:34 2022.
