 Entering Gaussian System, Link 0=g09
 Input=ts_cyclo_water_freq.com
 Output=ts_cyclo_water_freq.log
 Initial command:
 /apps/applications/gaussian/G09.D01/2/default/g09/l1.exe "/nobackup/pmmass/Temp/Gau-40600.inp" -scrdir="/nobackup/pmmass/Temp/"
 Entering Link 1 = /apps/applications/gaussian/G09.D01/2/default/g09/l1.exe PID=     40601.
  
 Copyright (c) 1988,1990,1992,1993,1995,1998,2003,2009,2013,
            Gaussian, Inc.  All Rights Reserved.
  
 This is part of the Gaussian(R) 09 program.  It is based on
 the Gaussian(R) 03 system (copyright 2003, Gaussian, Inc.),
 the Gaussian(R) 98 system (copyright 1998, Gaussian, Inc.),
 the Gaussian(R) 94 system (copyright 1995, Gaussian, Inc.),
 the Gaussian 92(TM) system (copyright 1992, Gaussian, Inc.),
 the Gaussian 90(TM) system (copyright 1990, Gaussian, Inc.),
 the Gaussian 88(TM) system (copyright 1988, Gaussian, Inc.),
 the Gaussian 86(TM) system (copyright 1986, Carnegie Mellon
 University), and the Gaussian 82(TM) system (copyright 1983,
 Carnegie Mellon University). Gaussian is a federally registered
 trademark of Gaussian, Inc.
  
 This software contains proprietary and confidential information,
 including trade secrets, belonging to Gaussian, Inc.
  
 This software is provided under written license and may be
 used, copied, transmitted, or stored only in accord with that
 written license.
  
 The following legend is applicable only to US Government
 contracts under FAR:
  
                    RESTRICTED RIGHTS LEGEND
  
 Use, reproduction and disclosure by the US Government is
 subject to restrictions as set forth in subparagraphs (a)
 and (c) of the Commercial Computer Software - Restricted
 Rights clause in FAR 52.227-19.
  
 Gaussian, Inc.
 340 Quinnipiac St., Bldg. 40, Wallingford CT 06492
  
  
 ---------------------------------------------------------------
 Warning -- This program may not be used in any manner that
 competes with the business of Gaussian, Inc. or will provide
 assistance to any competitor of Gaussian, Inc.  The licensee
 of this program is prohibited from giving any competitor of
 Gaussian, Inc. access to this program.  By using this program,
 the user acknowledges that Gaussian, Inc. is engaged in the
 business of creating and licensing software in the field of
 computational chemistry and represents and warrants to the
 licensee that it is not a competitor of Gaussian, Inc. and that
 it will not use this program in any manner prohibited above.
 ---------------------------------------------------------------
  

 Cite this work as:
 Gaussian 09, Revision D.01,
 M. J. Frisch, G. W. Trucks, H. B. Schlegel, G. E. Scuseria, 
 M. A. Robb, J. R. Cheeseman, G. Scalmani, V. Barone, B. Mennucci, 
 G. A. Petersson, H. Nakatsuji, M. Caricato, X. Li, H. P. Hratchian, 
 A. F. Izmaylov, J. Bloino, G. Zheng, J. L. Sonnenberg, M. Hada, 
 M. Ehara, K. Toyota, R. Fukuda, J. Hasegawa, M. Ishida, T. Nakajima, 
 Y. Honda, O. Kitao, H. Nakai, T. Vreven, J. A. Montgomery, Jr., 
 J. E. Peralta, F. Ogliaro, M. Bearpark, J. J. Heyd, E. Brothers, 
 K. N. Kudin, V. N. Staroverov, T. Keith, R. Kobayashi, J. Normand, 
 K. Raghavachari, A. Rendell, J. C. Burant, S. S. Iyengar, J. Tomasi, 
 M. Cossi, N. Rega, J. M. Millam, M. Klene, J. E. Knox, J. B. Cross, 
 V. Bakken, C. Adamo, J. Jaramillo, R. Gomperts, R. E. Stratmann, 
 O. Yazyev, A. J. Austin, R. Cammi, C. Pomelli, J. W. Ochterski, 
 R. L. Martin, K. Morokuma, V. G. Zakrzewski, G. A. Voth, 
 P. Salvador, J. J. Dannenberg, S. Dapprich, A. D. Daniels, 
 O. Farkas, J. B. Foresman, J. V. Ortiz, J. Cioslowski, 
 and D. J. Fox, Gaussian, Inc., Wallingford CT, 2013.
 
 ******************************************
 Gaussian 09:  ES64L-G09RevD.01 24-Apr-2013
                28-Feb-2022 
 ******************************************
 %nprocshared=8
 Will use up to    8 processors via shared memory.
 %mem=4GB
 %NoSave
 %chk="ts_cyclo_water_freq.chk"
 ----------------------------------------------------------------------
 #n wB97XD/Def2TZVP scrf(smd,solvent=toluene) freq int=(grid=ultrafine)
 ----------------------------------------------------------------------
 1/10=4,30=1,38=1/1,3;
 2/12=2,17=6,18=5,40=1/2;
 3/5=44,7=101,11=2,16=1,25=1,30=1,70=32201,71=2,72=13,74=-58,75=-5,140=1/1,2,3;
 4//1;
 5/5=2,38=5,53=13,98=1/2;
 8/6=4,10=90,11=11/1;
 11/6=1,8=1,9=11,15=111,16=1/1,2,10;
 10/6=1/2;
 6/7=2,8=2,9=2,10=2,18=1,28=1/1;
 7/8=1,10=1,25=1/1,2,3,16;
 1/10=4,30=1/3;
 99//99;
 -----------------------------
 ts cylco water toluene - freq
 -----------------------------
 Symbolic Z-matrix:
 Charge =  0 Multiplicity = 1
 C                    -0.50594  -1.0701   -1.19057 
 C                    -1.58293  -1.95082  -0.48728 
 C                     0.43193  -2.8617    0.12491 
 C                     0.76457  -1.85301  -0.93654 
 H                    -0.68942  -0.52403  -2.10134 
 H                     1.75481  -1.51471  -1.19131 
 C                    -0.89926  -2.50662   0.74988 
 H                    -1.43648  -3.37616   1.12844 
 H                    -0.79637  -1.76598   1.54009 
 C                    -1.12529  -2.70143  -1.63097 
 H                    -1.61476  -2.74404  -2.59149 
 C                     0.21218  -3.24533  -1.30486 
 H                     0.74978  -3.98741  -1.87017 
 H                    -2.58909  -1.55649  -0.45605 
 H                     1.24018  -3.30596   0.68401 
 N                     0.63249   0.24205   0.87071 
 N                    -0.18284   0.56882  -0.07772 
 C                     1.9728    0.41406   0.55713 
 C                    -1.51717   0.78385   0.3913 
 O                    -1.87424   0.74538   1.5399 
 O                     2.84308   0.07044   1.32873 
 O                    -2.27815   1.10789  -0.63658 
 O                     2.2334    1.00804  -0.61687 
 C                     3.60956   1.19085  -0.94114 
 H                     3.62168   1.6879   -1.90874 
 H                     4.10706   1.81174  -0.19635 
 H                     4.12554   0.23303  -1.01377 
 C                    -3.60799   1.54033  -0.33283 
 H                    -4.17609   0.73952   0.14127 
 H                    -3.56925   2.41624   0.31307 
 H                    -4.05118   1.80236  -1.28984 
 O                    -1.42241   4.02618   0.3812 
 H                    -0.89436   3.74548  -0.38458 
 H                    -0.95482   3.68709   1.14653 
 O                    -3.94694  -1.20959   1.81111 
 H                    -4.33319  -1.36134   2.67483 
 H                    -3.28606  -0.51537   1.93898 
 O                     0.17693   2.95702  -1.73546 
 H                     1.09081   3.24577  -1.70049 
 H                     0.19107   2.06011  -1.35857 
 O                     5.67158  -0.25807   1.34492 
 H                     4.71078  -0.13178   1.34595 
 H                     5.9112   -0.34086   2.26865 
 

 GradGradGradGradGradGradGradGradGradGradGradGradGradGradGradGradGradGrad
 Berny optimization.
 Initialization pass.
 Trust Radius=3.00D-01 FncErr=1.00D-07 GrdErr=1.00D-07
 Number of steps in this run=      2 maximum allowed number of steps=      2.
 GradGradGradGradGradGradGradGradGradGradGradGradGradGradGradGradGradGrad

                          Input orientation:                          
 ---------------------------------------------------------------------
 Center     Atomic      Atomic             Coordinates (Angstroms)
 Number     Number       Type             X           Y           Z
 ---------------------------------------------------------------------
      1          6           0       -0.505940   -1.070100   -1.190570
      2          6           0       -1.582930   -1.950820   -0.487280
      3          6           0        0.431930   -2.861700    0.124910
      4          6           0        0.764570   -1.853010   -0.936540
      5          1           0       -0.689420   -0.524030   -2.101340
      6          1           0        1.754810   -1.514710   -1.191310
      7          6           0       -0.899260   -2.506620    0.749880
      8          1           0       -1.436480   -3.376160    1.128440
      9          1           0       -0.796370   -1.765980    1.540090
     10          6           0       -1.125290   -2.701430   -1.630970
     11          1           0       -1.614760   -2.744040   -2.591490
     12          6           0        0.212180   -3.245330   -1.304860
     13          1           0        0.749780   -3.987410   -1.870170
     14          1           0       -2.589090   -1.556490   -0.456050
     15          1           0        1.240180   -3.305960    0.684010
     16          7           0        0.632490    0.242050    0.870710
     17          7           0       -0.182840    0.568820   -0.077720
     18          6           0        1.972800    0.414060    0.557130
     19          6           0       -1.517170    0.783850    0.391300
     20          8           0       -1.874240    0.745380    1.539900
     21          8           0        2.843080    0.070440    1.328730
     22          8           0       -2.278150    1.107890   -0.636580
     23          8           0        2.233400    1.008040   -0.616870
     24          6           0        3.609560    1.190850   -0.941140
     25          1           0        3.621680    1.687900   -1.908740
     26          1           0        4.107060    1.811740   -0.196350
     27          1           0        4.125540    0.233030   -1.013770
     28          6           0       -3.607990    1.540330   -0.332830
     29          1           0       -4.176090    0.739520    0.141270
     30          1           0       -3.569250    2.416240    0.313070
     31          1           0       -4.051180    1.802360   -1.289840
     32          8           0       -1.422410    4.026180    0.381200
     33          1           0       -0.894360    3.745480   -0.384580
     34          1           0       -0.954820    3.687090    1.146530
     35          8           0       -3.946940   -1.209590    1.811110
     36          1           0       -4.333190   -1.361340    2.674830
     37          1           0       -3.286060   -0.515370    1.938980
     38          8           0        0.176930    2.957020   -1.735460
     39          1           0        1.090810    3.245770   -1.700490
     40          1           0        0.191070    2.060110   -1.358570
     41          8           0        5.671580   -0.258070    1.344920
     42          1           0        4.710780   -0.131780    1.345950
     43          1           0        5.911200   -0.340860    2.268650
 ---------------------------------------------------------------------
                    Distance matrix (angstroms):
                    1          2          3          4          5
     1  C    0.000000
     2  C    1.558907   0.000000
     3  C    2.412451   2.294371   0.000000
     4  C    1.513828   2.392103   1.501593   0.000000
     5  H    1.077664   2.332226   3.417355   2.288457   0.000000
     6  H    2.304055   3.438947   2.301484   1.077000   2.789957
     7  C    2.446147   1.518843   1.512857   2.457549   3.479102
     8  H    3.400239   2.159535   2.182361   3.380643   4.373125
     9  H    2.832861   2.182446   2.170727   2.928789   3.848882
    10  C    1.799662   1.442524   2.352389   2.184862   2.269868
    11  H    2.448292   2.248980   3.403177   3.032162   2.454576
    12  C    2.293553   2.359367   1.496564   1.542514   2.975355
    13  H    3.247982   3.391404   2.312703   2.329710   3.757624
    14  H    2.261771   1.081124   3.341803   3.400857   2.716928
    15  H    3.400302   3.343393   1.078530   2.227880   4.384138
    16  N    2.695670   3.400133   3.198391   2.769995   3.341767
    17  N    2.007209   2.911456   3.491056   2.738689   2.354991
    18  C    3.376587   4.396210   3.645778   2.971612   3.877485
    19  C    2.638566   2.873090   4.142462   3.731290   2.934105
    20  O    3.552982   3.385826   4.509062   4.455076   4.034083
    21  O    4.343229   5.193549   3.982496   3.626474   4.959570
    22  O    2.862040   3.140275   4.866420   4.256178   2.707905
    23  O    3.485941   4.830737   4.332484   3.231912   3.618531
    24  C    4.702281   6.085888   5.258988   4.166422   4.771594
    25  H    5.015933   6.507595   5.916849   4.652558   4.849259
    26  H    5.529308   6.827700   5.954060   5.015029   5.664894
    27  H    4.814563   6.134576   4.951434   3.956469   4.993975
    28  C    4.144005   4.038917   5.992357   5.567630   3.988391
    29  H    4.303315   3.789127   5.848325   5.682694   4.333904
    30  H    4.878460   4.863871   6.625820   6.210476   4.771581
    31  H    4.563946   4.563192   6.622179   6.056236   4.167979
    32  O    5.411326   6.041900   7.137727   6.409695   5.234949
    33  H    4.897989   5.738685   6.758214   5.865134   4.606298
    34  H    5.319247   5.903379   6.771516   6.163456   5.324719
    35  O    4.568372   3.379432   4.974660   5.491985   5.136993
    36  H    5.447383   4.232063   5.608881   6.266649   6.065472
    37  H    4.222662   3.293616   4.756003   5.144463   4.802791
    38  O    4.120790   5.361152   6.114205   4.911210   3.605848
    39  H    4.629942   5.968694   6.408385   5.166005   4.188233
    40  H    3.211271   4.471441   5.146158   3.977376   2.829267
    41  O    6.726801   7.671393   5.976725   5.641599   7.239459
    42  H    5.876100   6.802972   5.220341   4.872881   6.418709
    43  H    7.326505   8.145496   6.400989   6.248811   7.918241
                    6          7          8          9         10
     6  H    0.000000
     7  C    3.434558   0.000000
     8  H    4.362404   1.089960   0.000000
     9  H    3.745958   1.087918   1.780976   0.000000
    10  C    3.145883   2.399476   2.857699   3.322480   0.000000
    11  H    3.850423   3.425356   3.777465   4.323924   1.078886
    12  C    2.321130   2.450091   2.942133   3.361457   1.480203
    13  H    2.754121   3.431725   3.760987   4.353757   2.286230
    14  H    4.405885   2.283099   2.674008   2.691153   2.198644
    15  H    2.643907   2.284838   2.714213   2.692944   3.364526
    16  N    2.932189   3.148975   4.175944   2.553800   4.244086
    17  N    3.055432   3.264431   4.311531   2.906032   3.741034
    18  C    2.612416   4.100762   5.129849   3.658837   4.908383
    19  C    4.300452   3.367133   4.225585   2.888062   4.048496
    20  O    5.073216   3.485717   4.165096   2.732898   4.742978
    21  O    3.169800   4.580547   5.498527   4.081998   5.673716
    22  O    4.842574   4.109537   4.891872   3.897781   4.102294
    23  O    2.631216   4.902489   5.977904   4.639738   5.105817
    24  C    3.289793   6.071268   7.113597   5.857607   6.168023
    25  H    3.775794   6.715739   7.775227   6.583531   6.471252
    26  H    4.193840   6.678834   7.707153   6.313393   7.057218
    27  H    2.950674   5.988719   6.967882   5.894357   6.046752
    28  C    6.231363   4.988716   5.569797   4.727020   5.083453
    29  H    6.483278   4.652467   5.041705   4.433592   4.928321
    30  H    6.786836   5.617313   6.226189   5.165792   5.995230
    31  H    6.687464   5.715100   6.285046   5.597798   5.381573
    32  O    6.577916   6.564075   7.439973   5.940040   7.028360
    33  H    5.944621   6.354194   7.300745   5.838677   6.570347
    34  H    6.313978   6.206647   7.079677   5.469549   6.968268
    35  O    6.451169   3.478053   3.385627   3.210781   4.694168
    36  H    7.213481   4.099875   3.852499   3.736370   5.534110
    37  H    6.017289   3.328040   3.501720   2.814551   4.710873
    38  O    4.773068   6.098070   7.135418   5.829517   5.807302
    39  H    4.833459   6.561607   7.631513   6.259429   6.347056
    40  H    3.905457   5.146786   6.195738   4.900636   4.947653
    41  O    4.832463   6.970365   7.764912   6.644265   7.811746
    42  H    4.133756   6.121088   6.954288   5.747782   7.037391
    43  H    5.533970   7.306131   8.031284   6.895887   8.384004
                   11         12         13         14         15
    11  H    0.000000
    12  C    2.290069   0.000000
    13  H    2.767186   1.076695   0.000000
    14  H    2.630532   3.379315   4.365451   0.000000
    15  H    4.381248   2.239657   2.688625   4.361616   0.000000
    16  N    5.094477   4.131777   5.041281   3.920920   3.604514
    17  N    4.398236   4.026121   4.984164   3.232664   4.197516
    18  C    5.723460   4.467429   5.173055   5.071532   3.793597
    19  C    4.620884   4.701266   5.746149   2.710020   4.941174
    20  O    5.414034   5.326497   6.396355   3.129446   5.181266
    21  O    6.569761   4.985154   5.575035   5.944814   3.792760
    22  O    4.370254   5.059532   6.054105   2.688530   5.796954
    23  O    5.725868   4.759182   5.359702   5.464347   4.614041
    24  C    6.745408   5.599480   5.987973   6.797533   5.336326
    25  H    6.894095   6.027115   6.360695   7.156119   6.110035
    26  H    7.696171   6.478645   6.906746   7.500056   5.931685
    27  H    6.656064   5.243864   5.471864   6.971348   4.871572
    28  C    5.237398   6.200087   7.204824   3.262458   6.930025
    29  H    5.115035   6.101413   7.117159   2.854299   6.782069
    30  H    6.235783   6.997877   8.026661   4.163513   7.484102
    31  H    5.319792   6.607241   7.543702   3.756965   7.615084
    32  O    7.396605   7.641305   8.602599   5.764402   7.806495
    33  H    6.892264   7.137420   8.044113   5.566696   7.444525
    34  H    7.467781   7.445109   8.420457   5.721384   7.344025
    35  O    5.213107   5.581378   6.582346   2.665354   5.707130
    36  H    6.085708   6.328328   7.306836   3.589203   6.229556
    37  H    5.318399   5.496623   6.546197   2.702937   5.463441
    38  O    6.036972   6.217379   6.969319   5.446056   6.797739
    39  H    6.632632   6.562232   7.243203   6.176730   6.973759
    40  H    5.278349   5.305754   6.094784   4.650121   5.836735
    41  O    8.646740   6.763882   6.961961   8.553833   5.418832
    42  H    7.895555   6.079341   6.395219   7.652784   4.749594
    43  H    9.275576   7.326988   7.554298   9.008700   5.755113
                   16         17         18         19         20
    16  N    0.000000
    17  N    1.292695   0.000000
    18  C    1.387210   2.252503   0.000000
    19  C    2.268131   1.430613   3.513422   0.000000
    20  O    2.642887   2.347062   3.984385   1.203437   0.000000
    21  O    2.264054   3.373822   1.212777   4.516582   4.770036
    22  O    3.390196   2.234557   4.469555   1.319329   2.243128
    23  O    2.315718   2.514322   1.341268   3.890173   4.646865
    24  C    3.611920   3.938872   2.351000   5.312665   6.035401
    25  H    4.330252   4.367991   3.228310   5.702216   6.556417
    26  H    3.959189   4.467904   2.660133   5.747508   6.318832
    27  H    3.968973   4.421661   2.671102   5.841044   6.540726
    28  C    4.595183   3.569393   5.762441   2.338409   2.673004
    29  H    4.888967   4.002892   6.171524   2.671018   2.693458
    30  H    4.763684   3.877299   5.897678   2.623328   2.677675
    31  H    5.388813   4.237323   6.451900   3.206993   3.723399
    32  O    4.333806   3.701416   4.960425   3.243730   3.508616
    33  H    4.022567   3.269800   4.495084   3.124281   3.696537
    34  H    3.803147   3.437783   4.430697   3.052116   3.107045
    35  O    4.895180   4.571528   6.265144   3.448688   2.862088
    36  H    5.521203   5.341110   6.884926   4.212638   3.431147
    37  H    4.131576   3.856491   5.516245   2.685565   1.934423
    38  O    3.790873   2.929340   3.866234   3.480769   4.452711
    39  H    3.980384   3.379590   3.727377   4.151891   5.054068
    40  H    2.910306   2.001083   3.090946   2.758436   3.794094
    41  O    5.086003   6.081273   3.841008   7.326194   7.614744
    42  H    4.122869   5.144433   2.901157   6.366875   6.646015
    43  H    5.491703   6.593201   4.360069   7.744036   7.894560
                   21         22         23         24         25
    21  O    0.000000
    22  O    5.582629   0.000000
    23  O    2.244140   4.512698   0.000000
    24  C    2.644829   5.896166   1.425618   0.000000
    25  H    3.701838   6.063233   2.014562   1.087867   0.000000
    26  H    2.637355   6.438953   2.081675   1.089827   1.784155
    27  H    2.675527   6.474172   2.082874   1.090380   1.780869
    28  C    6.821852   1.430994   5.872465   7.251566   7.400905
    29  H    7.150278   2.083968   6.459756   7.873478   8.118324
    30  H    6.903066   2.068950   6.043059   7.389854   7.561507
    31  H    7.575439   2.013125   6.370226   7.693015   7.698631
    32  O    5.894073   3.206959   4.844611   5.925234   6.012838
    33  H    5.514509   2.989190   4.162982   5.207801   5.191466
    34  H    5.247609   3.403374   4.522348   5.605635   5.854553
    35  O    6.926438   3.761218   7.000684   8.392716   8.917216
    36  H    7.440486   4.613645   7.718119   9.092645   9.674034
    37  H    6.187240   3.206925   6.270374   7.665237   8.208302
    38  O    4.982967   3.264083   3.046118   3.941224   3.675186
    39  H    4.725394   4.129446   2.736271   3.338175   2.979200
    40  H    4.267731   2.743181   2.414142   3.551892   3.494326
    41  O    2.847559   8.306046   4.156048   3.402553   4.309895
    42  H    1.878694   7.369691   3.359950   2.862310   3.884634
    43  H    3.235116   8.809352   4.865385   4.236323   5.177679
                   26         27         28         29         30
    26  H    0.000000
    27  H    1.777876   0.000000
    28  C    7.721029   7.872750   0.000000
    29  H    8.359080   8.396887   1.090323   0.000000
    30  H    7.716908   8.107817   1.088993   1.791413   0.000000
    31  H    8.231202   8.330532   1.086713   1.786983   1.782814
    32  O    5.984342   6.863940   3.386155   4.294468   2.684301
    33  H    5.365537   6.158943   3.497020   4.481302   3.067349
    34  H    5.562634   6.512103   3.719731   4.480547   3.024063
    35  O    8.833190   8.673294   3.503345   2.576801   3.941246
    36  H    9.463083   9.364716   4.241653   3.295030   4.520136
    37  H    8.039484   8.013155   3.080692   2.366150   3.364241
    38  O    4.373379   4.851029   4.277850   5.233374   4.303810
    39  H    3.662874   4.331024   5.182445   6.116666   5.143802
    40  H    4.092361   4.351685   3.969278   4.802662   4.130522
    41  O    3.017839   2.862663   9.599974   9.970986   9.675205
    42  H    2.553515   2.458428   8.649635   9.010376   8.724571
    43  H    3.736955   3.780504  10.045972  10.365635  10.065030
                   31         32         33         34         35
    31  H    0.000000
    32  O    3.827294   0.000000
    33  H    3.815852   0.971621   0.000000
    34  H    4.367557   0.958829   1.533415   0.000000
    35  O    4.324188   5.985915   6.220291   5.776844   0.000000
    36  H    5.080072   6.539018   6.874966   6.263843   0.958243
    37  H    4.047537   5.150296   5.410546   4.870660   0.966982
    38  O    4.405534   2.860287   1.895840   3.181152   6.851650
    39  H    5.356503   3.355406   2.433563   3.533396   7.586863
    40  H    4.250629   3.081485   2.228741   3.199321   6.153124
    41  O   10.281994   8.343156   7.882332   7.714455   9.676707
    42  H    9.352017   7.472308   7.031748   6.835390   8.736942
    43  H   10.793760   8.741587   8.369794   8.039015   9.906915
                   36         37         38         39         40
    36  H    0.000000
    37  H    1.534152   0.000000
    38  O    7.644611   6.127912   0.000000
    39  H    8.353961   6.822676   0.959050   0.000000
    40  H    6.960141   5.440346   0.972982   1.527164   0.000000
    41  O   10.152896   8.981004   7.072250   6.521876   6.535963
    42  H    9.223401   8.027968   6.292183   5.813160   5.704962
    43  H   10.303101   9.204821   7.732449   7.200982   7.186186
                   41         42         43
    41  O    0.000000
    42  H    0.969065   0.000000
    43  H    0.957888   1.528430   0.000000
 Stoichiometry    C11H22N2O8
 Framework group  C1[X(C11H22N2O8)]
 Deg. of freedom   123
 Full point group                 C1      NOp   1
 Largest Abelian subgroup         C1      NOp   1
 Largest concise Abelian subgroup C1      NOp   1
                         Standard orientation:                         
 ---------------------------------------------------------------------
 Center     Atomic      Atomic             Coordinates (Angstroms)
 Number     Number       Type             X           Y           Z
 ---------------------------------------------------------------------
      1          6           0       -0.505939   -1.070101   -1.190569
      2          6           0       -1.582928   -1.950822   -0.487279
      3          6           0        0.431933   -2.861699    0.124911
      4          6           0        0.764572   -1.853009   -0.936539
      5          1           0       -0.689420   -0.524031   -2.101339
      6          1           0        1.754811   -1.514707   -1.191309
      7          6           0       -0.899257   -2.506621    0.749881
      8          1           0       -1.436476   -3.376162    1.128441
      9          1           0       -0.796368   -1.765981    1.540091
     10          6           0       -1.125287   -2.701432   -1.630969
     11          1           0       -1.614757   -2.744042   -2.591489
     12          6           0        0.212184   -3.245330   -1.304859
     13          1           0        0.749785   -3.987409   -1.870169
     14          1           0       -2.589089   -1.556494   -0.456049
     15          1           0        1.240184   -3.305958    0.684011
     16          7           0        0.632489    0.242051    0.870711
     17          7           0       -0.182842    0.568820   -0.077719
     18          6           0        1.972798    0.414063    0.557131
     19          6           0       -1.517172    0.783848    0.391301
     20          8           0       -1.874242    0.745377    1.539901
     21          8           0        2.843079    0.070444    1.328731
     22          8           0       -2.278153    1.107887   -0.636579
     23          8           0        2.233398    1.008043   -0.616869
     24          6           0        3.609557    1.190856   -0.941139
     25          1           0        3.621677    1.687906   -1.908739
     26          1           0        4.107056    1.811746   -0.196349
     27          1           0        4.125539    0.233036   -1.013769
     28          6           0       -3.607993    1.540324   -0.332829
     29          1           0       -4.176092    0.739514    0.141271
     30          1           0       -3.569255    2.416235    0.313071
     31          1           0       -4.051184    1.802354   -1.289839
     32          8           0       -1.422417    4.026178    0.381201
     33          1           0       -0.894367    3.745479   -0.384579
     34          1           0       -0.954827    3.687089    1.146531
     35          8           0       -3.946939   -1.209596    1.811111
     36          1           0       -4.333189   -1.361347    2.674831
     37          1           0       -3.286060   -0.515375    1.938981
     38          8           0        0.176925    2.957020   -1.735459
     39          1           0        1.090804    3.245772   -1.700489
     40          1           0        0.191066    2.060110   -1.358569
     41          8           0        5.671579   -0.258061    1.344921
     42          1           0        4.710779   -0.131773    1.345951
     43          1           0        5.911200   -0.340851    2.268651
 ---------------------------------------------------------------------
 Rotational constants (GHZ):      0.3342501      0.2309933      0.1718747
 Standard basis: def2TZVP (5D, 7F)
 There are   888 symmetry adapted cartesian basis functions of A   symmetry.
 There are   783 symmetry adapted basis functions of A   symmetry.
   783 basis functions,  1247 primitive gaussians,   888 cartesian basis functions
    83 alpha electrons       83 beta electrons
       nuclear repulsion energy      1970.5370931014 Hartrees.
 NAtoms=   43 NActive=   43 NUniq=   43 SFac= 1.00D+00 NAtFMM=   60 NAOKFM=F Big=F
 Integral buffers will be    131072 words long.
 Raffenetti 2 integral format.
 Two-electron integral symmetry is turned on.
 Nuclear repulsion after empirical dispersion term =     1970.5006647492 Hartrees.
 Force inversion solution in PCM.
 ------------------------------------------------------------------------------
 Polarizable Continuum Model (PCM)
 =================================
 Model                : PCM (using non-symmetric T matrix).
 Atomic radii         : SMD-Coulomb.
 Polarization charges : Total charges.
 Charge compensation  : None.
 Solution method      : Matrix inversion.
 Cavity type          : VdW (van der Waals Surface) (Alpha=1.000).
 Cavity algorithm     : GePol (No added spheres)
                        Default sphere list used, NSphG=   43.
                        Lebedev-Laikov grids with approx.  5.0 points / Ang**2.
                        Smoothing algorithm: Karplus/York (Gamma=1.0000).
                        Polarization charges: spherical gaussians, with
                                              point-specific exponents (IZeta= 3).
                        Self-potential: point-specific (ISelfS= 7).
                        Self-field    : sphere-specific E.n sum rule (ISelfD= 2).
 1st derivatives      : Analytical E(r).r(x)/FMM algorithm (CHGder, D1EAlg=3).
                        Cavity 1st derivative terms included.
 2nd derivatives      : Analytical E(r).r(xy)/FMM algorithm (CHGder, D2EAlg=3).
                        Cavity 2nd derivative terms included.
 Solvent              : Toluene, Eps=   2.374100 Eps(inf)=   2.238315
 ------------------------------------------------------------------------------
 ------------------------------------------------------------------------------
 Atomic radii for non-electrostatic terms: SMD-CDS.
 ------------------------------------------------------------------------------
 Nuclear repulsion after PCM non-electrostatic terms =     1970.4897615904 Hartrees.
 One-electron integrals computed using PRISM.
   1 Symmetry operations used in ECPInt.
 ECPInt:  NShTT=   51040 NPrTT=  153156 LenC2=   44444 LenP2D=   94279.
 LDataN:  DoStor=T MaxTD1= 6 Len=  172
 NBasis=   783 RedAO= T EigKep=  2.40D-05  NBF=   783
 NBsUse=   783 1.00D-06 EigRej= -1.00D+00 NBFU=   783
 ExpMin= 9.52D-02 ExpMax= 2.70D+04 ExpMxC= 9.22D+02 IAcc=3 IRadAn=         5 AccDes= 0.00D+00
 Harris functional with IExCor= 4639 and IRadAn=       5 diagonalized for initial guess.
 HarFok:  IExCor= 4639 AccDes= 0.00D+00 IRadAn=         5 IDoV= 1 UseB2=F ITyADJ=14
 ICtDFT=  3500011 ScaDFX=  1.000000  1.000000  1.000000  1.000000
 FoFCou: FMM=F IPFlag=           0 FMFlag=      100000 FMFlg1=           0
         NFxFlg=           0 DoJE=T BraDBF=F KetDBF=T FulRan=T
         wScrn=  0.000000 ICntrl=     500 IOpCl=  0 I1Cent=   200000004 NGrid=           0
         NMat0=    1 NMatS0=      1 NMatT0=    0 NMatD0=    1 NMtDS0=    0 NMtDT0=    0
 Petite list used in FoFCou.
 Requested convergence on RMS density matrix=1.00D-08 within 128 cycles.
 Requested convergence on MAX density matrix=1.00D-06.
 Requested convergence on             energy=1.00D-06.
 No special actions if energy rises.
 Inv3:  Mode=1 IEnd=    27980748.
 Iteration    1 A*A^-1 deviation from unit magnitude is 4.88D-15 for   3046.
 Iteration    1 A*A^-1 deviation from orthogonality  is 2.55D-15 for   2325   1352.
 Iteration    1 A^-1*A deviation from unit magnitude is 4.88D-15 for   3046.
 Iteration    1 A^-1*A deviation from orthogonality  is 5.63D-15 for   2737   1494.
 Error on total polarization charges =  0.01278
 SCF Done:  E(RwB97XD) =  -1143.67571623     A.U. after   17 cycles
            NFock= 17  Conv=0.74D-08     -V/T= 2.0043
 SMD-CDS (non-electrostatic) energy       (kcal/mol) =      -6.84
 (included in total energy above)
 DoSCS=F DFT=T ScalE2(SS,OS)=  1.000000  1.000000
 Range of M.O.s used for correlation:     1   783
 NBasis=   783 NAE=    83 NBE=    83 NFC=     0 NFV=     0
 NROrb=    783 NOA=    83 NOB=    83 NVA=   700 NVB=   700

 **** Warning!!: The largest alpha MO coefficient is  0.25852499D+02

   1 Symmetry operations used in ECPInt.
 ECPInt:  NShTT=   51040 NPrTT=  153156 LenC2=   44444 LenP2D=   94279.
 LDataN:  DoStor=T MaxTD1= 7 Len=  274
 Number of processors reduced to   3 by ecpmxn.
 Symmetrizing basis deriv contribution to polar:
 IMax=3 JMax=2 DiffMx= 0.00D+00
 G2DrvN: will do    44 centers at a time, making    1 passes.
 Calling FoFCou, ICntrl=  3107 FMM=F I1Cent=   0 AccDes= 0.00D+00.
 NEqPCM:  Using equilibrium solvation (IEInf=0, Eps=   2.3741, EpsInf=   2.2383)
 G2PCM: DoFxE=T DoFxN=T DoGrad=T DoDP/DQ/DG/TGxP=FFFF NFrqRd=   0 IEInf=0 SqF1=F DoCFld=F IF1Alg=4.
 End of G2Drv F.D. properties file   721 does not exist.
 End of G2Drv F.D. properties file   722 does not exist.
 End of G2Drv F.D. properties file   788 does not exist.
          IDoAtm=1111111111111111111111111111111111111111111
 NEqPCM:  Using equilibrium solvation (IEInf=0, Eps=   2.3741, EpsInf=   2.2383)
          Differentiating once with respect to electric field.
                with respect to dipole field.
          Differentiating once with respect to nuclear coordinates.
          There are   132 degrees of freedom in the 1st order CPHF.  IDoFFX=6 NUNeed=     3.
    129 vectors produced by pass  0 Test12= 5.81D-14 1.00D-09 XBig12= 1.28D+02 7.48D+00.
 AX will form   129 AO Fock derivatives at one time.
    129 vectors produced by pass  1 Test12= 5.81D-14 1.00D-09 XBig12= 1.76D+01 6.93D-01.
    129 vectors produced by pass  2 Test12= 5.81D-14 1.00D-09 XBig12= 4.10D-01 8.14D-02.
    129 vectors produced by pass  3 Test12= 5.81D-14 1.00D-09 XBig12= 5.82D-03 7.93D-03.
    129 vectors produced by pass  4 Test12= 5.81D-14 1.00D-09 XBig12= 6.18D-05 6.88D-04.
    129 vectors produced by pass  5 Test12= 5.81D-14 1.00D-09 XBig12= 4.79D-07 5.04D-05.
    126 vectors produced by pass  6 Test12= 5.81D-14 1.00D-09 XBig12= 3.35D-09 4.01D-06.
     47 vectors produced by pass  7 Test12= 5.81D-14 1.00D-09 XBig12= 2.11D-11 2.98D-07.
      3 vectors produced by pass  8 Test12= 5.81D-14 1.00D-09 XBig12= 1.27D-13 3.17D-08.
      3 vectors produced by pass  9 Test12= 5.81D-14 1.00D-09 XBig12= 9.60D-16 3.04D-09.
 InvSVY:  IOpt=1 It=  1 EMax= 1.42D-14
 Solved reduced A of dimension   953 with   132 vectors.
 Isotropic polarizability for W=    0.000000      236.43 Bohr**3.
 End of Minotr F.D. properties file   721 does not exist.
 End of Minotr F.D. properties file   722 does not exist.
 End of Minotr F.D. properties file   788 does not exist.

 **********************************************************************

            Population analysis using the SCF density.

 **********************************************************************

 Orbital symmetries:
       Occupied  (A) (A) (A) (A) (A) (A) (A) (A) (A) (A) (A) (A)
                 (A) (A) (A) (A) (A) (A) (A) (A) (A) (A) (A) (A)
                 (A) (A) (A) (A) (A) (A) (A) (A) (A) (A) (A) (A)
                 (A) (A) (A) (A) (A) (A) (A) (A) (A) (A) (A) (A)
                 (A) (A) (A) (A) (A) (A) (A) (A) (A) (A) (A) (A)
                 (A) (A) (A) (A) (A) (A) (A) (A) (A) (A) (A) (A)
                 (A) (A) (A) (A) (A) (A) (A) (A) (A) (A) (A)
       Virtual   (A) (A) (A) (A) (A) (A) (A) (A) (A) (A) (A) (A)
                 (A) (A) (A) (A) (A) (A) (A) (A) (A) (A) (A) (A)
                 (A) (A) (A) (A) (A) (A) (A) (A) (A) (A) (A) (A)
                 (A) (A) (A) (A) (A) (A) (A) (A) (A) (A) (A) (A)
                 (A) (A) (A) (A) (A) (A) (A) (A) (A) (A) (A) (A)
                 (A) (A) (A) (A) (A) (A) (A) (A) (A) (A) (A) (A)
                 (A) (A) (A) (A) (A) (A) (A) (A) (A) (A) (A) (A)
                 (A) (A) (A) (A) (A) (A) (A) (A) (A) (A) (A) (A)
                 (A) (A) (A) (A) (A) (A) (A) (A) (A) (A) (A) (A)
                 (A) (A) (A) (A) (A) (A) (A) (A) (A) (A) (A) (A)
                 (A) (A) (A) (A) (A) (A) (A) (A) (A) (A) (A) (A)
                 (A) (A) (A) (A) (A) (A) (A) (A) (A) (A) (A) (A)
                 (A) (A) (A) (A) (A) (A) (A) (A) (A) (A) (A) (A)
                 (A) (A) (A) (A) (A) (A) (A) (A) (A) (A) (A) (A)
                 (A) (A) (A) (A) (A) (A) (A) (A) (A) (A) (A) (A)
                 (A) (A) (A) (A) (A) (A) (A) (A) (A) (A) (A) (A)
                 (A) (A) (A) (A) (A) (A) (A) (A) (A) (A) (A) (A)
                 (A) (A) (A) (A) (A) (A) (A) (A) (A) (A) (A) (A)
                 (A) (A) (A) (A) (A) (A) (A) (A) (A) (A) (A) (A)
                 (A) (A) (A) (A) (A) (A) (A) (A) (A) (A) (A) (A)
                 (A) (A) (A) (A) (A) (A) (A) (A) (A) (A) (A) (A)
                 (A) (A) (A) (A) (A) (A) (A) (A) (A) (A) (A) (A)
                 (A) (A) (A) (A) (A) (A) (A) (A) (A) (A) (A) (A)
                 (A) (A) (A) (A) (A) (A) (A) (A) (A) (A) (A) (A)
                 (A) (A) (A) (A) (A) (A) (A) (A) (A) (A) (A) (A)
                 (A) (A) (A) (A) (A) (A) (A) (A) (A) (A) (A) (A)
                 (A) (A) (A) (A) (A) (A) (A) (A) (A) (A) (A) (A)
                 (A) (A) (A) (A) (A) (A) (A) (A) (A) (A) (A) (A)
                 (A) (A) (A) (A) (A) (A) (A) (A) (A) (A) (A) (A)
                 (A) (A) (A) (A) (A) (A) (A) (A) (A) (A) (A) (A)
                 (A) (A) (A) (A) (A) (A) (A) (A) (A) (A) (A) (A)
                 (A) (A) (A) (A) (A) (A) (A) (A) (A) (A) (A) (A)
                 (A) (A) (A) (A) (A) (A) (A) (A) (A) (A) (A) (A)
                 (A) (A) (A) (A) (A) (A) (A) (A) (A) (A) (A) (A)
                 (A) (A) (A) (A) (A) (A) (A) (A) (A) (A) (A) (A)
                 (A) (A) (A) (A) (A) (A) (A) (A) (A) (A) (A) (A)
                 (A) (A) (A) (A) (A) (A) (A) (A) (A) (A) (A) (A)
                 (A) (A) (A) (A) (A) (A) (A) (A) (A) (A) (A) (A)
                 (A) (A) (A) (A) (A) (A) (A) (A) (A) (A) (A) (A)
                 (A) (A) (A) (A) (A) (A) (A) (A) (A) (A) (A) (A)
                 (A) (A) (A) (A) (A) (A) (A) (A) (A) (A) (A) (A)
                 (A) (A) (A) (A) (A) (A) (A) (A) (A) (A) (A) (A)
                 (A) (A) (A) (A) (A) (A) (A) (A) (A) (A) (A) (A)
                 (A) (A) (A) (A) (A) (A) (A) (A) (A) (A) (A) (A)
                 (A) (A) (A) (A) (A) (A) (A) (A) (A) (A) (A) (A)
                 (A) (A) (A) (A) (A) (A) (A) (A) (A) (A) (A) (A)
                 (A) (A) (A) (A) (A) (A) (A) (A) (A) (A) (A) (A)
                 (A) (A) (A) (A) (A) (A) (A) (A) (A) (A) (A) (A)
                 (A) (A) (A) (A) (A) (A) (A) (A) (A) (A) (A) (A)
                 (A) (A) (A) (A) (A) (A) (A) (A) (A) (A) (A) (A)
                 (A) (A) (A) (A) (A) (A) (A) (A) (A) (A) (A) (A)
                 (A) (A) (A) (A) (A) (A) (A) (A) (A) (A) (A) (A)
                 (A) (A) (A) (A) (A) (A) (A) (A) (A) (A) (A) (A)
                 (A) (A) (A) (A) (A) (A) (A) (A) (A) (A) (A) (A)
                 (A) (A) (A) (A) (A) (A) (A) (A) (A) (A) (A) (A)
                 (A) (A) (A) (A) (A) (A) (A) (A) (A) (A) (A) (A)
                 (A) (A) (A) (A) (A) (A) (A) (A) (A) (A) (A) (A)
                 (A) (A) (A) (A) (A) (A) (A) (A) (A) (A) (A) (A)
                 (A) (A) (A) (A)
 The electronic state is 1-A.
 Alpha  occ. eigenvalues --  -19.30725 -19.30112 -19.24913 -19.24281 -19.23743
 Alpha  occ. eigenvalues --  -19.23295 -19.21957 -19.21750 -14.50797 -14.45686
 Alpha  occ. eigenvalues --  -10.44538 -10.43036 -10.36085 -10.35102 -10.33654
 Alpha  occ. eigenvalues --  -10.33573 -10.33017 -10.33014 -10.32716 -10.31810
 Alpha  occ. eigenvalues --  -10.29559  -1.23819  -1.22348  -1.14439  -1.12459
 Alpha  occ. eigenvalues --   -1.11377  -1.10648  -1.10106  -1.08661  -1.08235
 Alpha  occ. eigenvalues --   -1.08176  -0.91860  -0.90120  -0.85674  -0.83205
 Alpha  occ. eigenvalues --   -0.80652  -0.79561  -0.69708  -0.68729  -0.67364
 Alpha  occ. eigenvalues --   -0.66970  -0.65718  -0.65549  -0.63740  -0.62312
 Alpha  occ. eigenvalues --   -0.62041  -0.60083  -0.59653  -0.59475  -0.59002
 Alpha  occ. eigenvalues --   -0.58104  -0.57341  -0.56521  -0.55540  -0.55007
 Alpha  occ. eigenvalues --   -0.53397  -0.51855  -0.51255  -0.50723  -0.50023
 Alpha  occ. eigenvalues --   -0.49329  -0.48565  -0.47833  -0.46939  -0.46135
 Alpha  occ. eigenvalues --   -0.45917  -0.45467  -0.45200  -0.45096  -0.44174
 Alpha  occ. eigenvalues --   -0.43671  -0.40628  -0.40395  -0.39873  -0.39526
 Alpha  occ. eigenvalues --   -0.39224  -0.39171  -0.38708  -0.37869  -0.37676
 Alpha  occ. eigenvalues --   -0.37463  -0.33431  -0.28076
 Alpha virt. eigenvalues --   -0.05225   0.07145   0.09392   0.10166   0.11476
 Alpha virt. eigenvalues --    0.11866   0.12268   0.14069   0.14260   0.14736
 Alpha virt. eigenvalues --    0.15541   0.15789   0.16031   0.16487   0.16848
 Alpha virt. eigenvalues --    0.17127   0.17798   0.18507   0.19229   0.19458
 Alpha virt. eigenvalues --    0.19839   0.20414   0.20872   0.21566   0.22304
 Alpha virt. eigenvalues --    0.22564   0.22725   0.23263   0.23696   0.24264
 Alpha virt. eigenvalues --    0.24935   0.25964   0.26246   0.27101   0.27503
 Alpha virt. eigenvalues --    0.28794   0.29079   0.30036   0.30175   0.31081
 Alpha virt. eigenvalues --    0.31468   0.32613   0.32961   0.33554   0.34039
 Alpha virt. eigenvalues --    0.34238   0.34817   0.35496   0.36311   0.36723
 Alpha virt. eigenvalues --    0.37732   0.37952   0.38559   0.39349   0.40258
 Alpha virt. eigenvalues --    0.40702   0.41113   0.41298   0.42294   0.42579
 Alpha virt. eigenvalues --    0.42782   0.43635   0.44034   0.44216   0.44646
 Alpha virt. eigenvalues --    0.44996   0.45408   0.46111   0.46521   0.47023
 Alpha virt. eigenvalues --    0.47251   0.48253   0.48696   0.48974   0.49126
 Alpha virt. eigenvalues --    0.49936   0.50123   0.50503   0.50770   0.51436
 Alpha virt. eigenvalues --    0.51664   0.51820   0.52132   0.52806   0.53204
 Alpha virt. eigenvalues --    0.53664   0.54342   0.54429   0.54656   0.55021
 Alpha virt. eigenvalues --    0.55451   0.55919   0.56543   0.57396   0.57632
 Alpha virt. eigenvalues --    0.58210   0.58451   0.58919   0.59305   0.59658
 Alpha virt. eigenvalues --    0.60241   0.60667   0.61247   0.61693   0.61924
 Alpha virt. eigenvalues --    0.62838   0.63501   0.63955   0.64815   0.64998
 Alpha virt. eigenvalues --    0.65546   0.65809   0.67574   0.67743   0.68123
 Alpha virt. eigenvalues --    0.68688   0.69489   0.70820   0.70853   0.72470
 Alpha virt. eigenvalues --    0.72775   0.73808   0.73998   0.74671   0.75812
 Alpha virt. eigenvalues --    0.77087   0.78783   0.79088   0.79232   0.80269
 Alpha virt. eigenvalues --    0.81216   0.82421   0.82538   0.83669   0.84805
 Alpha virt. eigenvalues --    0.85678   0.86050   0.87489   0.87677   0.88860
 Alpha virt. eigenvalues --    0.89089   0.89415   0.90591   0.91176   0.92428
 Alpha virt. eigenvalues --    0.93431   0.94099   0.94460   0.95297   0.95802
 Alpha virt. eigenvalues --    0.96031   0.97596   0.98022   0.99031   0.99346
 Alpha virt. eigenvalues --    0.99949   1.00542   1.02709   1.03244   1.03920
 Alpha virt. eigenvalues --    1.05062   1.06235   1.06958   1.07764   1.08106
 Alpha virt. eigenvalues --    1.09182   1.10083   1.10455   1.11783   1.12539
 Alpha virt. eigenvalues --    1.13386   1.13997   1.14653   1.15526   1.16917
 Alpha virt. eigenvalues --    1.17249   1.17856   1.18535   1.20328   1.21693
 Alpha virt. eigenvalues --    1.22313   1.23002   1.23706   1.25760   1.26523
 Alpha virt. eigenvalues --    1.27053   1.27704   1.28464   1.29649   1.30304
 Alpha virt. eigenvalues --    1.30550   1.31206   1.31464   1.32981   1.33614
 Alpha virt. eigenvalues --    1.34026   1.34854   1.35837   1.36649   1.36927
 Alpha virt. eigenvalues --    1.37749   1.38637   1.39011   1.39822   1.40475
 Alpha virt. eigenvalues --    1.40793   1.41562   1.41748   1.42698   1.43254
 Alpha virt. eigenvalues --    1.43987   1.44908   1.46088   1.47268   1.48817
 Alpha virt. eigenvalues --    1.49864   1.50976   1.52744   1.53739   1.54782
 Alpha virt. eigenvalues --    1.56663   1.56969   1.57041   1.57550   1.58656
 Alpha virt. eigenvalues --    1.59779   1.59853   1.60412   1.61907   1.62525
 Alpha virt. eigenvalues --    1.62977   1.64717   1.64989   1.66112   1.66823
 Alpha virt. eigenvalues --    1.67119   1.67751   1.69617   1.69711   1.70256
 Alpha virt. eigenvalues --    1.71043   1.71668   1.72069   1.72613   1.73638
 Alpha virt. eigenvalues --    1.74319   1.75223   1.76465   1.77701   1.78354
 Alpha virt. eigenvalues --    1.80114   1.81363   1.82137   1.82906   1.83645
 Alpha virt. eigenvalues --    1.84342   1.85136   1.86016   1.87323   1.88384
 Alpha virt. eigenvalues --    1.89371   1.89899   1.90893   1.92248   1.93010
 Alpha virt. eigenvalues --    1.93445   1.94666   1.95056   1.96828   1.97466
 Alpha virt. eigenvalues --    1.98944   1.99106   2.01280   2.01871   2.02250
 Alpha virt. eigenvalues --    2.03058   2.04096   2.04736   2.05687   2.05964
 Alpha virt. eigenvalues --    2.07387   2.08229   2.09197   2.09807   2.11076
 Alpha virt. eigenvalues --    2.12288   2.12637   2.12860   2.13650   2.14653
 Alpha virt. eigenvalues --    2.14948   2.16133   2.16684   2.17495   2.17760
 Alpha virt. eigenvalues --    2.18298   2.18695   2.18877   2.19859   2.20368
 Alpha virt. eigenvalues --    2.21367   2.21939   2.22552   2.23388   2.23757
 Alpha virt. eigenvalues --    2.24121   2.25078   2.25580   2.25924   2.27763
 Alpha virt. eigenvalues --    2.28262   2.29461   2.30293   2.31429   2.32516
 Alpha virt. eigenvalues --    2.32996   2.33808   2.34548   2.35773   2.36340
 Alpha virt. eigenvalues --    2.36852   2.37502   2.38406   2.39274   2.40652
 Alpha virt. eigenvalues --    2.41687   2.42238   2.42657   2.43565   2.43964
 Alpha virt. eigenvalues --    2.45383   2.45902   2.46455   2.47376   2.47792
 Alpha virt. eigenvalues --    2.48857   2.49127   2.49872   2.50282   2.51348
 Alpha virt. eigenvalues --    2.51632   2.52678   2.53078   2.53317   2.54738
 Alpha virt. eigenvalues --    2.55775   2.56744   2.57363   2.57434   2.58008
 Alpha virt. eigenvalues --    2.59426   2.60679   2.61557   2.62298   2.62443
 Alpha virt. eigenvalues --    2.64234   2.64775   2.65061   2.67123   2.67477
 Alpha virt. eigenvalues --    2.68481   2.68814   2.70476   2.71240   2.72086
 Alpha virt. eigenvalues --    2.72461   2.73207   2.74629   2.75105   2.76187
 Alpha virt. eigenvalues --    2.76412   2.76442   2.76897   2.78408   2.78860
 Alpha virt. eigenvalues --    2.79480   2.79822   2.80187   2.81104   2.81487
 Alpha virt. eigenvalues --    2.82551   2.82821   2.83209   2.84162   2.84478
 Alpha virt. eigenvalues --    2.84772   2.86568   2.87064   2.88323   2.88872
 Alpha virt. eigenvalues --    2.89575   2.90486   2.90635   2.92000   2.92658
 Alpha virt. eigenvalues --    2.94154   2.94533   2.94726   2.96239   2.97466
 Alpha virt. eigenvalues --    2.98931   2.99750   3.01718   3.02427   3.05183
 Alpha virt. eigenvalues --    3.05513   3.05820   3.06376   3.07344   3.08592
 Alpha virt. eigenvalues --    3.08991   3.10873   3.11901   3.12317   3.13034
 Alpha virt. eigenvalues --    3.13570   3.15277   3.15978   3.16401   3.17008
 Alpha virt. eigenvalues --    3.18017   3.18406   3.19205   3.19658   3.20793
 Alpha virt. eigenvalues --    3.22159   3.23335   3.24174   3.24446   3.25290
 Alpha virt. eigenvalues --    3.25998   3.26455   3.26743   3.28061   3.28708
 Alpha virt. eigenvalues --    3.29908   3.31215   3.31583   3.32897   3.33342
 Alpha virt. eigenvalues --    3.34772   3.35820   3.36541   3.37061   3.37713
 Alpha virt. eigenvalues --    3.38938   3.39120   3.40106   3.41009   3.41532
 Alpha virt. eigenvalues --    3.42884   3.43827   3.44862   3.45766   3.46008
 Alpha virt. eigenvalues --    3.47745   3.48084   3.49896   3.50375   3.51633
 Alpha virt. eigenvalues --    3.52590   3.53094   3.55071   3.56318   3.56725
 Alpha virt. eigenvalues --    3.57443   3.58739   3.59643   3.60104   3.60506
 Alpha virt. eigenvalues --    3.62821   3.64303   3.65218   3.66173   3.66453
 Alpha virt. eigenvalues --    3.67780   3.68249   3.70218   3.70776   3.72957
 Alpha virt. eigenvalues --    3.73409   3.74786   3.77610   3.78290   3.78631
 Alpha virt. eigenvalues --    3.79819   3.80792   3.81616   3.82545   3.84679
 Alpha virt. eigenvalues --    3.86885   3.87355   3.87614   3.89059   3.91812
 Alpha virt. eigenvalues --    3.93581   3.95622   3.96382   3.99041   4.00467
 Alpha virt. eigenvalues --    4.02237   4.04584   4.04824   4.06648   4.06885
 Alpha virt. eigenvalues --    4.07849   4.08375   4.08918   4.09814   4.11763
 Alpha virt. eigenvalues --    4.12109   4.15188   4.15886   4.18004   4.19246
 Alpha virt. eigenvalues --    4.21698   4.23400   4.24873   4.25228   4.26210
 Alpha virt. eigenvalues --    4.27255   4.27795   4.28344   4.29219   4.31865
 Alpha virt. eigenvalues --    4.32826   4.35567   4.36957   4.37562   4.38647
 Alpha virt. eigenvalues --    4.39872   4.41364   4.43072   4.45832   4.47139
 Alpha virt. eigenvalues --    4.47816   4.49407   4.52004   4.52820   4.53320
 Alpha virt. eigenvalues --    4.54280   4.55491   4.58958   4.61118   4.61553
 Alpha virt. eigenvalues --    4.62612   4.67611   4.70708   4.74074   4.76092
 Alpha virt. eigenvalues --    4.76557   4.79375   4.80515   4.82517   4.84822
 Alpha virt. eigenvalues --    4.91925   4.95051   4.97467   4.99189   5.02680
 Alpha virt. eigenvalues --    5.04771   5.06715   5.07504   5.08152   5.10886
 Alpha virt. eigenvalues --    5.12478   5.13215   5.14988   5.16141   5.17336
 Alpha virt. eigenvalues --    5.19044   5.19791   5.20027   5.21552   5.21792
 Alpha virt. eigenvalues --    5.22568   5.24138   5.24908   5.27604   5.28654
 Alpha virt. eigenvalues --    5.29678   5.30697   5.31488   5.32050   5.32396
 Alpha virt. eigenvalues --    5.33240   5.34695   5.38692   5.41419   5.42629
 Alpha virt. eigenvalues --    5.45764   5.48585   5.48742   5.49765   5.51005
 Alpha virt. eigenvalues --    5.51479   5.53190   5.53366   5.53508   5.53980
 Alpha virt. eigenvalues --    5.55215   5.57262   5.58610   5.59261   5.59637
 Alpha virt. eigenvalues --    5.60729   5.62748   5.63405   5.69367   5.78544
 Alpha virt. eigenvalues --    5.79042   5.81274   5.82906   5.86824   5.92181
 Alpha virt. eigenvalues --    5.97925   6.03971   6.08951   6.11385   6.13143
 Alpha virt. eigenvalues --    6.13595   6.16209   6.16647   6.17418   6.22008
 Alpha virt. eigenvalues --    6.28626   6.31540   6.32096   6.33828   6.36207
 Alpha virt. eigenvalues --    6.36701   6.38431   6.39325   6.42198   6.42311
 Alpha virt. eigenvalues --    6.44369   6.45586   6.47054   6.49481   6.50417
 Alpha virt. eigenvalues --    6.50763   6.51381   6.51887   6.52595   6.53960
 Alpha virt. eigenvalues --    6.55230   6.55412   6.55714   6.57872   6.61248
 Alpha virt. eigenvalues --    6.65176   6.66122   6.75862   6.78197   6.80907
 Alpha virt. eigenvalues --    6.86288   6.87673   6.91142   6.98365   6.99172
 Alpha virt. eigenvalues --    7.01530   7.02262   7.03342   7.05697   7.06962
 Alpha virt. eigenvalues --    7.07208   7.11319   7.12873   7.14158   7.16080
 Alpha virt. eigenvalues --    7.18276   7.20472   7.24039   7.27019   7.28590
 Alpha virt. eigenvalues --    7.44168   7.48522   7.52891   7.59644  22.46611
 Alpha virt. eigenvalues --   22.48615  22.55068  22.66694  22.69779  22.71847
 Alpha virt. eigenvalues --   22.80906  22.92918  22.96996  23.56695  23.64438
 Alpha virt. eigenvalues --   32.52512  32.73095  43.54767  43.55933  43.60095
 Alpha virt. eigenvalues --   43.74533  44.06068  44.17318  44.28597  44.41216
          Condensed to atoms (all electrons):
               1          2          3          4          5          6
     1  C    5.525916   0.118827   0.034170   0.018227   0.428914  -0.038867
     2  C    0.118827   5.293194  -0.075605   0.063097  -0.034828   0.002838
     3  C    0.034170  -0.075605   5.244100   0.148999   0.004806  -0.026519
     4  C    0.018227   0.063097   0.148999   5.503548  -0.040030   0.443727
     5  H    0.428914  -0.034828   0.004806  -0.040030   0.461030  -0.003468
     6  H   -0.038867   0.002838  -0.026519   0.443727  -0.003468   0.478827
     7  C   -0.044287   0.257982   0.225426  -0.042676   0.002411   0.002779
     8  H    0.004565  -0.024844  -0.018461   0.008671  -0.000083  -0.000051
     9  H   -0.011673  -0.014266  -0.023443  -0.001721  -0.000139   0.000308
    10  C    0.162665   0.112404   0.005229  -0.048648   0.007932   0.002850
    11  H    0.001793  -0.040910   0.007161   0.001189  -0.005549   0.000046
    12  C   -0.050054   0.038831   0.168450   0.135576  -0.002855  -0.030992
    13  H    0.002020   0.010010  -0.035683  -0.024596   0.000198  -0.004078
    14  H   -0.023925   0.400362   0.008748   0.000139   0.001471  -0.000080
    15  H    0.003596   0.001584   0.438094  -0.025538  -0.000094  -0.002324
    16  N   -0.047304  -0.021820  -0.002635   0.042524   0.004871  -0.008596
    17  N    0.044644   0.003132  -0.007390  -0.010080  -0.009255   0.000245
    18  C    0.017825  -0.001063   0.000068   0.000553  -0.000843   0.006873
    19  C   -0.021815  -0.006796  -0.000909   0.000494  -0.002624  -0.000183
    20  O   -0.009883   0.001292  -0.000084   0.002648   0.000190   0.000022
    21  O    0.001360   0.000109   0.002335  -0.010987  -0.000044   0.000084
    22  O   -0.008068   0.001386  -0.000783   0.006161   0.002539   0.000084
    23  O    0.000335   0.000712  -0.000182  -0.002147  -0.000975   0.007506
    24  C   -0.000153   0.000008   0.000152  -0.001318   0.000029  -0.000137
    25  H   -0.000062  -0.000002  -0.000025   0.000203   0.000038  -0.000338
    26  H   -0.000055   0.000006  -0.000019   0.000363  -0.000003   0.000150
    27  H    0.000188  -0.000027   0.000180  -0.000401   0.000013  -0.000530
    28  C   -0.000955  -0.001832  -0.000155   0.000089   0.000417   0.000001
    29  H    0.001252  -0.002473   0.000015  -0.000085  -0.000020  -0.000001
    30  H   -0.000244   0.000131  -0.000009   0.000036  -0.000002   0.000000
    31  H    0.000108   0.000227   0.000005  -0.000051   0.000008   0.000000
    32  O   -0.000152  -0.000023   0.000003  -0.000022  -0.000020   0.000000
    33  H   -0.000052  -0.000009  -0.000003   0.000028   0.000024   0.000001
    34  H    0.000098  -0.000007   0.000001  -0.000003  -0.000007   0.000001
    35  O    0.001323  -0.010572   0.002778  -0.000192  -0.000017   0.000000
    36  H   -0.000040   0.000369  -0.000047  -0.000001   0.000001   0.000000
    37  H   -0.001369   0.005016  -0.000560   0.000170   0.000031   0.000001
    38  O    0.000329  -0.000048   0.000000  -0.000402   0.001388  -0.000046
    39  H    0.000121  -0.000010   0.000007  -0.000018  -0.000129   0.000014
    40  H   -0.004214   0.000220   0.000089   0.000361   0.000855   0.000013
    41  O   -0.000003   0.000000  -0.000021  -0.000022   0.000000   0.000070
    42  H    0.000021  -0.000001  -0.000021  -0.000144  -0.000001   0.000100
    43  H    0.000000   0.000000   0.000000  -0.000004   0.000000   0.000006
               7          8          9         10         11         12
     1  C   -0.044287   0.004565  -0.011673   0.162665   0.001793  -0.050054
     2  C    0.257982  -0.024844  -0.014266   0.112404  -0.040910   0.038831
     3  C    0.225426  -0.018461  -0.023443   0.005229   0.007161   0.168450
     4  C   -0.042676   0.008671  -0.001721  -0.048648   0.001189   0.135576
     5  H    0.002411  -0.000083  -0.000139   0.007932  -0.005549  -0.002855
     6  H    0.002779  -0.000051   0.000308   0.002850   0.000046  -0.030992
     7  C    4.969779   0.394307   0.405291   0.013798   0.002129  -0.007225
     8  H    0.394307   0.536473  -0.014677  -0.003519  -0.000125  -0.009044
     9  H    0.405291  -0.014677   0.483898   0.002209  -0.000041   0.005808
    10  C    0.013798  -0.003519   0.002209   5.236301   0.436220   0.207226
    11  H    0.002129  -0.000125  -0.000041   0.436220   0.456676  -0.037471
    12  C   -0.007225  -0.009044   0.005808   0.207226  -0.037471   5.247004
    13  H    0.002005   0.000091  -0.000073  -0.050337  -0.003208   0.459925
    14  H   -0.016775  -0.001976  -0.000282  -0.019669  -0.001802  -0.000413
    15  H   -0.020791  -0.000949  -0.001912   0.005892   0.000035  -0.035884
    16  N   -0.004699   0.000500   0.009144   0.011987  -0.000002  -0.005168
    17  N    0.015780  -0.000123  -0.006744  -0.002939   0.000082   0.006029
    18  C   -0.002207   0.000029   0.000606  -0.001172   0.000002  -0.003900
    19  C    0.006403  -0.000038  -0.001160   0.001619   0.000118  -0.000668
    20  O   -0.006773   0.000104   0.007788   0.000963  -0.000007  -0.000302
    21  O   -0.000877  -0.000002   0.000294  -0.000164   0.000000  -0.000267
    22  O    0.000090  -0.000033   0.000814   0.001439   0.000150  -0.000251
    23  O    0.000020   0.000001   0.000125  -0.000211   0.000000   0.001922
    24  C    0.000001   0.000000  -0.000004   0.000078   0.000000  -0.000290
    25  H    0.000004   0.000000   0.000000   0.000003   0.000000  -0.000001
    26  H    0.000003   0.000000  -0.000001  -0.000002   0.000000   0.000030
    27  H   -0.000020   0.000000   0.000000   0.000042   0.000000  -0.000392
    28  C    0.000157  -0.000014  -0.000150  -0.000696  -0.000023   0.000083
    29  H    0.000731  -0.000007  -0.000157   0.000122  -0.000004   0.000019
    30  H    0.000045   0.000000   0.000006   0.000012   0.000001  -0.000001
    31  H   -0.000024  -0.000001  -0.000009   0.000051   0.000006   0.000000
    32  O   -0.000003   0.000000  -0.000002  -0.000002   0.000000   0.000000
    33  H    0.000002   0.000000  -0.000001   0.000000   0.000000   0.000001
    34  H   -0.000009   0.000000   0.000003  -0.000001   0.000000   0.000000
    35  O   -0.000491   0.003516   0.002525   0.000514   0.000018  -0.000237
    36  H   -0.000551   0.000050   0.000158  -0.000075  -0.000001   0.000012
    37  H   -0.003712  -0.000194   0.000565  -0.000463  -0.000008   0.000078
    38  O    0.000002   0.000000  -0.000009  -0.000064  -0.000001   0.000015
    39  H   -0.000002   0.000000   0.000000   0.000013   0.000000  -0.000014
    40  H   -0.000006   0.000001   0.000043   0.000318   0.000003  -0.000037
    41  O    0.000000   0.000000   0.000000   0.000000   0.000000  -0.000001
    42  H    0.000005   0.000000  -0.000004  -0.000003   0.000000   0.000006
    43  H    0.000000   0.000000   0.000000   0.000000   0.000000   0.000000
              13         14         15         16         17         18
     1  C    0.002020  -0.023925   0.003596  -0.047304   0.044644   0.017825
     2  C    0.010010   0.400362   0.001584  -0.021820   0.003132  -0.001063
     3  C   -0.035683   0.008748   0.438094  -0.002635  -0.007390   0.000068
     4  C   -0.024596   0.000139  -0.025538   0.042524  -0.010080   0.000553
     5  H    0.000198   0.001471  -0.000094   0.004871  -0.009255  -0.000843
     6  H   -0.004078  -0.000080  -0.002324  -0.008596   0.000245   0.006873
     7  C    0.002005  -0.016775  -0.020791  -0.004699   0.015780  -0.002207
     8  H    0.000091  -0.001976  -0.000949   0.000500  -0.000123   0.000029
     9  H   -0.000073  -0.000282  -0.001912   0.009144  -0.006744   0.000606
    10  C   -0.050337  -0.019669   0.005892   0.011987  -0.002939  -0.001172
    11  H   -0.003208  -0.001802   0.000035  -0.000002   0.000082   0.000002
    12  C    0.459925  -0.000413  -0.035884  -0.005168   0.006029  -0.003900
    13  H    0.483313   0.000021  -0.003799  -0.000008  -0.000066  -0.000010
    14  H    0.000021   0.459371  -0.000080   0.001026  -0.003942  -0.000070
    15  H   -0.003799  -0.000080   0.488578  -0.001047   0.000264   0.000572
    16  N   -0.000008   0.001026  -0.001047   6.988132   0.165539   0.406658
    17  N   -0.000066  -0.003942   0.000264   0.165539   6.853017  -0.053270
    18  C   -0.000010  -0.000070   0.000572   0.406658  -0.053270   4.359207
    19  C   -0.000010   0.010098   0.000030  -0.048638   0.213861  -0.005469
    20  O    0.000000  -0.001888   0.000001  -0.012059  -0.056599  -0.000863
    21  O    0.000000  -0.000003   0.001281  -0.096555   0.006420   0.581509
    22  O    0.000002   0.003150  -0.000002   0.003386  -0.087809  -0.000403
    23  O   -0.000009  -0.000005  -0.000029  -0.089363  -0.012806   0.316009
    24  C   -0.000001   0.000000  -0.000016   0.006470   0.000205  -0.045440
    25  H    0.000000   0.000000  -0.000001   0.000306   0.000077   0.005051
    26  H    0.000000   0.000000  -0.000006   0.000361  -0.000172  -0.016941
    27  H   -0.000002   0.000000   0.000041  -0.000271  -0.000058   0.002466
    28  C    0.000000  -0.000985   0.000000   0.000113   0.005099  -0.000023
    29  H    0.000000  -0.001033   0.000000  -0.000059  -0.000683  -0.000009
    30  H    0.000000   0.000323   0.000000  -0.000031   0.000362   0.000000
    31  H    0.000000  -0.000401   0.000000   0.000018   0.000400   0.000006
    32  O    0.000000   0.000009   0.000000  -0.001092  -0.009219   0.000324
    33  H    0.000000  -0.000003   0.000000   0.000175   0.000073  -0.000196
    34  H    0.000000   0.000000   0.000000   0.000172  -0.000287   0.000405
    35  O    0.000000   0.008848   0.000008  -0.000059  -0.000136  -0.000013
    36  H    0.000000  -0.000166  -0.000001   0.000006  -0.000018   0.000000
    37  H    0.000000  -0.002261  -0.000007  -0.000187   0.000704  -0.000006
    38  O    0.000000  -0.000002   0.000000  -0.002600  -0.022501   0.008270
    39  H    0.000000   0.000001   0.000000  -0.000698   0.002094   0.001730
    40  H   -0.000001  -0.000002   0.000001  -0.002698   0.030196  -0.003417
    41  O    0.000000   0.000000   0.000025  -0.000065   0.000003  -0.001750
    42  H    0.000000   0.000000   0.000021   0.000396  -0.000020  -0.002927
    43  H    0.000000   0.000000   0.000000   0.000014   0.000000   0.000544
              19         20         21         22         23         24
     1  C   -0.021815  -0.009883   0.001360  -0.008068   0.000335  -0.000153
     2  C   -0.006796   0.001292   0.000109   0.001386   0.000712   0.000008
     3  C   -0.000909  -0.000084   0.002335  -0.000783  -0.000182   0.000152
     4  C    0.000494   0.002648  -0.010987   0.006161  -0.002147  -0.001318
     5  H   -0.002624   0.000190  -0.000044   0.002539  -0.000975   0.000029
     6  H   -0.000183   0.000022   0.000084   0.000084   0.007506  -0.000137
     7  C    0.006403  -0.006773  -0.000877   0.000090   0.000020   0.000001
     8  H   -0.000038   0.000104  -0.000002  -0.000033   0.000001   0.000000
     9  H   -0.001160   0.007788   0.000294   0.000814   0.000125  -0.000004
    10  C    0.001619   0.000963  -0.000164   0.001439  -0.000211   0.000078
    11  H    0.000118  -0.000007   0.000000   0.000150   0.000000   0.000000
    12  C   -0.000668  -0.000302  -0.000267  -0.000251   0.001922  -0.000290
    13  H   -0.000010   0.000000   0.000000   0.000002  -0.000009  -0.000001
    14  H    0.010098  -0.001888  -0.000003   0.003150  -0.000005   0.000000
    15  H    0.000030   0.000001   0.001281  -0.000002  -0.000029  -0.000016
    16  N   -0.048638  -0.012059  -0.096555   0.003386  -0.089363   0.006470
    17  N    0.213861  -0.056599   0.006420  -0.087809  -0.012806   0.000205
    18  C   -0.005469  -0.000863   0.581509  -0.000403   0.316009  -0.045440
    19  C    4.685542   0.552838  -0.000855   0.313128  -0.005577  -0.000178
    20  O    0.552838   7.973848  -0.000013  -0.077287  -0.000018   0.000008
    21  O   -0.000855  -0.000013   8.050570   0.000004  -0.104941   0.012802
    22  O    0.313128  -0.077287   0.000004   7.978250   0.000098  -0.000002
    23  O   -0.005577  -0.000018  -0.104941   0.000098   8.087598   0.205874
    24  C   -0.000178   0.000008   0.012802  -0.000002   0.205874   4.835624
    25  H    0.000046   0.000000   0.002156  -0.000002  -0.031471   0.389690
    26  H   -0.000013   0.000000   0.003089   0.000000  -0.028654   0.424219
    27  H   -0.000013   0.000000   0.000917   0.000000  -0.039158   0.416417
    28  C   -0.065802   0.011112  -0.000001   0.213268   0.000006   0.000000
    29  H    0.008328  -0.001742   0.000000  -0.037498   0.000000   0.000000
    30  H   -0.004824   0.001349   0.000000  -0.031624   0.000000   0.000000
    31  H    0.002583   0.001510   0.000000  -0.027971   0.000000   0.000000
    32  O    0.055926  -0.005584   0.000000  -0.008208  -0.000067  -0.000009
    33  H   -0.001254   0.000313   0.000002   0.001136   0.000114  -0.000007
    34  H    0.000330   0.001243  -0.000010  -0.000257  -0.000016  -0.000006
    35  O    0.004772  -0.017789   0.000000   0.000230   0.000000   0.000000
    36  H   -0.000920   0.000865   0.000000  -0.000019   0.000000   0.000000
    37  H   -0.015500   0.025409   0.000000   0.000221   0.000000   0.000000
    38  O    0.000972  -0.000010   0.000008  -0.000756  -0.005395   0.000370
    39  H   -0.001047   0.000002   0.000004   0.000227   0.002067  -0.000004
    40  H   -0.001702   0.000004   0.000007  -0.000110   0.009121  -0.000559
    41  O    0.000000   0.000000  -0.021269   0.000000   0.000258   0.000628
    42  H    0.000003   0.000000   0.028254   0.000000  -0.000120  -0.001679
    43  H    0.000000   0.000000   0.000809   0.000000  -0.000011  -0.000333
              25         26         27         28         29         30
     1  C   -0.000062  -0.000055   0.000188  -0.000955   0.001252  -0.000244
     2  C   -0.000002   0.000006  -0.000027  -0.001832  -0.002473   0.000131
     3  C   -0.000025  -0.000019   0.000180  -0.000155   0.000015  -0.000009
     4  C    0.000203   0.000363  -0.000401   0.000089  -0.000085   0.000036
     5  H    0.000038  -0.000003   0.000013   0.000417  -0.000020  -0.000002
     6  H   -0.000338   0.000150  -0.000530   0.000001  -0.000001   0.000000
     7  C    0.000004   0.000003  -0.000020   0.000157   0.000731   0.000045
     8  H    0.000000   0.000000   0.000000  -0.000014  -0.000007   0.000000
     9  H    0.000000  -0.000001   0.000000  -0.000150  -0.000157   0.000006
    10  C    0.000003  -0.000002   0.000042  -0.000696   0.000122   0.000012
    11  H    0.000000   0.000000   0.000000  -0.000023  -0.000004   0.000001
    12  C   -0.000001   0.000030  -0.000392   0.000083   0.000019  -0.000001
    13  H    0.000000   0.000000  -0.000002   0.000000   0.000000   0.000000
    14  H    0.000000   0.000000   0.000000  -0.000985  -0.001033   0.000323
    15  H   -0.000001  -0.000006   0.000041   0.000000   0.000000   0.000000
    16  N    0.000306   0.000361  -0.000271   0.000113  -0.000059  -0.000031
    17  N    0.000077  -0.000172  -0.000058   0.005099  -0.000683   0.000362
    18  C    0.005051  -0.016941   0.002466  -0.000023  -0.000009   0.000000
    19  C    0.000046  -0.000013  -0.000013  -0.065802   0.008328  -0.004824
    20  O    0.000000   0.000000   0.000000   0.011112  -0.001742   0.001349
    21  O    0.002156   0.003089   0.000917  -0.000001   0.000000   0.000000
    22  O   -0.000002   0.000000   0.000000   0.213268  -0.037498  -0.031624
    23  O   -0.031471  -0.028654  -0.039158   0.000006   0.000000   0.000000
    24  C    0.389690   0.424219   0.416417   0.000000   0.000000   0.000000
    25  H    0.529950  -0.019224  -0.020818   0.000000   0.000000   0.000000
    26  H   -0.019224   0.511589  -0.035674   0.000000   0.000000   0.000000
    27  H   -0.020818  -0.035674   0.524885   0.000000   0.000000   0.000000
    28  C    0.000000   0.000000   0.000000   4.867881   0.394410   0.414188
    29  H    0.000000   0.000000   0.000000   0.394410   0.540766  -0.031608
    30  H    0.000000   0.000000   0.000000   0.414188  -0.031608   0.493129
    31  H    0.000000   0.000000   0.000000   0.395788  -0.021570  -0.016537
    32  O    0.000003   0.000000   0.000000  -0.015150   0.001033   0.011371
    33  H   -0.000012   0.000002   0.000000   0.000888  -0.000012  -0.001204
    34  H   -0.000001  -0.000001   0.000000   0.001269  -0.000129  -0.000762
    35  O    0.000000   0.000000   0.000000  -0.011627   0.018386  -0.000037
    36  H    0.000000   0.000000   0.000000   0.000858  -0.000765  -0.000032
    37  H    0.000000   0.000000   0.000000   0.005441  -0.006880  -0.000453
    38  O    0.000765  -0.000074   0.000010  -0.000201   0.000008   0.000137
    39  H    0.000563  -0.000309   0.000099   0.000008  -0.000001  -0.000004
    40  H    0.000027   0.000164  -0.000009  -0.000015   0.000011  -0.000067
    41  O    0.000547   0.005052   0.001943   0.000000   0.000000   0.000000
    42  H    0.000038  -0.001508  -0.002076   0.000000   0.000000   0.000000
    43  H   -0.000030   0.000118  -0.000127   0.000000   0.000000   0.000000
              31         32         33         34         35         36
     1  C    0.000108  -0.000152  -0.000052   0.000098   0.001323  -0.000040
     2  C    0.000227  -0.000023  -0.000009  -0.000007  -0.010572   0.000369
     3  C    0.000005   0.000003  -0.000003   0.000001   0.002778  -0.000047
     4  C   -0.000051  -0.000022   0.000028  -0.000003  -0.000192  -0.000001
     5  H    0.000008  -0.000020   0.000024  -0.000007  -0.000017   0.000001
     6  H    0.000000   0.000000   0.000001   0.000001   0.000000   0.000000
     7  C   -0.000024  -0.000003   0.000002  -0.000009  -0.000491  -0.000551
     8  H   -0.000001   0.000000   0.000000   0.000000   0.003516   0.000050
     9  H   -0.000009  -0.000002  -0.000001   0.000003   0.002525   0.000158
    10  C    0.000051  -0.000002   0.000000  -0.000001   0.000514  -0.000075
    11  H    0.000006   0.000000   0.000000   0.000000   0.000018  -0.000001
    12  C    0.000000   0.000000   0.000001   0.000000  -0.000237   0.000012
    13  H    0.000000   0.000000   0.000000   0.000000   0.000000   0.000000
    14  H   -0.000401   0.000009  -0.000003   0.000000   0.008848  -0.000166
    15  H    0.000000   0.000000   0.000000   0.000000   0.000008  -0.000001
    16  N    0.000018  -0.001092   0.000175   0.000172  -0.000059   0.000006
    17  N    0.000400  -0.009219   0.000073  -0.000287  -0.000136  -0.000018
    18  C    0.000006   0.000324  -0.000196   0.000405  -0.000013   0.000000
    19  C    0.002583   0.055926  -0.001254   0.000330   0.004772  -0.000920
    20  O    0.001510  -0.005584   0.000313   0.001243  -0.017789   0.000865
    21  O    0.000000   0.000000   0.000002  -0.000010   0.000000   0.000000
    22  O   -0.027971  -0.008208   0.001136  -0.000257   0.000230  -0.000019
    23  O    0.000000  -0.000067   0.000114  -0.000016   0.000000   0.000000
    24  C    0.000000  -0.000009  -0.000007  -0.000006   0.000000   0.000000
    25  H    0.000000   0.000003  -0.000012  -0.000001   0.000000   0.000000
    26  H    0.000000   0.000000   0.000002  -0.000001   0.000000   0.000000
    27  H    0.000000   0.000000   0.000000   0.000000   0.000000   0.000000
    28  C    0.395788  -0.015150   0.000888   0.001269  -0.011627   0.000858
    29  H   -0.021570   0.001033  -0.000012  -0.000129   0.018386  -0.000765
    30  H   -0.016537   0.011371  -0.001204  -0.000762  -0.000037  -0.000032
    31  H    0.520152  -0.000283   0.000035   0.000036   0.000449  -0.000008
    32  O   -0.000283   8.031318   0.325304   0.311636   0.000000   0.000000
    33  H    0.000035   0.325304   0.324470  -0.027456   0.000000   0.000000
    34  H    0.000036   0.311636  -0.027456   0.377556   0.000001   0.000000
    35  O    0.000449   0.000000   0.000000   0.000001   8.089396   0.301960
    36  H   -0.000008   0.000000   0.000000   0.000000   0.301960   0.370845
    37  H    0.000020  -0.000037   0.000004   0.000007   0.284772  -0.009677
    38  O    0.000093  -0.022577   0.026948   0.002271   0.000000   0.000000
    39  H   -0.000003   0.001013  -0.001343   0.000069   0.000000   0.000000
    40  H   -0.000048   0.001904  -0.003370   0.000211   0.000000   0.000000
    41  O    0.000000   0.000000   0.000000   0.000000   0.000000   0.000000
    42  H    0.000000   0.000000   0.000000   0.000000   0.000000   0.000000
    43  H    0.000000   0.000000   0.000000   0.000000   0.000000   0.000000
              37         38         39         40         41         42
     1  C   -0.001369   0.000329   0.000121  -0.004214  -0.000003   0.000021
     2  C    0.005016  -0.000048  -0.000010   0.000220   0.000000  -0.000001
     3  C   -0.000560   0.000000   0.000007   0.000089  -0.000021  -0.000021
     4  C    0.000170  -0.000402  -0.000018   0.000361  -0.000022  -0.000144
     5  H    0.000031   0.001388  -0.000129   0.000855   0.000000  -0.000001
     6  H    0.000001  -0.000046   0.000014   0.000013   0.000070   0.000100
     7  C   -0.003712   0.000002  -0.000002  -0.000006   0.000000   0.000005
     8  H   -0.000194   0.000000   0.000000   0.000001   0.000000   0.000000
     9  H    0.000565  -0.000009   0.000000   0.000043   0.000000  -0.000004
    10  C   -0.000463  -0.000064   0.000013   0.000318   0.000000  -0.000003
    11  H   -0.000008  -0.000001   0.000000   0.000003   0.000000   0.000000
    12  C    0.000078   0.000015  -0.000014  -0.000037  -0.000001   0.000006
    13  H    0.000000   0.000000   0.000000  -0.000001   0.000000   0.000000
    14  H   -0.002261  -0.000002   0.000001  -0.000002   0.000000   0.000000
    15  H   -0.000007   0.000000   0.000000   0.000001   0.000025   0.000021
    16  N   -0.000187  -0.002600  -0.000698  -0.002698  -0.000065   0.000396
    17  N    0.000704  -0.022501   0.002094   0.030196   0.000003  -0.000020
    18  C   -0.000006   0.008270   0.001730  -0.003417  -0.001750  -0.002927
    19  C   -0.015500   0.000972  -0.001047  -0.001702   0.000000   0.000003
    20  O    0.025409  -0.000010   0.000002   0.000004   0.000000   0.000000
    21  O    0.000000   0.000008   0.000004   0.000007  -0.021269   0.028254
    22  O    0.000221  -0.000756   0.000227  -0.000110   0.000000   0.000000
    23  O    0.000000  -0.005395   0.002067   0.009121   0.000258  -0.000120
    24  C    0.000000   0.000370  -0.000004  -0.000559   0.000628  -0.001679
    25  H    0.000000   0.000765   0.000563   0.000027   0.000547   0.000038
    26  H    0.000000  -0.000074  -0.000309   0.000164   0.005052  -0.001508
    27  H    0.000000   0.000010   0.000099  -0.000009   0.001943  -0.002076
    28  C    0.005441  -0.000201   0.000008  -0.000015   0.000000   0.000000
    29  H   -0.006880   0.000008  -0.000001   0.000011   0.000000   0.000000
    30  H   -0.000453   0.000137  -0.000004  -0.000067   0.000000   0.000000
    31  H    0.000020   0.000093  -0.000003  -0.000048   0.000000   0.000000
    32  O   -0.000037  -0.022577   0.001013   0.001904   0.000000   0.000000
    33  H    0.000004   0.026948  -0.001343  -0.003370   0.000000   0.000000
    34  H    0.000007   0.002271   0.000069   0.000211   0.000000   0.000000
    35  O    0.284772   0.000000   0.000000   0.000000   0.000000   0.000000
    36  H   -0.009677   0.000000   0.000000   0.000000   0.000000   0.000000
    37  H    0.379565   0.000001   0.000000  -0.000008   0.000000   0.000000
    38  O    0.000001   8.079284   0.307897   0.305122   0.000000   0.000001
    39  H    0.000000   0.307897   0.370093  -0.022840   0.000000   0.000000
    40  H   -0.000008   0.305122  -0.022840   0.340110   0.000000  -0.000005
    41  O    0.000000   0.000000   0.000000   0.000000   8.088263   0.313673
    42  H    0.000000   0.000001   0.000000  -0.000005   0.313673   0.346749
    43  H    0.000000   0.000000   0.000000   0.000000   0.304851  -0.021936
              43
     1  C    0.000000
     2  C    0.000000
     3  C    0.000000
     4  C   -0.000004
     5  H    0.000000
     6  H    0.000006
     7  C    0.000000
     8  H    0.000000
     9  H    0.000000
    10  C    0.000000
    11  H    0.000000
    12  C    0.000000
    13  H    0.000000
    14  H    0.000000
    15  H    0.000000
    16  N    0.000014
    17  N    0.000000
    18  C    0.000544
    19  C    0.000000
    20  O    0.000000
    21  O    0.000809
    22  O    0.000000
    23  O   -0.000011
    24  C   -0.000333
    25  H   -0.000030
    26  H    0.000118
    27  H   -0.000127
    28  C    0.000000
    29  H    0.000000
    30  H    0.000000
    31  H    0.000000
    32  O    0.000000
    33  H    0.000000
    34  H    0.000000
    35  O    0.000000
    36  H    0.000000
    37  H    0.000000
    38  O    0.000000
    39  H    0.000000
    40  H    0.000000
    41  O    0.304851
    42  H   -0.021936
    43  H    0.387890
 Mulliken charges:
               1
     1  C   -0.105120
     2  C   -0.076602
     3  C   -0.098264
     4  C   -0.167717
     5  H    0.183820
     6  H    0.169665
     7  C   -0.148024
     8  H    0.125831
     9  H    0.156884
    10  C   -0.081924
    11  H    0.183524
    12  C   -0.085545
    13  H    0.164293
    14  H    0.182199
    15  H    0.152459
    16  N   -0.296142
    17  N   -0.064109
    18  C    0.431283
    19  C    0.328906
    20  O   -0.390606
    21  O   -0.456026
    22  O   -0.244681
    23  O   -0.310612
    24  C   -0.242439
    25  H    0.142520
    26  H    0.157511
    27  H    0.152373
    28  C   -0.213446
    29  H    0.139654
    30  H    0.166346
    31  H    0.145416
    32  O   -0.677390
    33  H    0.355401
    34  H    0.333644
    35  O   -0.678323
    36  H    0.337195
    37  H    0.339319
    38  O   -0.679203
    39  H    0.340399
    40  H    0.350329
    41  O   -0.692183
    42  H    0.341177
    43  H    0.328209
 Sum of Mulliken charges =   0.00000
 Mulliken charges with hydrogens summed into heavy atoms:
               1
     1  C    0.078700
     2  C    0.105598
     3  C    0.054195
     4  C    0.001949
     7  C    0.134691
    10  C    0.101599
    12  C    0.078748
    16  N   -0.296142
    17  N   -0.064109
    18  C    0.431283
    19  C    0.328906
    20  O   -0.390606
    21  O   -0.456026
    22  O   -0.244681
    23  O   -0.310612
    24  C    0.209965
    28  C    0.237970
    32  O    0.011654
    35  O   -0.001810
    38  O    0.011525
    41  O   -0.022798
 APT charges:
               1
     1  C   -1.130582
     2  C    0.298029
     3  C    0.059500
     4  C   -0.337120
     5  H    0.130989
     6  H    0.105950
     7  C    0.002303
     8  H    0.021056
     9  H    0.060497
    10  C    0.306431
    11  H    0.077294
    12  C    0.238447
    13  H    0.058630
    14  H    0.080822
    15  H    0.071380
    16  N   -0.880328
    17  N    0.311725
    18  C    1.788274
    19  C    1.442379
    20  O   -0.880423
    21  O   -1.126220
    22  O   -0.878620
    23  O   -0.977425
    24  C    0.548611
    25  H    0.002692
    26  H   -0.000087
    27  H   -0.011580
    28  C    0.512493
    29  H    0.006056
    30  H    0.026100
    31  H    0.015294
    32  O   -0.705440
    33  H    0.428965
    34  H    0.292872
    35  O   -0.666157
    36  H    0.292747
    37  H    0.375138
    38  O   -0.749320
    39  H    0.293051
    40  H    0.444530
    41  O   -0.722002
    42  H    0.487011
    43  H    0.286036
 Sum of APT charges =   0.00000
 APT charges with hydrogens summed into heavy atoms:
               1
     1  C   -0.999593
     2  C    0.378851
     3  C    0.130880
     4  C   -0.231170
     7  C    0.083856
    10  C    0.383725
    12  C    0.297078
    16  N   -0.880328
    17  N    0.311725
    18  C    1.788274
    19  C    1.442379
    20  O   -0.880423
    21  O   -1.126220
    22  O   -0.878620
    23  O   -0.977425
    24  C    0.539636
    28  C    0.559943
    32  O    0.016397
    35  O    0.001728
    38  O   -0.011739
    41  O    0.051046
 Electronic spatial extent (au):  <R**2>=           6858.2082
 Charge=              0.0000 electrons
 Dipole moment (field-independent basis, Debye):
    X=             -1.9408    Y=             -6.6128    Z=             -4.1229  Tot=              8.0308
 Quadrupole moment (field-independent basis, Debye-Ang):
   XX=           -136.3786   YY=           -125.1980   ZZ=           -115.3741
   XY=             12.9672   XZ=             -4.4359   YZ=              6.4421
 Traceless Quadrupole moment (field-independent basis, Debye-Ang):
[...]
 00113168,0.00012171,-0.00087907,-0.00024627,0.00070705,0.00028381,-0.0
 0003978,-0.00004825,-0.00002833,0.00008153,-0.00012149,0.00011255,-0.0
 0004851,-0.00009649,0.00001880,0.00003137,0.00000755,0.00000975,-0.000
 01327,0.00000012,0.00002433,0.00000567,-0.00000515,0.00000599,0.000000
 88,-0.00000750,-0.00060622,-0.00096175,-0.00103004,0.00213009,0.001664
 15,0.00117029,0.00042191,0.00007298,-0.00038065,-0.00003524,-0.0000178
 5,0.00000589,0.00000997,0.00000716,0.00000043,0.00002638,0.00001705,-0
 .00000773,-0.03430429,0.00161162,-0.01013755,0.01491479,-0.00882162,0.
 01007253,0.00015928,0.00000370,0.00000244,0.00000125,-0.00000012,-0.00
 008085,-0.00009480,0.00001249,-0.00010779,0.00000424,0.00061585,0.0002
 0463,0.00019758,-0.00040268,-0.00029169,-0.00009319,0.00006295,-0.0000
 6008,0.00001403,-0.00002293,0.00002095,-0.00001839,0.00002046,-0.00000
 797,0.00003986,-0.00002623,0.00000963,0.00027579,-0.00025751,0.0000007
 4,-0.00000830,-0.00002459,-0.00002946,-0.00054711,-0.00029261,0.000081
 22,0.00002499,0.00009039,-0.00006148,-0.00006181,-0.00007000,-0.000038
 35,0.00001700,0.00004060,-0.00002863,-0.00033434,0.00071515,-0.0020401
 6,-0.00541759,0.00205885,-0.00016194,0.00345647,0.00341197,-0.00522640
 ,0.00063026,-0.00326715,0.00522408,-0.00026517,0.00021862,-0.00130055,
 -0.00010023,-0.00091956,0.00184964,-0.00010473,0.00076418,-0.00137019,
 -0.00063039,-0.00208115,0.00240523,-0.00161909,-0.00056148,0.00084201,
 -0.00012450,0.00001943,0.00001174,0.00025452,0.00003031,0.00003819,0.0
 0040956,-0.00006971,-0.00001568,-0.00112051,0.00060261,-0.00015915,0.0
 0027466,-0.00006059,-0.00008716,0.00008753,-0.00005389,-0.00004352,0.0
 0001467,-0.00001619,0.00004421,-0.00066296,-0.00114357,0.00042159,0.00
 094944,0.00308816,-0.00103826,0.00012998,0.00019844,0.00027903,0.00011
 105,0.00015219,-0.00011816,-0.00001213,-0.00001322,0.00001988,-0.00013
 176,-0.00015456,0.00013595,-0.04945240,0.03645130,-0.01949973,-0.00404
 287,-0.04505157,0.01750915,0.05782818,0.00092960,0.00010092,0.00055163
 ,-0.00023271,-0.00039300,-0.00019474,-0.00013754,-0.00007595,-0.000188
 50,-0.00040205,0.00138766,0.00046820,-0.00021386,-0.00050899,-0.000659
 01,0.00000800,-0.00018259,-0.00030893,0.00015117,0.00002143,-0.0000251
 8,-0.00000944,0.00009578,-0.00003642,-0.00001735,-0.00011688,0.0000395
 7,0.00088891,-0.00064988,0.00038319,-0.00002866,0.00002869,-0.00012245
 ,-0.00125377,-0.00083543,0.00015936,0.00005499,0.00021421,-0.00015656,
 -0.00003253,0.00002826,-0.00015384,0.00003955,0.00002320,-0.00011065,0
 .00224182,0.00082518,-0.00235534,0.00104166,0.00021698,-0.00367129,0.0
 0264707,0.00068756,0.00044551,-0.00673134,0.00501554,0.00008996,0.0025
 7428,-0.00155888,-0.00245908,-0.00125563,-0.00004210,-0.00010141,0.001
 99009,-0.00167962,0.00137731,-0.00017866,-0.00272422,0.00163433,0.0005
 3632,0.00046661,-0.00066188,-0.00018118,0.00006960,0.00019896,-0.00029
 468,-0.00000874,-0.00003864,-0.00015298,-0.00010145,0.00007385,-0.0006
 6480,0.00042673,-0.00000841,0.00011972,-0.00010220,-0.00005325,0.00029
 002,0.00002665,-0.00012195,0.00014502,0.00000833,0.00004910,-0.0021412
 7,0.00117893,0.00237987,0.00382476,-0.00432728,-0.00309408,0.00025076,
 0.00015493,-0.00076071,0.00033496,0.00004528,-0.00014824,-0.00004614,0
 .00000676,0.00002497,-0.00031220,-0.00011450,0.00015426,-0.01390491,-0
 .39902925,0.15762067,0.00409583,-0.01304559,0.00649162,0.00591020,0.41
 448317,-0.00255874,-0.00400743,-0.00109598,-0.00022513,0.00034986,0.00
 011761,0.00003048,-0.00006293,0.00028016,0.00099469,-0.00211059,-0.001
 06600,-0.00033552,-0.00052063,0.00044249,0.00011419,0.00017772,0.00050
 361,-0.00007172,0.00014991,0.00002219,0.00000039,-0.00005121,0.0000012
 7,-0.00003555,0.00005553,0.00001053,-0.00121491,0.00172051,-0.00060788
 ,-0.00003416,-0.00009258,0.00017656,0.00229733,0.00130149,0.00007632,-
 0.00007335,-0.00030267,0.00025044,0.00001874,-0.00006641,0.00024778,-0
 .00004338,0.00000666,0.00014330,-0.00442732,0.00277156,-0.00124562,0.0
 0291709,-0.00441005,0.00038287,-0.00105972,-0.00052538,-0.00110492,0.0
 0448779,-0.00092496,-0.00022663,-0.00139299,0.00072983,0.00096503,0.00
 034458,0.00030669,-0.00026282,-0.00108507,0.00069773,-0.00103513,0.000
 28024,0.00089838,-0.00177982,-0.00036178,-0.00055105,0.00054514,0.0002
 1532,0.00006296,-0.00012551,0.00008879,0.00002912,-0.00003548,0.000205
 23,0.00004607,-0.00006484,0.00045971,-0.00022168,-0.00001183,-0.000065
 58,0.00002582,0.00000853,-0.00003325,0.00000673,0.00002733,-0.00013842
 ,0.00000554,-0.00003495,0.00053843,0.00127297,-0.00146380,-0.00063584,
 -0.00304518,0.00287781,0.00015124,-0.00048585,-0.00055992,-0.00026410,
 -0.00005198,0.00011194,0.00003758,0.00000791,-0.00001559,0.00022808,0.
 00008822,-0.00011634,0.00038538,0.16564490,-0.07992019,-0.00238472,-0.
 00220667,0.00109628,0.00269739,-0.15673066,0.08249473,-0.00166142,-0.0
 0263817,-0.00148018,0.00015682,0.00061722,0.00016486,0.00010163,-0.000
 00241,0.00018015,0.00051447,-0.00083524,-0.00017682,-0.00001830,0.0001
 0353,0.00015799,0.00002399,0.00014262,0.00032008,-0.00006731,-0.000019
 79,0.00002943,-0.00001354,-0.00004788,0.00002467,0.00003468,0.00001632
 ,0.00000773,-0.00045152,0.00096145,-0.00067977,-0.00004712,-0.00009866
 ,0.00011346,0.00088573,0.00063473,0.00006726,-0.00001406,-0.00010872,0
 .00009523,-0.00000631,-0.00006509,0.00009847,0.00001212,0.00008727,0.0
 0008220,-0.00511568,0.00107945,-0.00238152,0.00149962,0.00075097,0.002
 51915,0.00735859,-0.00359813,0.00851484,0.00033775,-0.00055027,-0.0000
 4615,-0.00034029,0.00012420,0.00013457,-0.01653629,0.00502146,-0.00782
 558,-0.00040631,0.00022896,-0.00004402,-0.00051375,0.00134694,-0.00259
 589,-0.00077003,-0.00010279,0.00008639,-0.00018278,0.00012331,-0.00023
 325,-0.00002528,-0.00030022,0.00008571,-0.00009455,0.00033302,0.000173
 34,0.00022771,-0.00007796,-0.00002725,-0.00001163,-0.00000216,0.000006
 07,-0.00001775,0.00001083,0.00001187,-0.00002114,0.00000420,-0.0000138
 0,-0.00004212,0.00014710,0.00005226,0.00005731,-0.00009923,-0.00003515
 ,0.00001587,-0.00007094,-0.00003967,-0.00017248,-0.00001523,0.00008420
 ,0.00003658,0.00000912,-0.00001113,0.00011507,0.00001728,-0.00006907,-
 0.00011815,0.00027525,-0.00010818,0.00001336,-0.00017480,0.00007963,0.
 00014496,-0.00020501,0.00010883,0.56440432,0.00045644,0.00072164,0.000
 42373,-0.00011170,-0.00014015,-0.00006215,0.00004881,-0.00005016,-0.00
 001351,-0.00015357,0.00036748,0.00013848,-0.00002603,-0.00003613,-0.00
 004750,0.00003570,-0.00012391,-0.00002220,0.00003746,0.00001851,-0.000
 09467,0.00000538,0.00000743,-0.00000117,0.00001508,-0.00002286,0.00000
 081,0.00022073,-0.00034670,0.00018690,0.00000027,0.00003696,-0.0000370
 3,-0.00040464,-0.00025609,-0.00000575,0.00003471,0.00005361,-0.0000129
 9,-0.00000400,0.00001808,-0.00004401,0.00008444,0.00007881,-0.00004859
 ,0.00131688,-0.00033966,0.00042299,-0.00063760,-0.00014833,-0.00080232
 ,-0.00157505,0.00008518,-0.00012510,0.00023984,0.00002301,-0.00005357,
 -0.00000668,0.00003153,0.00003820,0.00250894,0.00210316,0.00106145,-0.
 00005313,0.00002081,-0.00005400,0.00091696,0.00049089,-0.00040245,-0.0
 0060556,-0.00115226,0.00003061,0.00015996,0.00015631,0.00018530,0.0001
 9450,0.00044283,0.00004412,0.00008219,-0.00021225,0.00005673,0.0000046
 2,-0.00001941,0.00000080,-0.00000238,0.00000439,-0.00000044,-0.0000081
 4,-0.00000162,0.00000379,-0.00000303,-0.00000248,-0.00000088,0.0000891
 0,0.00005772,0.00000672,-0.00005102,-0.00002489,-0.00000485,-0.0000585
 6,-0.00003802,-0.00000286,-0.00001734,0.00004364,-0.00001414,0.0000109
 4,-0.00001875,0.00000146,0.00000163,-0.00002974,0.00000912,0.00010020,
 0.00008375,0.00002218,-0.00005350,-0.00000705,-0.00005799,-0.00008771,
 -0.00009606,0.00004153,-0.07960602,0.01951304,-0.00027622,-0.00043775,
 -0.00020090,0.00001617,0.00014739,0.00001326,-0.00001179,0.00003385,0.
 00001621,0.00013730,-0.00010752,-0.00003846,0.00000580,0.00001838,0.00
 002852,0.00005165,0.00002287,0.00006976,-0.00001471,-0.00003995,0.0000
 0394,-0.00001927,-0.00001720,0.00000514,-0.00000695,0.00002230,-0.0000
 1041,-0.00003588,0.00012276,-0.00009283,-0.00000076,-0.00000924,0.0000
 1839,0.00010780,0.00007883,0.00000620,0.00001476,0.00000335,0.00001294
 ,-0.00000166,-0.00001681,0.00001809,0.00001479,0.00001155,-0.00002555,
 -0.00097856,-0.00003601,-0.00023561,0.00015165,0.00006568,0.00043958,0
 .00211883,0.00022167,-0.00020889,0.00022242,-0.00011999,-0.00016344,-0
 .00014316,0.00003516,0.00016859,-0.00315924,0.00060741,0.00232683,-0.0
 0011895,0.00004883,0.00002955,-0.00134296,-0.00019780,0.00082045,0.000
 97787,-0.00006962,-0.00119626,-0.00038859,0.00025928,-0.00016386,-0.00
 006598,-0.00063287,0.00004615,-0.00025119,0.00086137,0.00015522,0.0000
 6598,-0.00002465,-0.00001422,-0.00000595,-0.00000089,-0.00000082,-0.00
 000461,0.00000550,0.00000057,-0.00000414,0.00000116,-0.00000140,-0.000
 03023,0.00004984,0.00007443,0.00005225,-0.00004664,-0.00006521,-0.0000
 0084,-0.00002082,-0.00004019,-0.00003430,-0.00001667,0.00004809,-0.000
 00340,0.00000330,-0.00001070,0.00003234,0.00001882,-0.00003911,-0.0001
 1590,0.00010157,0.00004757,0.00005113,-0.00009326,-0.00000816,0.000110
 18,-0.00003648,-0.00001368,0.10981535,-0.04524026,0.54976397,0.0026888
 2,0.00423837,0.00242104,-0.00027885,-0.00094444,-0.00026420,-0.0001308
 7,-0.00001089,-0.00027171,-0.00078208,0.00141391,0.00033272,0.00002343
 ,-0.00015773,-0.00024506,0.00002049,-0.00024793,-0.00045744,0.00011619
 ,0.00003895,-0.00008815,0.00001798,0.00006838,-0.00003257,-0.00003625,
 -0.00003174,-0.00001148,0.00079340,-0.00160223,0.00107891,0.00007467,0
 .00017182,-0.00018699,-0.00152721,-0.00108036,-0.00010750,0.00004025,0
 .00019434,-0.00015244,0.00001054,0.00010788,-0.00016242,0.00003330,-0.
 00005869,-0.00013924,0.00832149,-0.00167728,0.00376899,-0.00251174,-0.
 00117627,-0.00399507,-0.01380493,0.00645331,-0.01481406,-0.00029945,0.
 00078563,0.00011027,0.00044550,-0.00017463,-0.00019125,0.00797475,-0.0
 0553994,0.00995539,0.00049709,-0.00031519,0.00000243,-0.00066665,-0.00
 281873,0.00541558,0.00197769,0.00075407,-0.00124832,-0.00003746,-0.000
 11309,0.00016927,0.00010040,-0.00021384,-0.00007887,0.00017764,0.00017
 096,-0.00002165,-0.00028425,0.00009751,0.00004070,0.00001252,0.0000035
 2,-0.00000531,0.00002519,-0.00001469,-0.00001610,0.00002852,-0.0000048
 0,0.00001559,0.00002710,-0.00019403,-0.00007456,-0.00005689,0.00012758
 ,0.00004985,-0.00000287,0.00009670,0.00005676,0.00021156,0.00002204,-0
 .00012735,-0.00003641,-0.00001446,0.00001745,-0.00014102,-0.00002139,0
 .00010050,0.00012474,-0.00037156,0.00013498,0.00001252,0.00022076,-0.0
 0009496,-0.00016894,0.00029330,-0.00013803,-0.47843961,0.06276852,-0.0
 1854170,0.48653071,-0.00048240,-0.00079658,-0.00046923,0.00011373,0.00
 016892,0.00006769,-0.00003154,0.00003818,0.00003110,0.00015316,-0.0003
 6050,-0.00012776,0.00002129,0.00003672,0.00005237,-0.00004259,0.000113
 09,0.00002544,-0.00003752,-0.00001412,0.00007825,0.00000009,-0.0000109
 0,0.00000221,-0.00000806,0.00002012,-0.00000147,-0.00021285,0.00035430
 ,-0.00020945,-0.00000375,-0.00004152,0.00003932,0.00040849,0.00025697,
 0.00001692,-0.00002528,-0.00005364,0.00002364,0.00000319,-0.00001812,0
 .00004298,-0.00006070,-0.00008032,0.00004772,-0.00169167,0.00071463,-0
 .00050813,0.00055391,0.00031139,0.00095848,0.00274271,-0.00091749,0.00
 095263,-0.00012204,-0.00011567,-0.00000797,-0.00003951,0.00000141,0.00
 000132,-0.00238228,-0.00367715,-0.00161156,-0.00002293,0.00001329,0.00
 003646,-0.00077639,-0.00040787,0.00013569,0.00074827,0.00102360,0.0007
 1018,-0.00031691,-0.00020979,-0.00036758,0.00004413,-0.00146151,0.0004
 1827,0.00008363,0.00035567,0.00007414,0.00002432,0.00000396,-0.0000067
 2,-0.00000007,-0.00000324,0.00000108,0.00000315,0.00000235,-0.00000116
 ,-0.00000135,0.00000241,-0.00000080,-0.00006756,-0.00001344,0.00000932
 ,0.00004720,-0.00000177,-0.00000805,0.00004146,0.00001334,-0.00000700,
 -0.00000569,-0.00002980,0.00001981,-0.00000419,0.00001193,-0.00000261,
 0.00001157,0.00002278,-0.00001500,-0.00009826,-0.00000826,-0.00002712,
 0.00004279,-0.00003402,0.00005375,0.00009524,0.00003830,-0.00001558,0.
 05948603,-0.01609503,0.00503555,-0.06244156,0.02076774,0.00034346,0.00
 053241,0.00025475,-0.00002031,-0.00016787,-0.00001985,0.00000774,-0.00
 003678,-0.00002073,-0.00016189,0.00015385,0.00005870,-0.00000482,-0.00
 002357,-0.00003572,-0.00004811,-0.00004721,-0.00009711,0.00002005,0.00
 004408,-0.00000714,0.00001875,0.00001732,-0.00000688,0.00000627,-0.000
 02178,0.00000955,0.00005837,-0.00016138,0.00011860,0.00000363,0.000012
 57,-0.00002345,-0.00013810,-0.00010271,-0.00000794,-0.00000817,0.00000
 630,-0.00001676,0.00000200,0.00002025,-0.00002322,-0.00000877,-0.00001
 163,0.00001588,0.00118227,0.00015109,0.00032830,-0.00023292,-0.0000436
 5,-0.00048429,-0.00398341,-0.00004461,-0.00038687,-0.00021727,0.000123
 68,0.00013353,0.00015031,-0.00003670,-0.00016021,0.00391857,-0.0009414
 6,-0.00301370,0.00012349,-0.00005404,-0.00002558,0.00121215,0.00023375
 ,-0.00115285,-0.00176698,0.00093660,0.00050404,0.00057653,-0.00045693,
 0.00020187,-0.00004133,0.00098490,-0.00020233,-0.00007084,-0.00060037,
 -0.00201854,-0.00006969,0.00002568,0.00001280,0.00000610,0.00000075,0.
 00000025,0.00000497,-0.00000541,-0.00000107,0.00000464,-0.00000133,0.0
 0000198,0.00003129,-0.00005132,-0.00007123,-0.00005355,0.00004873,0.00
 006392,0.00000034,0.00002048,0.00003830,0.00003709,0.00001665,-0.00004
 622,0.00000197,-0.00000371,0.00000953,-0.00003330,-0.00001843,0.000038
 06,0.00012736,-0.00011174,-0.00003561,-0.00005313,0.00010813,-0.000001
 45,-0.00012802,0.00003967,0.00000918,0.03625878,-0.00223285,-0.0488775
 8,0.01195463,-0.00496305,0.05971870,0.00017335,0.00028143,0.00015889,-
 0.00001052,-0.00006596,-0.00001940,-0.00002335,0.00001073,-0.00002606,
 -0.00005156,0.00007579,0.00000019,0.00000485,-0.00001277,-0.00001716,-
 0.00000369,-0.00000828,-0.00003568,0.00000465,-0.00000960,0.00000726,-
 0.00000100,0.00000558,-0.00000478,-0.00001384,0.00000607,-0.00000518,0
 .00003644,-0.00009368,0.00007992,0.00000646,0.00000806,-0.00001031,-0.
 00006956,-0.00005449,-0.00000752,-0.00000118,0.00000838,-0.00000923,0.
 00000048,0.00000416,-0.00000833,-0.00000888,-0.00003153,-0.00001744,0.
 00043019,-0.00011467,0.00011115,-0.00022650,-0.00010459,-0.00026225,-0
 .00069372,0.00014163,-0.00020485,-0.00006938,0.00007831,-0.00006202,0.
 00004378,-0.00001635,0.00001910,-0.00058281,0.00010853,0.00100607,0.00
 006931,-0.00003440,0.00003570,0.00006498,-0.00014309,0.00032420,0.0001
 5483,-0.00005204,-0.00011597,-0.00000639,0.00001967,0.00003284,-0.0000
 4601,0.00002074,-0.00000003,-0.00017407,0.00006208,-0.00002346,-0.0000
 4301,0.00001468,0.00000059,0.00000194,0.00000034,-0.00000239,0.0000021
 2,-0.00000120,-0.00000242,0.00000297,-0.00000068,0.00000386,0.00001230
 ,-0.00002381,0.00000392,-0.00000828,0.00001395,-0.00000446,-0.00000917
 ,0.00001159,-0.00000117,0.00003973,-0.00000169,-0.00000356,-0.00001417
 ,-0.00000059,-0.00000065,-0.00002370,0.00000092,0.00000384,0.00001302,
 -0.00003728,0.00002907,-0.00000180,0.00002155,-0.00001795,-0.00001410,
 0.00002871,-0.00002220,-0.07085313,0.01413235,-0.08838935,-0.01108104,
 0.00425075,-0.04901017,0.08296944,-0.00012774,-0.00019681,-0.00010410,
 0.00002800,0.00004103,0.00001443,-0.00001938,0.00002037,0.00000106,0.0
 0004898,-0.00009745,-0.00004165,0.00000687,0.00000955,0.00001236,0.000
 00333,0.00002349,0.00001233,-0.00000953,-0.00000811,0.00002876,-0.0000
 0591,-0.00000228,0.00000001,-0.00000837,0.00000980,-0.00000036,-0.0000
 5732,0.00009218,-0.00004545,0.00000076,-0.00000906,0.00001002,0.000110
 46,0.00006760,-0.00000331,-0.00000757,-0.00001116,0.00000178,0.0000010
 2,-0.00000549,0.00001343,-0.00001874,-0.00001531,0.00000243,-0.0002724
 9,0.00002537,-0.00009983,0.00020572,0.00002245,0.00019548,0.00032134,-
 0.00001375,0.00003004,-0.00009407,0.00001862,0.00003503,0.00001392,-0.
 00002279,-0.00002705,-0.00007970,-0.00016870,-0.00025076,0.00003105,-0
 .00001418,0.00001570,-0.00002970,-0.00004739,0.00008345,0.00014132,-0.
 00003595,0.00008250,0.00005263,-0.00000798,0.00004794,-0.00004489,0.00
 019793,0.00004434,0.00000214,-0.00017549,-0.00001204,-0.00000667,0.000
 00957,0.00000198,0.00000121,-0.00000159,0.,0.00000386,0.00000033,-0.00
 000159,0.00000184,0.00000074,0.00000032,-0.00003318,-0.00003140,-0.000
 01489,0.00001246,0.00001706,0.00001274,0.00002526,0.00001939,0.0000078
 0,0.00000972,-0.00001975,0.00000398,-0.00000500,0.00000906,-0.00000030
 ,-0.00000226,0.00001285,-0.00000199,-0.00001933,-0.00004785,-0.0000146
 3,0.00001000,0.00001951,0.00002087,0.00001391,0.00004191,-0.00001417,0
 .01709744,-0.00519721,0.03938803,0.00119792,0.00007969,0.00666163,-0.0
 1849930,0.00539120,0.00013521,0.00021497,0.00011733,-0.00000827,-0.000
 05662,-0.00001035,-0.00001118,0.00000201,-0.00001648,-0.00003987,0.000
 06038,0.00000981,0.00000285,-0.00000793,-0.00001242,-0.00000234,-0.000
 00458,-0.00002810,0.00000412,0.00000615,0.00000371,0.00000345,0.000005
 79,-0.00000113,-0.00000076,-0.00000458,0.00000233,0.00002966,-0.000071
 41,0.00005265,0.00000400,0.00000728,-0.00000921,-0.00006305,-0.0000478
 9,-0.00000653,-0.00000224,0.00000621,-0.00000929,0.00000093,0.00000586
 ,-0.00000671,-0.00000973,-0.00001021,0.00000164,0.00044098,-0.00008311
 ,0.00017671,-0.00009763,-0.00006393,-0.00020620,-0.00073458,0.00031065
 ,-0.00066491,-0.00005399,0.00004589,0.00004722,0.00003979,-0.00001178,
 -0.00004201,0.00151368,-0.00036526,0.00038379,0.00003742,-0.00001895,-
 0.00000804,-0.00004724,-0.00008429,0.00028299,0.00008119,-0.00018373,-
 0.00012558,-0.00000698,0.00003015,0.00003682,-0.00001134,0.00005337,-0
 .00004677,0.00001184,0.00012560,0.00003775,-0.00001998,0.00000772,0.00
 000430,0.00000142,0.00000039,0.00000046,0.00000154,-0.00000170,-0.0000
 0039,0.00000177,-0.00000030,0.00000044,0.00000697,-0.00001320,-0.00001
 524,-0.00000967,0.00001008,0.00001042,-0.00000172,0.00000614,0.0000105
 6,0.00001271,0.00000272,-0.00001550,0.00000047,-0.00000049,0.00000363,
 -0.00001038,-0.00000366,0.00001221,0.00001505,-0.00002276,-0.00000013,
 -0.00000510,0.00001336,-0.00000403,-0.00001265,0.00001568,-0.00000419,
 -0.14350508,0.04670634,-0.50270616,0.00584138,-0.00048407,-0.00478159,
 0.13646738,-0.04609629,0.50752618\\0.00000056,0.00000271,-0.00000177,-
 0.00000089,0.00000358,-0.00000311,-0.00000287,-0.00000064,-0.00000056,
 0.00000227,-0.00000250,-0.00000040,0.00000246,-0.00000099,0.00000067,-
 0.00000325,-0.00000253,0.00000419,-0.00000012,0.00000064,-0.00000615,-
 0.00000672,-0.00000223,0.,-0.00000350,0.00000363,0.00000153,0.00000412
 ,-0.00000259,0.00000356,0.00000069,0.00000142,-0.00000499,-0.00000051,
 0.00000357,0.00000275,-0.00000081,-0.00000071,0.00000137,-0.00000024,0
 .00000145,-0.00000557,-0.00000431,-0.00000021,0.00000175,-0.00000569,0
 .00000041,0.00000066,0.00000054,-0.00000074,0.,0.00000119,-0.00000193,
 0.00000106,0.00000513,0.00000032,0.00000223,-0.00000210,0.00000231,-0.
 00000408,0.00000046,-0.00000222,0.00000704,-0.00000119,0.00000313,-0.0
 0000650,0.00000276,-0.00000254,0.00000307,-0.00000093,-0.00000140,-0.0
 0000119,0.00000454,-0.00000544,0.00000951,0.00000339,-0.00000217,0.000
 00819,0.00000054,-0.00000260,0.00000708,0.00000468,0.00000479,-0.00000
 602,-0.00000146,0.00000116,-0.00000625,0.00000178,0.00000338,-0.000005
 41,0.00000225,0.00000257,-0.00000742,-0.00000034,0.00000146,0.00000683
 ,0.00000694,-0.00000189,-0.00000711,-0.00000040,0.00000256,-0.00000544
 ,-0.00001144,-0.00000262,-0.00000245,-0.00000330,0.00000467,-0.0000100
 1,0.00000165,0.00000746,-0.00000253,0.00000370,-0.00000520,0.00000228,
 0.00001098,0.00000093,0.00000197,-0.00000213,0.00000134,-0.00000379,-0
 .00000514,-0.00000407,0.00001230,0.00000072,-0.00000412,0.00000647,-0.
 00000400,-0.00000414,0.00000625\\\@


 FORGIVE MY NONSENSE AS I ALSO FORGIVE THOSE WHO THINK THEY TALK SENSE

                                                       -- ROBERT FROST
 Job cpu time:       1 days 14 hours 47 minutes  8.1 seconds.
 File lengths (MBytes):  RWF=   2339 Int=      0 D2E=      0 Chk=     44 Scr=      1
 Normal termination of Gaussian 09 at Mon Feb 28 15:38:23 2022.
