 *******************************************************************************
 ** Site#: 37381        For non-commercial use only           Version 21.125L **
 *******************************************************************************
 ** Cite this program as: MOPAC2016, Version: 21.125L, James J. P. Stewart,   **
 ** Stewart Computational Chemistry, web: HTTP://OpenMOPAC.net. Days left: 191**
 *******************************************************************************
 **                                                                           **
 **                                MOPAC2016                                  **
 **                                                                           **
 *******************************************************************************

                              PM6-D3H4 CALCULATION RESULTS

 *******************************************************************************
 *  CALCULATION DONE:                                Tue Oct 26 16:24:17 2021  *
 *  PM6-D3H4   - CORRECT DISPERSION AND HYDROGEN BOND TERMS USING THE D3H4 METHOD
 *  TRIPLET    - SPIN STATE DEFINED AS A TRIPLET
 *  C.I.=2     -  2 M.O.S TO BE USED IN C.I.
 *  EPS=2.38   - USE ANDREAS KLAMT'S COSMO IMPLICIT SOLVATION MODEL
 *  RSOLV=  3.480
 *  FORCE      - FORCE CALCULATION SPECIFIED
 *  T=         - A TIME OF 172800.0 SECONDS REQUESTED
 *  DUMP=N     - RESTART FILE WRITTEN EVERY 7200.0 SECONDS REQUESTED
 *  AUX        - OUTPUT AUXILIARY INFORMATION
 *  LARGE      - EXPANDED OUTPUT TO BE PRINTED
 *  THERMO     - THERMODYNAMIC QUANTITIES TO BE CALCULATED
 *******************************************************************************
 AUX LARGE FORCE THERMO PM6-D3H4 TRIPLET C.I.=2 EPS=2.38 RSOLV=3.48
 Cycloaddition_P_PM6_D3H4_THERMO

   ATOM   CHEMICAL          X               Y               Z
  NUMBER   SYMBOL      (ANGSTROMS)     (ANGSTROMS)     (ANGSTROMS)
 
     1       C          0.43394000  *   0.72472000  *  -0.57197000  *
     2       C          0.87726000  *   1.84597000  *   0.42342000  *
     3       C         -1.45673000  *   1.91085000  *   0.50733000  *
     4       C         -1.02036000  *   1.17382000  *  -0.78040000  *
     5       H          1.00893000  *   0.72069000  *  -1.53362000  *
     6       H         -1.67621000  *   0.62921000  *  -1.43774000  *
     7       C         -0.27329000  *   1.83341000  *   1.49278000  *
     8       H         -0.23126000  *   2.73520000  *   2.13557000  *
     9       H         -0.29143000  *   0.91872000  *   2.10997000  *
    10       C          0.46319000  *   3.04371000  *  -0.41299000  *
    11       H          1.00427000  *   3.91331000  *  -0.62636000  *
    12       C         -0.96070000  *   2.72071000  *  -0.70188000  *
    13       H         -1.57931000  *   3.36934000  *  -1.29936000  *
    14       H          1.89928000  *   1.81336000  *   0.79796000  *
    15       H         -2.46725000  *   1.90334000  *   0.88045000  *
    16       N         -0.26733000  *  -1.52772000  *   0.39713000  *
    17       N          0.60801000  *  -0.66426000  *   0.01608000  *
    18       C         -1.70205000  *  -1.34495000  *   0.34156000  *
    19       C          2.00139000  *  -1.11484000  *   0.29574000  *
    20       O          2.35746000  *  -1.86014000  *   1.16093000  *
    21       O         -2.40917000  *  -1.11009000  *   1.28712000  *
    22       O          2.78135000  *  -0.50021000  *  -0.63390000  *
    23       O         -2.13547000  *  -1.67617000  *  -0.91322000  *
    24       C         -3.58165000  *  -1.83879000  *  -1.07236000  *
    25       H         -3.63698000  *  -2.09778000  *  -2.15414000  *
    26       H         -3.91554000  *  -2.66557000  *  -0.41069000  *
    27       H         -4.07359000  *  -0.87460000  *  -0.82519000  *
    28       C          4.21374000  *  -0.82381000  *  -0.58131000  *
    29       H          4.60894000  *  -0.06563000  *  -1.29435000  *
    30       H          4.58377000  *  -0.67984000  *   0.45515000  *
    31       H          4.33441000  *  -1.86640000  *  -0.94096000  *
 


          CARTESIAN COORDINATES 

    NO.       ATOM           X           Y           Z

     1         C          0.4339      0.7247     -0.5720
     2         C          0.8773      1.8460      0.4234
     3         C         -1.4567      1.9108      0.5073
     4         C         -1.0204      1.1738     -0.7804
     5         H          1.0089      0.7207     -1.5336
     6         H         -1.6762      0.6292     -1.4377
     7         C         -0.2733      1.8334      1.4928
     8         H         -0.2313      2.7352      2.1356
     9         H         -0.2914      0.9187      2.1100
    10         C          0.4632      3.0437     -0.4130
    11         H          1.0043      3.9133     -0.6264
    12         C         -0.9607      2.7207     -0.7019
    13         H         -1.5793      3.3693     -1.2994
    14         H          1.8993      1.8134      0.7980
    15         H         -2.4672      1.9033      0.8804
    16         N         -0.2673     -1.5277      0.3971
    17         N          0.6080     -0.6643      0.0161
    18         C         -1.7021     -1.3450      0.3416
    19         C          2.0014     -1.1148      0.2957
    20         O          2.3575     -1.8601      1.1609
    21         O         -2.4092     -1.1101      1.2871
    22         O          2.7813     -0.5002     -0.6339
    23         O         -2.1355     -1.6762     -0.9132
    24         C         -3.5816     -1.8388     -1.0724
    25         H         -3.6370     -2.0978     -2.1541
    26         H         -3.9155     -2.6656     -0.4107
    27         H         -4.0736     -0.8746     -0.8252
    28         C          4.2137     -0.8238     -0.5813
    29         H          4.6089     -0.0656     -1.2944
    30         H          4.5838     -0.6798      0.4551
    31         H          4.3344     -1.8664     -0.9410

 General Reference for PM6:
 "Optimization of Parameters for Semiempirical Methods V: Modification of NDDO Approximations
 and Application to 70 Elements", J. J. P. Stewart, J. Mol. Mod., 13, 1173-1213 (2007)
 URL: https://link.springer.com/article/10.1007/s00894-007-0233-4

           Empirical Formula: C11 H14 N2 O4  =    31 atoms



      MOLECULAR POINT GROUP   :   C1  


 TRIPLET STATE CALCULATION


      RHF CALCULATION, NO. OF DOUBLY OCCUPIED LEVELS = 46



 ALL CONVERGERS ARE NOW FORCED ON
 SHIFT=10, PULAY ON, CAMP-KING ON
 AND ITERATION COUNTER RESET




          HEAT OF FORMATION =     -52.210637 KCALS/MOLE


          CARTESIAN COORDINATE DERIVATIVES

   NUMBER  ATOM         X            Y            Z

     1       C     -0.125790     0.024990    -0.086201
     2       C      0.177977    -0.157907    -0.050699
     3       C      0.014378     0.123974     0.063006
     4       C     -0.240206     0.056197     0.026628
     5       H     -0.093303    -0.072768    -0.061137
     6       H     -0.153387     0.085848     0.015389
     7       C      0.181084    -0.045477     0.109457
     8       H      0.151363    -0.022419    -0.010533
     9       H      0.052845     0.014230     0.135244
    10       C      0.167267    -0.192983    -0.350032
    11       H     -0.103630    -0.072265     0.025595
    12       C     -0.033225     0.106462    -0.093964
    13       H     -0.095038     0.057117    -0.086145
    14       H      0.086910    -0.158606    -0.005563
    15       H      0.011477     0.185246     0.067017
    16       N      0.203883    -0.058473     0.465410
    17       N      0.150664     0.238029    -0.512860
    18       C      0.413902    -0.337498     0.047601
    19       C      0.112738     1.128515    -1.779771
    20       O     -0.541366    -1.085342     3.985172
    21       O      0.234751     0.693826     0.306507
    22       O      0.381630    -0.153319    -1.906515
    23       O      0.106692    -1.160047    -0.328569
    24       C     -0.133764     0.680578     0.322957
    25       H     -1.011926    -0.208510    -0.477502
    26       H     -0.107760     0.239087     0.136336
    27       H      0.205899     0.445108    -0.049058
    28       C      0.013542    -0.465037     0.085396
    29       H     -0.043704     0.038369     0.364829
    30       H     -0.201941    -0.088259    -0.110991
    31       H      0.217806     0.161442    -0.247194
 
 DIPOLE           X         Y         Z       TOTAL
 POINT-CHG.     0.643    -2.207    -5.561     6.017
 HYBRID         0.055     0.590    -0.457     0.748
 SUM            0.698    -1.617    -6.018     6.270


          GRADIENT NORM =   5.65561


                              **** WARNING ****

           GRADIENT IS VERY LARGE FOR A THERMO CALCULATION
           RESULTS ARE LIKELY TO BE INACCURATE IF THERE ARE
           ANY LOW-LYING VIBRATIONS (LESS THAN ABOUT 400CM-1)
           GRADIENT NORM SHOULD BE LESS THAN ABOUT 1.1 FOR THERMO
           TO GIVE ACCURATE RESULTS


          TIME FOR SCF CALCULATION =    1.79

          TIME FOR DERIVATIVES     =    0.93

          MOLECULAR WEIGHT =  238.24



          ROTATIONAL CONSTANTS IN CM(-1)

          A =    0.02050653   B =    0.01416267   C =    0.01003605



           PRINCIPAL MOMENTS OF INERTIA IN UNITS OF 10**(-40)*GRAM-CM**2

          A =     1365.0666   B =     1976.5176   C =     2789.2214


          ORIENTATION OF MOLECULE IN FORCE CALCULATION

    NO.       ATOM         X         Y         Z

     1          C       0.2905   -0.3670   -0.9372
     2          C       1.8540   -0.3670   -0.9372
     3          C       1.2922    1.9008   -0.9372
     4          C       0.0675    1.0796   -1.4037
     5          H      -0.1616   -1.1065   -1.6472
     6          H      -0.9275    1.4682   -1.5371
     7          C       2.1996    0.9419   -0.1404
     8          H       3.2674    1.2128   -0.2608
     9          H       1.9314    0.8908    0.9288
    10          C       2.0631    0.1142   -2.3620
    11          H       2.7043   -0.2668   -3.0956
    12          C       1.2438    1.3568   -2.3744
    13          H       1.1531    1.9674   -3.2572
    14          H       2.3589   -1.2809   -0.6275
    15          H       1.2378    2.9409   -0.6622
    16          N      -0.9067    0.0295    1.2796
    17          N      -0.2818   -0.7059    0.4277
    18          C      -1.2178    1.4322    1.1045
    19          C      -0.0319   -2.0806    0.9479
    20          O       0.0854   -2.4073    2.0926
    21          O      -0.6479    2.3428    1.6478
    22          O       0.0382   -2.8827   -0.1484
    23          O      -2.3771    1.5352    0.3851
    24          C      -3.0050    2.8574    0.3626
    25          H      -3.8952    2.6464   -0.2727
    26          H      -3.2714    3.1359    1.4039
    27          H      -2.2957    3.5762   -0.0989
    28          C       0.2458   -4.3128    0.1182
    29          H       0.4476   -4.6742   -0.9153
    30          H       1.1138   -4.4361    0.7988
    31          H      -0.6966   -4.7136    0.5449


    FIRST DERIVATIVES WILL BE USED IN THE CALCULATION OF SECOND DERIVATIVES

          ESTIMATED TIME TO COMPLETE CALCULATION =      507.14 SECONDS

    FOR POINT-GROUP C1   THERE ARE   1 UNIQUE SYMMETRY FUNCTIONS.

 STEP:   1 TIME =     1.93 SECS, INTEGRAL =      1.93 TIME LEFT: 172795.34
 STEP:   2 TIME =     1.91 SECS, INTEGRAL =      3.84 TIME LEFT: 172793.43
 STEP:   3 TIME =     1.89 SECS, INTEGRAL =      5.73 TIME LEFT: 172791.54
 STEP:   4 TIME =     1.90 SECS, INTEGRAL =      7.63 TIME LEFT: 172789.64
 STEP:   5 TIME =     1.89 SECS, INTEGRAL =      9.53 TIME LEFT: 172787.75
 STEP:   6 TIME =     1.92 SECS, INTEGRAL =     11.45 TIME LEFT: 172785.83
 STEP:   7 TIME =     1.90 SECS, INTEGRAL =     13.34 TIME LEFT: 172783.93
 STEP:   8 TIME =     1.90 SECS, INTEGRAL =     15.24 TIME LEFT: 172782.03
 STEP:   9 TIME =     1.90 SECS, INTEGRAL =     17.14 TIME LEFT: 172780.13
 STEP:  10 TIME =     1.89 SECS, INTEGRAL =     19.04 TIME LEFT: 172778.24
 STEP:  11 TIME =     2.07 SECS, INTEGRAL =     21.10 TIME LEFT: 172776.17
 STEP:  12 TIME =     1.88 SECS, INTEGRAL =     22.98 TIME LEFT: 172774.29
 STEP:  13 TIME =     1.91 SECS, INTEGRAL =     24.89 TIME LEFT: 172772.38
 STEP:  14 TIME =     1.90 SECS, INTEGRAL =     26.79 TIME LEFT: 172770.48
 STEP:  15 TIME =     1.90 SECS, INTEGRAL =     28.69 TIME LEFT: 172768.59
 STEP:  16 TIME =     1.92 SECS, INTEGRAL =     30.61 TIME LEFT: 172766.67
 STEP:  17 TIME =     1.90 SECS, INTEGRAL =     32.50 TIME LEFT: 172764.77
 STEP:  18 TIME =     1.90 SECS, INTEGRAL =     34.40 TIME LEFT: 172762.87
 STEP:  19 TIME =     1.89 SECS, INTEGRAL =     36.29 TIME LEFT: 172760.98
 STEP:  20 TIME =     1.88 SECS, INTEGRAL =     38.17 TIME LEFT: 172759.11
 STEP:  21 TIME =     1.92 SECS, INTEGRAL =     40.09 TIME LEFT: 172757.18
 STEP:  22 TIME =     1.89 SECS, INTEGRAL =     41.98 TIME LEFT: 172755.29
 STEP:  23 TIME =     1.88 SECS, INTEGRAL =     43.86 TIME LEFT: 172753.41
 STEP:  24 TIME =     1.89 SECS, INTEGRAL =     45.75 TIME LEFT: 172751.52
 STEP:  25 TIME =     1.89 SECS, INTEGRAL =     47.64 TIME LEFT: 172749.63
 STEP:  26 TIME =     1.89 SECS, INTEGRAL =     49.53 TIME LEFT: 172747.74
 STEP:  27 TIME =     1.89 SECS, INTEGRAL =     51.43 TIME LEFT: 172745.85
 STEP:  28 TIME =     1.89 SECS, INTEGRAL =     53.32 TIME LEFT: 172743.95
 STEP:  29 TIME =     1.87 SECS, INTEGRAL =     55.19 TIME LEFT: 172742.08
 STEP:  30 TIME =     1.87 SECS, INTEGRAL =     57.06 TIME LEFT: 172740.21
 STEP:  31 TIME =     1.86 SECS, INTEGRAL =     58.92 TIME LEFT: 172738.36
 STEP:  32 TIME =     1.85 SECS, INTEGRAL =     60.77 TIME LEFT: 172736.50
 STEP:  33 TIME =     1.85 SECS, INTEGRAL =     62.62 TIME LEFT: 172734.65
 STEP:  34 TIME =     1.86 SECS, INTEGRAL =     64.48 TIME LEFT: 172732.80
 STEP:  35 TIME =     1.86 SECS, INTEGRAL =     66.34 TIME LEFT: 172730.94
 STEP:  36 TIME =     1.86 SECS, INTEGRAL =     68.20 TIME LEFT: 172729.08
 STEP:  37 TIME =     1.85 SECS, INTEGRAL =     70.05 TIME LEFT: 172727.23
 STEP:  38 TIME =     1.86 SECS, INTEGRAL =     71.91 TIME LEFT: 172725.37
 STEP:  39 TIME =     1.85 SECS, INTEGRAL =     73.76 TIME LEFT: 172723.52
 STEP:  40 TIME =     1.86 SECS, INTEGRAL =     75.62 TIME LEFT: 172721.66
 STEP:  41 TIME =     1.85 SECS, INTEGRAL =     77.47 TIME LEFT: 172719.80
 STEP:  42 TIME =     1.85 SECS, INTEGRAL =     79.32 TIME LEFT: 172717.95
 STEP:  43 TIME =     1.85 SECS, INTEGRAL =     81.17 TIME LEFT: 172716.10
 STEP:  44 TIME =     1.86 SECS, INTEGRAL =     83.03 TIME LEFT: 172714.25
 STEP:  45 TIME =     1.85 SECS, INTEGRAL =     84.88 TIME LEFT: 172712.39
 STEP:  46 TIME =     1.88 SECS, INTEGRAL =     86.76 TIME LEFT: 172710.52
 STEP:  47 TIME =     1.88 SECS, INTEGRAL =     88.63 TIME LEFT: 172708.64
 STEP:  48 TIME =     1.89 SECS, INTEGRAL =     90.52 TIME LEFT: 172706.75
 STEP:  49 TIME =     1.89 SECS, INTEGRAL =     92.41 TIME LEFT: 172704.86
 STEP:  50 TIME =     1.88 SECS, INTEGRAL =     94.29 TIME LEFT: 172702.99
 STEP:  51 TIME =     1.89 SECS, INTEGRAL =     96.17 TIME LEFT: 172701.10
 STEP:  52 TIME =     1.89 SECS, INTEGRAL =     98.06 TIME LEFT: 172699.21
 STEP:  53 TIME =     1.88 SECS, INTEGRAL =     99.94 TIME LEFT: 172697.34
 STEP:  54 TIME =     1.87 SECS, INTEGRAL =    101.80 TIME LEFT: 172695.47
 STEP:  55 TIME =     1.88 SECS, INTEGRAL =    103.68 TIME LEFT: 172693.59
 STEP:  56 TIME =     1.87 SECS, INTEGRAL =    105.55 TIME LEFT: 172691.72
 STEP:  57 TIME =     1.86 SECS, INTEGRAL =    107.42 TIME LEFT: 172689.86
 STEP:  58 TIME =     1.86 SECS, INTEGRAL =    109.28 TIME LEFT: 172688.00
 STEP:  59 TIME =     1.86 SECS, INTEGRAL =    111.14 TIME LEFT: 172686.14
 STEP:  60 TIME =     1.86 SECS, INTEGRAL =    112.99 TIME LEFT: 172684.28
 STEP:  61 TIME =     1.85 SECS, INTEGRAL =    114.84 TIME LEFT: 172682.43
 STEP:  62 TIME =     1.86 SECS, INTEGRAL =    116.71 TIME LEFT: 172680.57
 STEP:  63 TIME =     1.86 SECS, INTEGRAL =    118.57 TIME LEFT: 172678.70
 STEP:  64 TIME =     1.86 SECS, INTEGRAL =    120.43 TIME LEFT: 172676.85
 STEP:  65 TIME =     1.86 SECS, INTEGRAL =    122.29 TIME LEFT: 172674.99
 STEP:  66 TIME =     1.86 SECS, INTEGRAL =    124.14 TIME LEFT: 172673.13
 STEP:  67 TIME =     1.86 SECS, INTEGRAL =    126.00 TIME LEFT: 172671.27
 STEP:  68 TIME =     1.86 SECS, INTEGRAL =    127.87 TIME LEFT: 172669.41
 STEP:  69 TIME =     1.86 SECS, INTEGRAL =    129.73 TIME LEFT: 172667.54
 STEP:  70 TIME =     1.85 SECS, INTEGRAL =    131.58 TIME LEFT: 172665.69
 STEP:  71 TIME =     1.86 SECS, INTEGRAL =    133.44 TIME LEFT: 172663.83
 STEP:  72 TIME =     1.85 SECS, INTEGRAL =    135.29 TIME LEFT: 172661.98
 STEP:  73 TIME =     1.85 SECS, INTEGRAL =    137.14 TIME LEFT: 172660.13
 STEP:  74 TIME =     1.84 SECS, INTEGRAL =    138.99 TIME LEFT: 172658.29
 STEP:  75 TIME =     1.84 SECS, INTEGRAL =    140.83 TIME LEFT: 172656.44
 STEP:  76 TIME =     1.84 SECS, INTEGRAL =    142.68 TIME LEFT: 172654.60
 STEP:  77 TIME =     1.84 SECS, INTEGRAL =    144.52 TIME LEFT: 172652.75
 STEP:  78 TIME =     1.85 SECS, INTEGRAL =    146.37 TIME LEFT: 172650.90
 STEP:  79 TIME =     1.85 SECS, INTEGRAL =    148.22 TIME LEFT: 172649.05
 STEP:  80 TIME =     1.85 SECS, INTEGRAL =    150.07 TIME LEFT: 172647.21
 STEP:  81 TIME =     1.85 SECS, INTEGRAL =    151.91 TIME LEFT: 172645.36
 STEP:  82 TIME =     1.86 SECS, INTEGRAL =    153.77 TIME LEFT: 172643.50
 STEP:  83 TIME =     1.85 SECS, INTEGRAL =    155.62 TIME LEFT: 172641.66
 STEP:  84 TIME =     1.85 SECS, INTEGRAL =    157.47 TIME LEFT: 172639.80
 STEP:  85 TIME =     1.87 SECS, INTEGRAL =    159.34 TIME LEFT: 172637.94
 STEP:  86 TIME =     1.90 SECS, INTEGRAL =    161.23 TIME LEFT: 172636.04
 STEP:  87 TIME =     1.86 SECS, INTEGRAL =    163.09 TIME LEFT: 172634.18
 STEP:  88 TIME =     1.86 SECS, INTEGRAL =    164.95 TIME LEFT: 172632.32
 STEP:  89 TIME =     1.87 SECS, INTEGRAL =    166.82 TIME LEFT: 172630.45
 STEP:  90 TIME =     1.89 SECS, INTEGRAL =    168.71 TIME LEFT: 172628.56
 STEP:  91 TIME =     1.88 SECS, INTEGRAL =    170.59 TIME LEFT: 172626.68
 STEP:  92 TIME =     1.87 SECS, INTEGRAL =    172.46 TIME LEFT: 172624.82
 STEP:  93 TIME =     1.86 SECS, INTEGRAL =    174.32 TIME LEFT: 172622.95

(To convert to Hartree/Bohr^2, multiply by (10^(-21) x N x a0^2)/(4.184 x 627.51) =  0.0642)


           FORCE MATRIX IN MILLIDYNES/ANGSTROM


                  C  1       C  2       C  3       C  4       H  5       H  6
 ------------------------------------------------------------------------------
     C    1  12.302807
     C    2   2.947037  12.935003
     C    3   0.646925   1.024489  12.764335
     C    4   3.173037   0.981360   3.554626  12.731345
     H    5   3.312904   0.450219   0.063705   0.555881   4.386858
     H    6   0.571479   0.091479   0.402596   3.624981   0.026929   4.409496
     C    7   0.785881   2.756539   3.198059   0.744933   0.087706   0.097143
     H    8   0.104596   0.590471   0.604312   0.068948   0.017584   0.022015
     H    9   0.150550   0.540105   0.557737   0.115040   0.017714   0.035764
     C   10   0.797668   3.592999   0.868195   1.072724   0.202647   0.151959
     H   11   0.311276   0.656356   0.230773   0.252658   0.035018   0.078058
     C   12   0.904529   1.175905   3.664759   3.369885   0.062497   0.479537
     H   13   0.132219   0.096832   0.494828   0.467799   0.014149   0.040253
     H   14   0.514024   3.490804   0.083785   0.086850   0.025576   0.025048
     H   15   0.119306   0.095321   3.614201   0.438612   0.014503   0.038347
     N   16   2.336520   1.791281   1.841412   1.934091   0.288013   0.606847
     N   17   4.173162   2.302844   1.881180   2.122317   0.662251   0.628083
     C   18   1.440045   1.023661   1.028703   1.062736   0.180368   0.317322
     C   19   1.762980   1.222698   1.086659   1.160378   0.154669   0.347199
     O   20   0.331030   0.274959   0.246614   0.290242   0.101038   0.073568
     O   21   0.467298   0.333498   0.344722   0.378726   0.060122   0.116020
     O   22   0.369454   0.350065   0.326579   0.344518   0.063613   0.104587
     O   23   0.374220   0.268982   0.263710   0.285617   0.049812   0.066112
     C   24   0.132988   0.095213   0.096028   0.100143   0.017319   0.028470
     H   25   0.040240   0.028413   0.028874   0.029213   0.006163   0.007986
     H   26   0.020567   0.015541   0.015720   0.018932   0.002957   0.007108
     H   27   0.042228   0.029566   0.030875   0.033838   0.005674   0.014018
     C   28   0.147448   0.074864   0.059280   0.058002   0.123906   0.020403
     H   29   0.152580   0.068183   0.036200   0.054825   0.130918   0.012137
     H   30   0.031806   0.024694   0.023167   0.026182   0.013152   0.007382
     H   31   0.019831   0.015826   0.014062   0.014161   0.010190   0.004005


                  C  7       H  8       H  9       C 10       H 11       C 12
 ------------------------------------------------------------------------------
     C    7  12.003943
     H    8   3.379127   4.298041
     H    9   3.496032   0.571020   4.330943
     C   10   1.137273   0.091988   0.179437  12.024722
     H   11   0.226008   0.054316   0.094384   4.106801   4.716544
     C   12   0.713876   0.073072   0.130494   4.050465   0.485517  13.139048
     H   13   0.095259   0.019992   0.035982   0.483592   0.082409   3.533092
     H   14   0.480346   0.025606   0.037179   0.574121   0.071652   0.105710
     H   15   0.508758   0.029730   0.041835   0.143053   0.072943   0.494522
     N   16   1.851690   0.408736   0.757819   3.073467   1.649726   2.090047
     N   17   1.910407   0.420005   0.778040   3.151827   1.683788   2.171642
     C   18   1.027576   0.219385   0.424812   1.732626   0.904635   1.164841
     C   19   1.104970   0.232260   0.451118   1.776088   0.936671   1.246840
     O   20   0.246819   0.049493   0.098511   0.448128   0.216902   0.270562
     O   21   0.334087   0.070993   0.137923   0.565252   0.296787   0.377380
     O   22   0.335723   0.071967   0.137642   0.532387   0.284662   0.371323
     O   23   0.274931   0.057067   0.114247   0.455571   0.235825   0.308699
     C   24   0.099224   0.020740   0.041080   0.163494   0.085106   0.110030
     H   25   0.029511   0.006136   0.011980   0.049627   0.025758   0.032225
     H   26   0.015311   0.002858   0.006062   0.024783   0.012786   0.017222
     H   27   0.030058   0.006441   0.012352   0.049879   0.026358   0.033809
     C   28   0.057756   0.012183   0.024028   0.124966   0.037492   0.068895
     H   29   0.043412   0.010267   0.013002   0.056090   0.025262   0.042207
     H   30   0.023388   0.004847   0.009454   0.034387   0.024726   0.025318
     H   31   0.014185   0.003182   0.005606   0.025087   0.019154   0.016378


                  H 13       H 14       H 15       N 16       N 17       C 18
 ------------------------------------------------------------------------------
     H   13   4.439525
     H   14   0.025923   4.357377
     H   15   0.042118   0.023584   4.419785
     N   16   0.599609   0.511389   0.562730  28.446920
     N   17   0.617832   0.522461   0.583967  23.708352  29.569353
     C   18   0.324867   0.276933   0.299708  10.731185   7.172466  20.005690
     C   19   0.339411   0.282351   0.323227   6.963557   9.892145   4.627861
     O   20   0.074062   0.068632   0.069865   1.716667   1.843147   1.018362
     O   21   0.107441   0.091545   0.095925   1.736799   2.568059  12.163550
     O   22   0.102414   0.085325   0.098440   2.342513   1.535213   1.356554
     O   23   0.081256   0.071797   0.075705   1.627354   2.046068   4.683939
     C   24   0.028910   0.025965   0.028831   0.644388   0.739229   1.211599
     H   25   0.008986   0.007558   0.009333   0.200696   0.220828   0.215433
     H   26   0.004451   0.003603   0.004711   0.098220   0.114553   0.120074
     H   27   0.008466   0.008019   0.006807   0.204170   0.219858   0.133941
     C   28   0.018803   0.015903   0.018551   0.412969   0.369639   0.230549
     H   29   0.009724   0.010661   0.008984   0.228380   0.247664   0.159314
     H   30   0.007012   0.005694   0.006902   0.164900   0.149041   0.096835
     H   31   0.004104   0.004563   0.004040   0.098243   0.094824   0.059846


                  C 19       O 20       O 21       O 22       O 23       C 24
 ------------------------------------------------------------------------------
     C   19  20.113338
     O   20  12.292236  14.376252
     O   21   1.539562   0.353972  14.051808
     O   22   5.054535   2.025193   0.454785   9.847601
     O   23   1.245302   0.277724   1.945919   0.377856   9.641690
     C   24   0.453053   0.100924   0.193126   0.136392   3.451480  10.675646
     H   25   0.135663   0.029335   0.054506   0.040535   0.713260   3.333170
     H   26   0.072760   0.016391   0.041863   0.021312   0.691821   3.350769
     H   27   0.130141   0.027851   0.055349   0.039278   0.695383   3.344147
     C   28   1.143463   0.107788   0.076494   3.281650   0.067030   0.024096
     H   29   0.128273   0.089352   0.050798   0.743565   0.045096   0.016634
     H   30   0.125347   0.047912   0.033428   0.683675   0.027337   0.009869
     H   31   0.111357   0.030060   0.019530   0.678725   0.017918   0.006641


                  H 25       H 26       H 27       C 28       H 29       H 30
 ------------------------------------------------------------------------------
     H   25   4.217206
     H   26   0.527836   4.200493
     H   27   0.530881   0.542942   4.211448
     C   28   0.006807   0.003998   0.007147  10.479679
     H   29   0.006198   0.002735   0.004670   3.332455   4.208869
     H   30   0.002830   0.001577   0.002877   3.335100   0.524903   4.184823
     H   31   0.002008   0.001092   0.001643   3.345361   0.528265   0.540428


                  H 31
 ------------------
     H   31   4.198955


          HEAT OF FORMATION =     -52.210637 KCALS/MOLE


          TRIVIAL VIBRATIONS, SHOULD BE ZERO

 -18.3094=TX -28.6674=TY -30.4666=TZ   2.0919=RX  17.4748=RY -42.1214=RZ


      MOLECULAR POINT GROUP   :   C1  


           EIGENVECTORS  


   Root No.       1         2         3         4         5         6         7         8

                 1 A       2 A       3 A       4 A       5 A       6 A       7 A       8 A   

                  -0.0       0.0       0.0       0.0       0.0       0.0       0.0       0.1
  
           1   -0.0087   -0.0573   -0.1033   -0.0241    0.0479   -0.0016   -0.0556    0.0355
           2    0.0009    0.0608   -0.0288   -0.0155   -0.0147    0.0284    0.0028    0.0725
           3   -0.0025   -0.0245   -0.0055    0.0041   -0.0295    0.1505    0.0251    0.0413
           4   -0.0122   -0.0567   -0.1014   -0.0239    0.0484   -0.0007   -0.0568    0.0325
           5    0.0022   -0.1028   -0.0663   -0.0042   -0.0201   -0.0017   -0.0326    0.0575
           6   -0.0207   -0.0875    0.0155   -0.0046    0.0517    0.0906    0.0917    0.0473
           7   -0.0044    0.1794   -0.0475   -0.0397    0.0613    0.0524   -0.0100    0.0938
           8    0.0024   -0.0450   -0.0539   -0.0082   -0.0180    0.0108   -0.0196    0.0723
           9   -0.0281    0.0641    0.0263   -0.0266   -0.1156   -0.0442   -0.0385   -0.0810
          10   -0.0122    0.0790   -0.0610   -0.0371    0.0730    0.0068   -0.0094    0.0577
          11    0.0012    0.1088   -0.0212   -0.0217   -0.0378    0.0066   -0.0115    0.0809
          12   -0.0017    0.0576    0.0017   -0.0092   -0.1088    0.0842   -0.0351    0.0318
          13   -0.0007   -0.1656   -0.1112   -0.0210    0.0884   -0.0350   -0.0594    0.0726
          14   -0.0027    0.1381   -0.0136   -0.0249   -0.0430    0.0124   -0.0032    0.1066
          15   -0.0263   -0.0389   -0.0155    0.0115   -0.0275    0.1801    0.0346   -0.0363
          16   -0.0133    0.1165   -0.0492   -0.0409    0.0814    0.0107    0.0016    0.0629
          17    0.0065    0.2208    0.0033   -0.0282   -0.0316    0.0223    0.0047    0.1155
          18    0.0198    0.1042   -0.0123   -0.0034   -0.1566    0.1139   -0.0777    0.0847
          19    0.0061    0.1070   -0.0821   -0.0280    0.0185    0.0702   -0.0710    0.0847
          20    0.0073   -0.1849   -0.0825    0.0070    0.0271    0.0477   -0.0020    0.1005
          21   -0.0358   -0.0227    0.0326   -0.0215   -0.0133   -0.0222    0.0506   -0.0468
          22    0.0042    0.1313   -0.0739   -0.0307    0.0258    0.0708   -0.0589    0.0917
          23    0.0048   -0.2896   -0.1076    0.0130    0.0129    0.0117   -0.0301    0.0610
          24   -0.0492   -0.0407    0.0491   -0.0319    0.0212   -0.1062    0.1102   -0.0805
          25    0.0174    0.1336   -0.0971   -0.0200   -0.0349    0.1301   -0.1448    0.0894
          26    0.0148   -0.2206   -0.0845    0.0173    0.0973    0.1337    0.0534    0.1777
          27   -0.0321   -0.0177    0.0282   -0.0191   -0.0233   -0.0048    0.0382   -0.0398
          28   -0.0361   -0.0578   -0.0688   -0.0367    0.1163   -0.0678    0.0144   -0.0182
          29   -0.0129   -0.0445   -0.0614   -0.0195   -0.1091   -0.1162   -0.1013   -0.0487
          30   -0.0302   -0.0669    0.0229   -0.0115    0.0315    0.0437    0.0809    0.0016
          31   -0.0338   -0.1290   -0.0687   -0.0385    0.1666   -0.1413    0.0283   -0.1583
          32   -0.0070   -0.0737   -0.0718   -0.0229   -0.1459   -0.2038   -0.1662   -0.1963
          33   -0.0316   -0.1146    0.0295   -0.0109    0.0946    0.0276    0.1227   -0.0466
          34   -0.0319    0.0741   -0.0386   -0.0460    0.1167   -0.0391    0.0336    0.0183
          35   -0.0092    0.0426   -0.0415   -0.0253   -0.1094   -0.0951   -0.0921   -0.0250
          36   -0.0252    0.0336    0.0222   -0.0201   -0.0823   -0.0006   -0.0160   -0.0496
          37   -0.0428    0.1080   -0.0117   -0.0557    0.1568   -0.0733    0.0787    0.0033
          38   -0.0123    0.1045   -0.0328   -0.0362   -0.1690   -0.1625   -0.1392   -0.0839
          39   -0.0258    0.0727    0.0256   -0.0266   -0.1275   -0.0428   -0.0536   -0.0889
          40   -0.0046   -0.1386   -0.1333   -0.0167    0.0269   -0.0089   -0.0841    0.0314
          41    0.0068   -0.1733   -0.0830    0.0027   -0.0033    0.0110   -0.0264    0.0769
          42   -0.0190   -0.1604    0.0146    0.0030    0.1345    0.1374    0.1631    0.1083
          43    0.0045    0.2944   -0.0272   -0.0436    0.0590    0.0954    0.0121    0.1632
          44    0.0050   -0.0550   -0.0554   -0.0054    0.0013    0.0337   -0.0006    0.1033
          45   -0.0377    0.1258    0.0351   -0.0391   -0.1893   -0.1246   -0.1023   -0.1829
          46    0.0189   -0.0310   -0.1281   -0.0031   -0.0327    0.1123   -0.0667   -0.2046
          47   -0.0025    0.0545   -0.0163   -0.0017    0.0603    0.0868   -0.0096   -0.1535
          48    0.0063   -0.0087   -0.0260    0.0112   -0.0893    0.1998    0.0427   -0.0458
          49   -0.0029   -0.0263   -0.1275   -0.0168   -0.0186    0.0386   -0.0583   -0.0356
          50   -0.0029    0.0619   -0.0260   -0.0093    0.0303    0.0606    0.0098   -0.0351
          51   -0.0105   -0.0126   -0.0138    0.0085   -0.0484    0.1749    0.0220   -0.0345
          52    0.0189   -0.0855   -0.0397    0.0196   -0.0056    0.0537   -0.0607   -0.2093
          53   -0.0035    0.0386    0.0093    0.0049    0.0637    0.0701   -0.0135   -0.1482
          54    0.0265   -0.0247    0.0003    0.0184   -0.0930    0.1233    0.0210    0.1165
          55    0.0058    0.0370   -0.1329   -0.0207   -0.1084   -0.0599    0.1576    0.0138
          56    0.0001    0.0812   -0.0269   -0.0094    0.0212    0.0076    0.0494   -0.0335
          57   -0.0181    0.0061   -0.0087    0.0106   -0.0262    0.0996    0.0047   -0.0837
          58    0.0075    0.1039   -0.2883   -0.0517   -0.2626   -0.2396    0.6930    0.0096
          59   -0.0101    0.1088   -0.0474   -0.0121    0.0081   -0.1085    0.1035   -0.0573
          60   -0.0180    0.0079    0.0003    0.0130   -0.0152    0.0818   -0.0350   -0.0849
          61    0.0077   -0.1218    0.0198    0.0299    0.0563   -0.0096   -0.0305   -0.3514
          62   -0.0082    0.0712   -0.0460   -0.0104    0.0621    0.1341   -0.0060   -0.2445
          63    0.0468   -0.0413    0.0308    0.0328   -0.1543    0.0757   -0.0178    0.4322
          64    0.0325    0.0034    0.0880    0.0201    0.0180    0.0467   -0.2899    0.0778
          65    0.0021    0.0582    0.0058   -0.0059    0.0321    0.1339    0.0172   -0.0442
          66   -0.0207    0.0208   -0.0195    0.0103   -0.0279    0.0134    0.0001   -0.0782
          67    0.0231   -0.0918   -0.0232    0.0388   -0.0713    0.0652   -0.0702   -0.0435
          68    0.0073   -0.0170    0.1074    0.0343    0.0671   -0.0588    0.0134    0.0115
          69    0.0172   -0.0253   -0.0084   -0.0068    0.0159    0.0851    0.0389   -0.1344
          70    0.0171   -0.1685    0.0940    0.0562   -0.1663   -0.0126   -0.0036    0.0112
          71    0.0039   -0.0537    0.1645    0.0439    0.0277   -0.1024    0.0459    0.0436
          72    0.0374   -0.0114   -0.0133    0.0125    0.2364   -0.0854    0.0116   -0.0096
          73    0.0250   -0.1258    0.0178    0.3419   -0.1991    0.0350   -0.0028   -0.0317
          74    0.0142   -0.0840    0.2146    0.1968    0.0490   -0.2289    0.0899    0.1437
          75    0.0235   -0.0612    0.0768   -0.4370    0.2761   -0.1129   -0.0022    0.0209
          76    0.0043   -0.2354    0.2134   -0.4115   -0.1113   -0.0883   -0.0073    0.0802
          77   -0.0196   -0.1101    0.2482   -0.2359   -0.1401   -0.0084    0.0699    0.0029
          78    0.0405   -0.0134   -0.0050   -0.0331    0.2973   -0.1309    0.0045    0.0197
          79    0.0190   -0.1916    0.1219    0.2535   -0.2540   -0.0354    0.0432    0.0372
          80    0.0173    0.0086    0.0709    0.1749    0.1441   -0.1064    0.0059    0.0259
          81    0.0612    0.0503   -0.1161    0.5155    0.2847   -0.1262    0.0209    0.0028
          82   -0.0027    0.0691    0.2819    0.0555    0.0228    0.0095   -0.0161    0.0054
          83    0.0052    0.0734    0.0308   -0.0003    0.0339    0.0975    0.0421   -0.0393
          84    0.0245    0.0515   -0.0376    0.0124   -0.0278   -0.1833   -0.1080    0.0283
          85    0.5613    0.0887    0.3307    0.0267    0.0207    0.0046    0.0469   -0.0342
          86    0.0309    0.0562    0.0779   -0.0022    0.0385    0.2540    0.1561   -0.1652
          87    0.1316    0.0629   -0.0446    0.0075   -0.0300   -0.2422   -0.1361    0.0696
          88   -0.3543    0.0724    0.3039    0.0834    0.0292    0.0087    0.0017    0.0165
          89   -0.0008    0.1237    0.1496    0.0246    0.0451   -0.0169    0.1302   -0.0257
          90    0.4774    0.0574   -0.0443   -0.0187   -0.0345   -0.2057   -0.1146    0.0200
          91   -0.2125    0.0849    0.3433    0.0808    0.0308    0.0021    0.0448   -0.0016
          92   -0.0411    0.0422   -0.1156   -0.0203    0.0203    0.0468   -0.1404    0.0480
          93   -0.4796    0.0578   -0.0410    0.0491   -0.0237   -0.2497   -0.1466    0.0983


   Root No.       9        10        11        12        13        14        15        16

                 9 A      10 A      11 A      12 A      13 A      14 A      15 A      16 A   

                   0.1       0.1       0.1       0.1       0.2       0.2       0.2       0.3
  
           1   -0.0695    0.0120   -0.0971   -0.0679    0.0819    0.1050    0.0411    0.0206
           2    0.0173   -0.0848    0.0415    0.0654   -0.0666   -0.0197   -0.0496   -0.0250
           3   -0.0720   -0.0059   -0.0163   -0.0684   -0.0690    0.0201    0.0291    0.0364
           4   -0.0685    0.0163   -0.0978   -0.0666    0.0912    0.1084    0.0418    0.0206
           5   -0.0145   -0.0703   -0.0414    0.0289   -0.0303    0.0128   -0.0287   -0.0294
           6   -0.0224   -0.0435   -0.0351    0.0140   -0.0728   -0.0986    0.0332    0.0304
           7   -0.0349   -0.0605    0.0333   -0.0131   -0.0388    0.1137    0.0067   -0.0045
           8   -0.0039   -0.0879   -0.0027    0.0415   -0.0668    0.0125   -0.0487   -0.0439
           9   -0.0324    0.0218   -0.0952   -0.0241    0.0003   -0.0925    0.0241    0.0301
          10   -0.0252   -0.0259   -0.0264   -0.0108    0.0401    0.0578   -0.0072   -0.0236
          11    0.0188   -0.1083    0.0471    0.0731   -0.1019   -0.0010   -0.0605   -0.0488
          12   -0.0885   -0.0364   -0.0217   -0.0854   -0.1306    0.0533    0.0769    0.0621
          13   -0.0820   -0.0182   -0.1650   -0.0938    0.1283    0.0820    0.1389    0.0585
          14    0.0245   -0.1414    0.0821    0.0913   -0.1639   -0.0244   -0.0786   -0.0661
          15   -0.0666    0.0855   -0.0156   -0.0727    0.0040    0.0439   -0.0210    0.0385
          16   -0.0172   -0.0437   -0.0046    0.0155    0.0186    0.0422   -0.0303   -0.0397
          17    0.0357   -0.1558    0.1152    0.1031   -0.1936    0.0021   -0.0789   -0.0728
          18   -0.1237   -0.0616    0.0156   -0.1655   -0.2145    0.2108    0.2060    0.1281
          19   -0.0908   -0.0294   -0.0224   -0.1417    0.0190   -0.0182    0.0250    0.0030
          20   -0.0241   -0.0854   -0.0383    0.0122   -0.0425   -0.0243   -0.0296   -0.0353
          21    0.0088   -0.0017   -0.0660    0.0808   -0.0297    0.0161    0.0281    0.0373
          22   -0.0812   -0.0392   -0.0029   -0.1202   -0.0020    0.0132    0.0229    0.0009
          23   -0.0403   -0.0452   -0.1222   -0.0147    0.0465   -0.0337   -0.0118   -0.0225
          24    0.0795    0.0092   -0.0682    0.2837   -0.0342    0.4739    0.0757    0.0796
          25   -0.1523   -0.0246   -0.0394   -0.3365    0.0463   -0.4420   -0.0064   -0.0180
          26   -0.0325   -0.1438    0.0164    0.0063   -0.1323   -0.1152   -0.0491   -0.0604
          27   -0.0066   -0.0041   -0.0694    0.0365   -0.0285   -0.0765    0.0248    0.0322
          28    0.0104    0.0182   -0.0045   -0.0036    0.1066    0.0072   -0.0239   -0.0453
          29   -0.0093   -0.0215   -0.0389   -0.0146    0.0155    0.0366   -0.0405   -0.0566
          30   -0.0051   -0.0225   -0.0181    0.0199   -0.0570   -0.1090    0.0138    0.0149
          31    0.1099    0.0670    0.5611   -0.2876   -0.0217   -0.0059   -0.0056    0.0082
          32    0.0349    0.0422    0.3503   -0.2830   -0.0653    0.1154   -0.0087    0.0008
          33    0.0580   -0.0138    0.2683   -0.0819   -0.1351   -0.1686    0.0138    0.0405
          34    0.0215   -0.0203   -0.0447    0.0811    0.0976   -0.0519   -0.0641   -0.0642
          35   -0.0026   -0.0465   -0.0589    0.0320    0.0036   -0.0165   -0.0638   -0.0594
          36   -0.0380    0.0016   -0.0731   -0.0162   -0.0362   -0.0720    0.0248    0.0355
          37    0.0783   -0.0251   -0.0729    0.1877    0.1916   -0.2282   -0.1785   -0.1670
          38    0.0037   -0.0234   -0.1234    0.0445    0.0755   -0.0678   -0.1089   -0.1062
          39   -0.0399    0.0183   -0.1153   -0.0187    0.0020   -0.0947    0.0091    0.0192
          40   -0.1070    0.0326   -0.1740   -0.1042    0.1362    0.2239    0.0830    0.0384
          41   -0.0290   -0.0773   -0.0804    0.0229   -0.0214    0.0351   -0.0117   -0.0234
          42   -0.0038   -0.0840   -0.0256    0.0559   -0.1122   -0.2124    0.0279    0.0241
          43   -0.0183   -0.1107    0.1273    0.0107   -0.1508    0.2627    0.0102   -0.0135
          44   -0.0004   -0.1050    0.0163    0.0509   -0.0942    0.0502   -0.0503   -0.0534
          45   -0.0467    0.0670   -0.1559   -0.0529    0.0732   -0.2110    0.0219    0.0479
          46    0.2133   -0.0345    0.0028    0.1002    0.0822    0.0062   -0.0855    0.0821
          47    0.0992    0.0461   -0.0373   -0.0121    0.0425    0.0016   -0.0013    0.0485
          48    0.0732   -0.0344    0.0701    0.0290    0.0187   -0.0181   -0.0604    0.0515
          49   -0.0477    0.0588   -0.0345    0.0237    0.0529    0.0922   -0.0401    0.0233
          50    0.0339    0.0322    0.0095    0.0199    0.0722    0.0081   -0.0124    0.0484
          51   -0.0598    0.0523    0.0029   -0.0425   -0.0343    0.0365   -0.0241    0.0356
          52    0.1862   -0.0692   -0.0604    0.0640   -0.1021   -0.0260    0.0827   -0.0432
          53    0.0963    0.0392   -0.0458   -0.0130    0.0077   -0.0078    0.0845   -0.0017
          54    0.1523   -0.0210    0.1249    0.0380    0.2087    0.0057    0.0598   -0.0990
          55   -0.0935    0.1810    0.0511    0.1297   -0.0466   -0.0310    0.0362    0.0120
          56    0.0241    0.0800    0.0139    0.0217    0.0788    0.0020   -0.0252    0.0212
          57   -0.0819    0.1404   -0.0163   -0.0615   -0.0222    0.0899   -0.1509   -0.1186
          58   -0.0382    0.1168   -0.0156    0.0068   -0.0806   -0.0869    0.1468    0.0304
          59    0.0178    0.1104   -0.0007    0.0190    0.0410    0.0197   -0.1349   -0.1726
          60   -0.0860    0.1508   -0.0132   -0.0503   -0.0279    0.1002   -0.1899   -0.1753
          61   -0.0494   -0.2237   -0.0376    0.1256   -0.2064   -0.0573    0.2769   -0.1754
          62    0.0553   -0.0139   -0.0328    0.0056    0.0262   -0.0030   -0.0636    0.1302
          63    0.4601    0.2337    0.0785   -0.0622    0.2928    0.0327    0.0968   -0.1812
          64   -0.1897    0.3729    0.1936    0.3955   -0.1139   -0.1210    0.1112    0.0073
          65   -0.0121    0.1317    0.0357    0.0493    0.0767   -0.0068    0.0155    0.1665
          66   -0.0644    0.1212   -0.0228   -0.0619   -0.0325    0.0974   -0.2006   -0.2395
          67    0.3891    0.0949   -0.1238   -0.0129   -0.1972   -0.0313    0.0566   -0.0344
          68    0.0690    0.1290   -0.0820   -0.0827   -0.0594   -0.0096    0.2359   -0.1427
          69   -0.1757   -0.2734    0.2263    0.1650    0.3504    0.0093    0.1423   -0.1508
          70    0.0713   -0.0143    0.0017    0.0338   -0.0465   -0.0064   -0.0990    0.0573
          71   -0.0904    0.0913   -0.0267   -0.0663    0.0073    0.0043    0.1524   -0.0854
          72   -0.0267   -0.0259    0.0287    0.0333    0.0641    0.0005   -0.0128   -0.0113
          73    0.0771   -0.0601    0.0338    0.0619    0.0080   -0.0085   -0.0198   -0.0114
          74   -0.2816    0.1266   -0.0161   -0.0947    0.0015    0.0263   -0.1439    0.1417
          75    0.0245    0.0289   -0.0193    0.0035   -0.0102   -0.0029   -0.0573    0.0327
          76    0.0784    0.0657   -0.0558   -0.0089   -0.1560   -0.0048   -0.2823    0.2101
          77   -0.2222   -0.0742    0.1282    0.0191    0.2637    0.0199    0.2882   -0.2222
          78    0.0094    0.0399   -0.0276   -0.0007   -0.0313   -0.0032   -0.1009    0.0676
          79   -0.1417   -0.1114    0.1147    0.0843    0.1164    0.0158   -0.2646    0.1551
          80    0.1081    0.2113   -0.1554   -0.1283   -0.1822   -0.0167    0.2578   -0.1360
          81   -0.0399    0.0115    0.0003    0.0136    0.0191    0.0010   -0.0908    0.0488
          82   -0.0129    0.0296    0.0183    0.0447   -0.0283   -0.0206    0.0194   -0.0224
          83    0.0268    0.0642    0.0148    0.0071    0.1034   -0.0019    0.0228    0.2041
          84    0.0299   -0.0460    0.0083    0.0101   -0.0010    0.0137   -0.0489   -0.0535
          85    0.0187   -0.0632   -0.0253   -0.0302   -0.0031   -0.0060    0.0211    0.0112
          86   -0.0454    0.1882   -0.0394   -0.1016    0.0847    0.1133   -0.2203   -0.0966
          87    0.0664   -0.1159    0.0192    0.0342    0.0154   -0.0267    0.0464    0.0789
          88    0.0169   -0.0077    0.0015    0.0010   -0.0214   -0.0048    0.0071   -0.0260
          89    0.1974   -0.2562   -0.0782   -0.1795    0.2113    0.0140    0.0762    0.4142
          90    0.0277   -0.0649    0.0126    0.0319    0.0114   -0.0062   -0.0163    0.0017
          91    0.0490   -0.0841   -0.0346   -0.0682   -0.0015    0.0203   -0.0204   -0.0506
          92   -0.0545    0.2486    0.1496    0.2765    0.0620   -0.1254    0.1878    0.3847
          93    0.0903   -0.1272    0.0189    0.0158    0.0192   -0.0123    0.0195    0.0555


   Root No.      17        18        19        20        21        22        23        24

                17 A      18 A      19 A      20 A      21 A      22 A      23 A      24 A   

                   0.4       0.5       0.5       0.6       0.6       0.7       0.7       0.7
  
           1   -0.0055    0.0077   -0.0173   -0.0130   -0.0179   -0.0114    0.0169   -0.0461
           2   -0.0098   -0.0235   -0.0806   -0.0086    0.0043    0.0179   -0.0389   -0.0204
           3   -0.0296   -0.1519   -0.0334   -0.0102    0.0078    0.0146   -0.0403   -0.0171
           4   -0.0047    0.0061   -0.0610    0.0119   -0.0200   -0.0027    0.0304   -0.0404
           5   -0.0019   -0.0089   -0.0255   -0.0182    0.0097    0.0044   -0.0465    0.0125
           6    0.0233    0.0387    0.0218   -0.0344    0.0504   -0.0046   -0.0132   -0.0248
           7   -0.0026   -0.0082   -0.0129   -0.0694   -0.0264    0.0215   -0.0010    0.0025
           8   -0.0093   -0.0307   -0.0317   -0.0380   -0.0095   -0.0076   -0.0081   -0.0211
           9    0.0174    0.0230   -0.0408    0.0037    0.0679   -0.0211    0.0067   -0.0185
          10   -0.0128   -0.0113   -0.0480   -0.0375   -0.0583   -0.0060    0.0113   -0.0189
          11   -0.0030   -0.0031   -0.0581    0.0057    0.0068    0.0052   -0.0218   -0.0008
          12    0.0254    0.0210   -0.0124    0.0085    0.0323   -0.0409    0.0219   -0.0389
          13    0.0573    0.3096    0.2119   -0.0520    0.1818    0.2833   -0.3697    0.0116
          14   -0.0040    0.0420   -0.2500    0.0231   -0.0289   -0.3280    0.3016   -0.1823
          15   -0.0762   -0.4140   -0.0203   -0.0216   -0.0922    0.1839   -0.1447    0.1015
          16   -0.0149   -0.0083   -0.1353   -0.0509   -0.1232    0.1114   -0.1077    0.1421
          17    0.0219    0.1014   -0.1676    0.1156   -0.2820    0.3068   -0.3141    0.3957
          18    0.1151    0.2852    0.3566    0.4141   -0.3803   -0.0527    0.0990   -0.1445
          19   -0.0039    0.0083   -0.0440   -0.0395   -0.0190    0.0246   -0.0150   -0.0258
          20   -0.0028   -0.0187   -0.0097    0.0022   -0.0231   -0.0009   -0.0187   -0.0211
          21    0.0237    0.0209   -0.0187   -0.0199    0.0676   -0.0259   -0.0157   -0.0506
          22   -0.0018    0.0147    0.0249   -0.1838   -0.0643    0.0198    0.0226    0.0237
          23   -0.0095   -0.0397   -0.3289    0.5375    0.1428    0.0400   -0.1817   -0.2486
          24    0.0254    0.0017   -0.0931   -0.0549   -0.0088    0.0391   -0.0406   -0.0882
          25    0.0146    0.0461   -0.1171    0.0696    0.1685   -0.0259   -0.0095   -0.0317
          26    0.0028   -0.0177    0.3381   -0.4884   -0.2365   -0.0810   -0.0890   -0.2990
          27    0.0290    0.0352   -0.0218   -0.0218    0.1083   -0.0428   -0.0207   -0.0712
          28   -0.0069    0.0343   -0.1017   -0.0378   -0.0431   -0.0197    0.0179   -0.0978
          29   -0.0109   -0.0011   -0.0243   -0.0873    0.0206   -0.0210   -0.0420   -0.0561
          30    0.0204    0.0352   -0.0198   -0.0320    0.0366   -0.0293   -0.0058   -0.0678
          31   -0.0131   -0.0160   -0.0103    0.0783   -0.0702   -0.1374   -0.0740    0.0881
          32   -0.0311   -0.0957    0.0681   -0.0740    0.0861    0.4263    0.2907   -0.1276
          33    0.0312    0.0402    0.0199    0.0538   -0.0081   -0.3661   -0.2647    0.1306
          34   -0.0206   -0.0318   -0.0469   -0.0117   -0.0585   -0.0043    0.0039   -0.0303
          35   -0.0155   -0.0285    0.0164   -0.0656   -0.0041   -0.0070   -0.0312   -0.0036
          36    0.0167   -0.0011   -0.0086   -0.0125    0.0682   -0.0113    0.0266   -0.0401
          37   -0.0757   -0.2277    0.3312    0.3467   -0.2459    0.1332    0.1747   -0.2026
          38   -0.0465   -0.1864    0.3994    0.0496    0.1394   -0.1424   -0.1274    0.2504
          39    0.0042   -0.0865    0.2145    0.0376    0.1893   -0.1212   -0.0487    0.1434
          40   -0.0218   -0.0739   -0.0447   -0.0005   -0.1308   -0.3493    0.2322    0.3852
          41    0.0026   -0.0152   -0.0157   -0.0085   -0.0122   -0.0622    0.2330    0.3561
          42    0.0650    0.1571    0.0298    0.0089    0.1604    0.3471    0.4935    0.2890
          43   -0.0002   -0.1183    0.0674   -0.0246    0.5395   -0.0383    0.0174   -0.1210
          44   -0.0103   -0.0711    0.0364    0.0344    0.1013   -0.0331   -0.0104   -0.0096
          45    0.0163    0.1526   -0.2925   -0.2649   -0.2523    0.0537    0.0110   -0.0989
          46    0.3881    0.0208    0.0113   -0.0044   -0.0128   -0.0228    0.0458   -0.0354
          47    0.2650    0.0072    0.0147   -0.0037    0.0157   -0.0073    0.0031    0.0017
          48    0.0422   -0.1682   -0.0234   -0.0050   -0.0219    0.0411   -0.0497    0.0150
          49    0.0168   -0.1159   -0.0677   -0.0039   -0.0842   -0.0019    0.0574   -0.0576
          50    0.0327   -0.0154   -0.0229   -0.0045   -0.0117    0.0130   -0.0094    0.0045
          51   -0.0390   -0.2494   -0.0448   -0.0042   -0.0512    0.0437   -0.0265   -0.0043
          52    0.0118    0.0457    0.0116    0.0030    0.0189   -0.0138    0.0123   -0.0029
          53    0.1969   -0.0079    0.0109   -0.0018    0.0200   -0.0039   -0.0014    0.0053
          54   -0.0307   -0.0037   -0.0046   -0.0048   -0.0036    0.0131   -0.0244    0.0130
          55    0.0193   -0.0657   -0.0264   -0.0031   -0.0357    0.0014    0.0185   -0.0285
          56   -0.0432    0.1198    0.0101   -0.0004    0.0217   -0.0130   -0.0015    0.0074
          57   -0.1071   -0.0181    0.0078    0.0060   -0.0153    0.0161   -0.0019   -0.0063
          58    0.0493   -0.0416    0.0190   -0.0027    0.0182    0.0151   -0.0184    0.0075
          59   -0.0233    0.4300    0.0614    0.0124    0.1030   -0.0576    0.0134    0.0456
          60   -0.1050    0.0645    0.0163    0.0096    0.0017    0.0022    0.0057    0.0009
          61   -0.3808    0.0350   -0.0030    0.0114    0.0076    0.0083   -0.0073    0.0031
          62    0.4303   -0.0407    0.0184    0.0045    0.0171   -0.0021   -0.0142    0.0115
          63    0.0042    0.0625   -0.0040   -0.0283    0.0108   -0.0130    0.0161   -0.0035
          64    0.0566    0.0146    0.0112    0.0002    0.0159   -0.0018   -0.0037    0.0017
          65   -0.1456    0.0293    0.0146    0.0045    0.0016    0.0009    0.0036   -0.0002
          66   -0.0525    0.0777    0.0070    0.0049    0.0047    0.0013    0.0014   -0.0011
          67   -0.0761    0.0107    0.0028    0.0011    0.0036    0.0010   -0.0059    0.0044
          68    0.0095   -0.0479   -0.0078   -0.0024   -0.0074   -0.0006    0.0009   -0.0016
          69    0.0288    0.0541    0.0020   -0.0091    0.0183   -0.0051    0.0014    0.0047
          70   -0.0460    0.0309    0.0053    0.0026    0.0048    0.0018   -0.0061    0.0065
          71    0.0582   -0.0638   -0.0106   -0.0021   -0.0152    0.0011    0.0046   -0.0070
          72    0.0071    0.0206    0.0001   -0.0058    0.0080   -0.0041    0.0031    0.0017
          73   -0.0629    0.0456    0.0051    0.0000    0.0084    0.0009   -0.0079    0.0114
          74    0.1651   -0.0908   -0.0066    0.0051   -0.0247    0.0051    0.0091   -0.0233
          75    0.0080    0.0130    0.0004   -0.0047    0.0089   -0.0045    0.0030    0.0015
          76   -0.0363    0.0310    0.0142    0.0127    0.0024    0.0101   -0.0185    0.0132
          77    0.1222   -0.0419   -0.0168   -0.0139   -0.0099   -0.0123    0.0204   -0.0076
          78   -0.0029    0.0149    0.0039   -0.0007    0.0067    0.0011   -0.0041    0.0039
          79    0.0145    0.0917    0.0159   -0.0019    0.0272   -0.0077   -0.0011    0.0121
          80    0.0163   -0.1276   -0.0202    0.0034   -0.0370    0.0105   -0.0018   -0.0100
          81    0.0235    0.0178    0.0010   -0.0051    0.0095   -0.0048    0.0008    0.0064
          82    0.0349   -0.0026    0.0008   -0.0012    0.0055   -0.0013   -0.0029    0.0034
          83   -0.1842    0.0472    0.0205    0.0053    0.0043   -0.0047    0.0085   -0.0019
          84   -0.0157    0.0195   -0.0090   -0.0008   -0.0010   -0.0041    0.0026   -0.0065
          85    0.0372   -0.0290    0.0037    0.0002    0.0036    0.0079   -0.0046    0.0133
          86   -0.2613    0.1876    0.0073    0.0054    0.0104   -0.0284    0.0268   -0.0367
          87    0.0019   -0.0403   -0.0030    0.0004   -0.0052    0.0060   -0.0048    0.0077
          88    0.0400    0.0087    0.0106    0.0027    0.0091    0.0033   -0.0046    0.0136
          89   -0.2870   -0.0330    0.0073    0.0006   -0.0290   -0.0121    0.0292   -0.0237
          90   -0.0410   -0.0158   -0.0242   -0.0062   -0.0127   -0.0105    0.0079   -0.0242
          91    0.0461   -0.0112   -0.0108   -0.0024   -0.0046    0.0007   -0.0034   -0.0043
          92   -0.2243    0.0449    0.0532    0.0086    0.0267   -0.0061    0.0128    0.0115
          93   -0.0292   -0.0067   -0.0068   -0.0006   -0.0047   -0.0010    0.0051   -0.0129


   Root No.      25        26        27        28        29        30        31        32

                25 A      26 A      27 A      28 A      29 A      30 A      31 A      32 A   

                   0.8       0.8       0.9       0.9       0.9       0.9       1.0       1.1
  
           1   -0.0454    0.0590    0.0321   -0.0129    0.0354    0.0074   -0.0160   -0.0561
           2   -0.0140   -0.0135   -0.0015    0.0067    0.1514    0.0746   -0.0365    0.0247
           3    0.0070   -0.0736   -0.0053   -0.0150    0.1768    0.0144    0.0965   -0.0232
           4   -0.0482    0.0392    0.0474   -0.0146   -0.0254    0.0030    0.0373   -0.0380
           5   -0.0088   -0.0091    0.0016    0.0150    0.0753    0.0631   -0.0917    0.0345
           6   -0.0036   -0.0783   -0.0413    0.0062   -0.0079   -0.0255    0.0132   -0.0123
           7   -0.0384    0.0440    0.0774   -0.0164    0.0433    0.0615    0.0624   -0.0009
           8   -0.0095    0.0059   -0.0120    0.0082    0.1361    0.0515   -0.1385   -0.1056
           9   -0.0261   -0.0779   -0.0456    0.0116   -0.0528   -0.0486   -0.0489   -0.0569
          10   -0.0535    0.0477    0.0852   -0.0149    0.0029    0.0364    0.0120   -0.1106
          11    0.0234   -0.0159   -0.0486    0.0108    0.1185    0.0243   -0.0656    0.0117
          12   -0.0338   -0.0414   -0.0326   -0.0117    0.0544   -0.0388    0.0495   -0.0596
          13    0.0363    0.0011   -0.3025    0.0062    0.3625   -0.0810    0.0036    0.0193
          14   -0.1606    0.0440   -0.1033   -0.0538    0.2224   -0.1098    0.2123   -0.0138
          15    0.0894   -0.0850    0.2868    0.0407   -0.0850    0.2785   -0.2014   -0.0512
          16   -0.0778    0.0217    0.0457   -0.0236   -0.1326   -0.0731    0.0960   -0.1323
          17    0.0043   -0.0680   -0.1504    0.0086   -0.2645   -0.2285    0.0704    0.0327
          18    0.0257    0.0828    0.0998    0.0192   -0.0784    0.1058   -0.1520   -0.0607
          19   -0.0721    0.0368    0.1004   -0.0222    0.0984    0.0818    0.1326    0.0693
          20   -0.0157    0.0093    0.0246   -0.0004    0.0561    0.0403   -0.0269   -0.0034
          21   -0.0683   -0.1292   -0.0461    0.0218   -0.1310   -0.0475   -0.0715   -0.0211
          22   -0.1499    0.0046    0.1033   -0.0136    0.1716    0.1343    0.1033    0.1171
          23    0.1832    0.1440    0.1508   -0.0502   -0.1712   -0.0271    0.2692    0.0591
          24   -0.2205   -0.0911    0.1459   -0.0033    0.0052    0.1387    0.2037    0.3907
          25   -0.2252   -0.2455    0.0168    0.0406   -0.1360    0.0638   -0.0084    0.2828
          26    0.1189    0.0118    0.0636   -0.0286   -0.3232   -0.1171    0.2237    0.0982
          27   -0.1076   -0.2193   -0.0688    0.0408   -0.2308   -0.0678   -0.0948    0.0528
          28   -0.1278    0.0624    0.0981    0.0115   -0.1787    0.0126   -0.2054   -0.2774
          29   -0.0506   -0.0198    0.0119    0.0343   -0.0313    0.0448   -0.2598   -0.1507
          30   -0.0297   -0.0891   -0.0456    0.0211   -0.0532   -0.0334   -0.1206   -0.1157
          31    0.0191    0.1327    0.0620   -0.0152    0.0242    0.0272    0.0516    0.0286
          32   -0.0143   -0.2163   -0.0728   -0.0049   -0.0627   -0.0676    0.1121    0.0190
          33    0.0833    0.0540   -0.0569    0.0222    0.1553    0.0405   -0.1159    0.0706
          34   -0.0543    0.0292    0.0574   -0.0045   -0.0422    0.0244   -0.0476   -0.1470
          35    0.0063    0.0269    0.0106    0.0160    0.0738    0.0670   -0.1577   -0.0618
          36   -0.0391   -0.0706   -0.0456    0.0016   -0.0394   -0.0541   -0.0271   -0.0907
          37    0.1778   -0.2145   -0.1569    0.0146    0.1495   -0.0170    0.0065    0.1027
          38   -0.0851    0.2959    0.1563   -0.0421   -0.0103    0.0339    0.1632    0.0727
          39   -0.1307    0.1238    0.0659   -0.0424   -0.1338   -0.0930    0.2041   -0.0383
          40    0.2397   -0.3079   -0.1656    0.0320   -0.1194   -0.0812    0.0924    0.0373
          41    0.1473   -0.0560   -0.0555    0.0326    0.0376    0.0546   -0.0834    0.0997
          42   -0.0180    0.3385    0.1304   -0.0246   -0.0030    0.0467    0.0107    0.0196
          43    0.5001    0.0815   -0.0511    0.0207   -0.1672   -0.0478   -0.1076    0.0225
          44   -0.1316   -0.0734   -0.0449    0.0186    0.1050    0.0225   -0.1976   -0.1673
          45    0.5220    0.2201    0.0386   -0.0126    0.1068    0.0597    0.0287    0.0672
          46   -0.0607    0.1636   -0.1108    0.0836   -0.0853   -0.1995   -0.0713    0.0566
          47    0.0123   -0.0219    0.0108    0.0582   -0.0120    0.0158    0.0276   -0.0235
          48    0.0230   -0.0417   -0.0457    0.0302    0.1357   -0.0129    0.0518    0.0373
          49   -0.1013    0.2415   -0.0086    0.0013   -0.0260   -0.1544   -0.1827    0.0513
          50    0.0092   -0.0195    0.0804    0.0290    0.0352    0.1055   -0.0485    0.0282
          51   -0.0136    0.0250   -0.0298   -0.0090    0.1192   -0.0464    0.0159   -0.0122
          52   -0.0041    0.0046    0.0051    0.1143   -0.0266   -0.0339    0.0228   -0.0341
          53    0.0178   -0.0527    0.0284    0.0839    0.0091    0.0675    0.0484   -0.0450
          54    0.0280   -0.0547    0.0297    0.0824    0.0853    0.0436    0.0521    0.0307
          55   -0.0538    0.1230   -0.0225   -0.0036   -0.0137   -0.1168   -0.1431    0.1045
          56    0.0213   -0.0433    0.0830    0.0252   -0.0070    0.0553   -0.0310    0.0363
          57   -0.0205    0.0515   -0.0420   -0.0533    0.0854   -0.2535    0.0349   -0.0495
          58    0.0107   -0.0318   -0.0652    0.0047    0.0059    0.0457    0.0763   -0.0397
          59    0.1094   -0.2689    0.4444   -0.0149    0.0166    0.0055   -0.0577    0.0574
          60   -0.0024    0.0058    0.0574   -0.0639    0.0938   -0.2859    0.0108   -0.0288
          61    0.0056   -0.0046    0.0632    0.3042    0.0330   -0.0100    0.0163    0.0061
          62    0.0358   -0.0962   -0.0121   -0.1018    0.0435    0.0969    0.0780   -0.0407
          63   -0.0083    0.0294    0.0342    0.1827   -0.0349   -0.0373    0.0151   -0.0188
          64    0.0021   -0.0001    0.0023    0.0085   -0.0270   -0.0226   -0.1496    0.2485
          65   -0.0043    0.0103   -0.0049   -0.0098    0.0209   -0.0396   -0.0079    0.0303
          66   -0.0064    0.0180   -0.0049   -0.0298    0.0499   -0.1547    0.0187   -0.0355
          67    0.0102   -0.0196    0.0168    0.0820    0.0024    0.0012    0.0318   -0.0640
          68    0.0000   -0.0016    0.0058    0.0305    0.0014    0.0027    0.0172   -0.0337
          69    0.0057   -0.0157    0.0090    0.0524    0.0297    0.0109    0.0185    0.0799
          70    0.0078   -0.0200   -0.0008   -0.0724    0.0020    0.0190   -0.0013   -0.0031
          71   -0.0108    0.0242   -0.0231   -0.0314    0.0003   -0.0161   -0.0090    0.0031
          72   -0.0003   -0.0028   -0.0033   -0.0488   -0.0128    0.0042   -0.0042    0.0034
          73    0.0126   -0.0385   -0.0177   -0.2804    0.0057    0.0604   -0.0278    0.0660
          74   -0.0256    0.0808    0.0145    0.5921    0.0576   -0.1324    0.0529    0.0428
          75    0.0008   -0.0024    0.0083    0.0184   -0.0358   -0.0095    0.0144   -0.1077
          76    0.0229   -0.0572   -0.0033   -0.2339    0.0389    0.0893   -0.0258    0.1026
          77   -0.0325    0.0585   -0.0757   -0.3175   -0.0820   -0.0520   -0.0586   -0.0461
          78    0.0091   -0.0222    0.0089   -0.0263    0.0160    0.0336    0.0017    0.0427
          79    0.0201   -0.0482    0.0488    0.0005   -0.0479    0.0551    0.0253   -0.1290
          80   -0.0206    0.0416   -0.0877   -0.2825    0.0285   -0.0263   -0.0587    0.0956
          81    0.0018   -0.0177   -0.0222   -0.2978   -0.0479    0.0379   -0.0361   -0.0480
          82    0.0077   -0.0205    0.0056    0.0041   -0.0077    0.0268   -0.0032    0.0077
          83   -0.0074    0.0195   -0.0347   -0.0077   -0.0018   -0.0172    0.0208    0.0021
          84   -0.0112    0.0273   -0.0588    0.0122   -0.0194    0.0445    0.0026    0.0017
          85    0.0238   -0.0545    0.0140   -0.0063    0.0380    0.0656    0.2007   -0.2850
          86   -0.0715    0.1870   -0.4196    0.0725   -0.2094    0.3455    0.0508    0.0325
          87    0.0126   -0.0305    0.0653   -0.0187    0.0639   -0.0767    0.0400   -0.0678
          88    0.0242   -0.0583    0.0890   -0.0265    0.0610   -0.0951    0.0573   -0.1043
          89   -0.0435    0.0732    0.0900   -0.0610   -0.0047   -0.3426   -0.2334    0.2137
          90   -0.0408    0.0913   -0.1623    0.0445   -0.1137    0.1601   -0.1130    0.1803
          91   -0.0081    0.0286   -0.0655    0.0320   -0.0388    0.1167   -0.0382    0.0986
          92    0.0173   -0.0567   -0.0296   -0.0357   -0.0092    0.0051    0.2159   -0.3028
          93   -0.0274    0.0756   -0.2233    0.0491   -0.0974    0.2665    0.1027   -0.0786


   Root No.      33        34        35        36        37        38        39        40

                33 A      34 A      35 A      36 A      37 A      38 A      39 A      40 A   

                   1.1       1.1       1.4       1.5       1.6       1.7       1.7       1.8
  
           1   -0.0123   -0.0499    0.0794   -0.0785   -0.0604    0.0138    0.0133    0.0595
           2    0.0214   -0.0222    0.0770   -0.1142    0.0444    0.0316    0.0395    0.0632
           3    0.0247   -0.1325    0.0625   -0.0495    0.0339    0.0172   -0.0207    0.0378
           4   -0.0256   -0.0728    0.0630   -0.0612   -0.0338    0.0179    0.0271    0.0752
           5    0.0317    0.1102   -0.0577   -0.0187    0.0387   -0.0070   -0.0110    0.0144
           6   -0.0019   -0.0585    0.0548    0.0364   -0.0326    0.0103    0.0099    0.0066
           7    0.0045   -0.0314   -0.0270    0.0964    0.0274   -0.0112   -0.0011   -0.0693
           8    0.0070    0.0025   -0.0146    0.1357   -0.0393   -0.0219   -0.0042   -0.0668
           9   -0.0205   -0.0441    0.0675    0.0529   -0.0676   -0.0015    0.0201   -0.0123
          10   -0.0364   -0.0667   -0.0662    0.0796    0.0497   -0.0199   -0.0320   -0.1162
          11    0.0300    0.0228    0.0535   -0.0147   -0.0302    0.0133    0.0249    0.0236
          12   -0.0006   -0.1197    0.0798    0.1694   -0.0854   -0.0113    0.0155   -0.0296
          13    0.0240   -0.0806    0.0467   -0.1553    0.0878    0.0249    0.0030    0.0496
          14   -0.0024   -0.1596    0.0501   -0.2122    0.0636    0.0394   -0.0068    0.1126
          15    0.0253   -0.0123    0.1249    0.0245   -0.0449    0.0315    0.0590    0.0901
          16   -0.0616   -0.1206   -0.0738    0.1320    0.0411   -0.0376   -0.0536   -0.1613
          17   -0.0026    0.0038    0.0550   -0.0793   -0.0726    0.0134    0.0079    0.1002
          18   -0.0251    0.0549   -0.0931   -0.0690    0.0851    0.0019   -0.0125   -0.0221
          19    0.0368   -0.0233    0.0246    0.1568   -0.0728   -0.0006    0.0259    0.0184
          20    0.0200    0.0321   -0.0204    0.0738   -0.0229   -0.0104   -0.0018   -0.0062
          21   -0.0275    0.0135    0.0153   -0.1007    0.0426    0.0073   -0.0027   -0.0070
          22    0.0682    0.0402    0.0053    0.2167   -0.1038   -0.0055    0.0331    0.0373
          23   -0.0069   -0.0679   -0.0161    0.1215   -0.0148   -0.0075    0.0052   -0.0417
          24    0.1291    0.2841   -0.0894    0.0338   -0.0068   -0.0126   -0.0098   -0.0005
          25    0.0767    0.3153   -0.1276   -0.0930    0.0568   -0.0098   -0.0312   -0.0157
          26   -0.0216   -0.0122    0.0099   -0.0426    0.0025    0.0032    0.0049   -0.0054
          27   -0.0192    0.1128   -0.0156   -0.2208    0.0904    0.0116   -0.0219   -0.0196
          28   -0.1385   -0.0451   -0.1686   -0.1503    0.1730    0.0109   -0.0158    0.0937
          29   -0.0420    0.0983   -0.1479   -0.0089    0.0274   -0.0077   -0.0364    0.0528
          30   -0.0348   -0.0479    0.0332    0.0657   -0.0680    0.0054    0.0082    0.0342
          31   -0.0020    0.0131   -0.0341   -0.1050    0.0864    0.0066   -0.0002    0.0094
          32    0.0013   -0.0933    0.0614    0.0706   -0.0441    0.0010    0.0072   -0.0257
          33    0.0752    0.1129    0.0700    0.1452   -0.1722   -0.0141    0.0008   -0.0102
          34   -0.0669   -0.0693   -0.0965    0.0418    0.1176   -0.0142   -0.0122   -0.0946
          35    0.0070    0.0895   -0.0908    0.0822   -0.0067   -0.0224   -0.0286   -0.0593
          36   -0.0291   -0.1076    0.0935    0.1307   -0.0802   -0.0073    0.0400   -0.0170
          37    0.0755    0.0532    0.0458    0.0505   -0.0750   -0.0024    0.0024    0.0329
          38    0.0070    0.0203   -0.0747   -0.1067    0.0733    0.0056   -0.0357    0.0133
          39   -0.0533   -0.2151    0.1431    0.0343   -0.0330    0.0126    0.0630    0.0270
          40   -0.0230   -0.0948    0.0497    0.0161   -0.0073    0.0178    0.0243    0.0009
          41    0.0408    0.1705   -0.1292    0.0000    0.0987   -0.0215   -0.0298   -0.0417
          42   -0.0067    0.0290   -0.0145   -0.0438   -0.0109    0.0023   -0.0003    0.0164
          43   -0.0111    0.1047   -0.0477   -0.0463    0.0101   -0.0037   -0.0100    0.0245
          44   -0.0095   -0.0225    0.0136    0.2085   -0.0924   -0.0312    0.0039   -0.1001
          45    0.0397    0.0643   -0.0339   -0.0014    0.0137   -0.0035   -0.0093   -0.0132
          46   -0.0526    0.1997    0.1985    0.3227    0.1632   -0.0110    0.0638    0.0278
          47    0.0313   -0.0340   -0.0570    0.0009   -0.1175    0.0983   -0.0598   -0.0059
          48   -0.0854   -0.0167    0.0807    0.0305    0.4457   -0.0315    0.0576   -0.0162
          49    0.0144    0.1520    0.3482   -0.2492   -0.2318    0.0009    0.0309    0.1042
          50   -0.0179   -0.0546    0.1271   -0.2311   -0.0043    0.0648    0.0363    0.0123
          51    0.0129   -0.0291    0.0305   -0.1699    0.0519    0.0060   -0.0450    0.0277
          52    0.0728    0.0017   -0.0402    0.0729   -0.1112    0.0415   -0.0526    0.0157
          53    0.0437   -0.1056   -0.1524   -0.0956   -0.1564    0.1077   -0.0855   -0.0236
          54   -0.1394   -0.0639   -0.0350   -0.1047    0.2179   -0.0063    0.0286   -0.0571
          55    0.0257    0.0300    0.1794   -0.1352   -0.1013   -0.0235    0.0041   -0.0535
          56   -0.0123   -0.0415    0.1034   -0.1238   -0.0434    0.0622    0.0259   -0.0256
          57    0.0315    0.0999   -0.2148    0.0063   -0.0229   -0.0482   -0.1764   -0.0207
          58    0.0152   -0.0437   -0.1817    0.0522    0.0088    0.0198   -0.0216   -0.0224
          59   -0.0634   -0.0809    0.3835    0.0990    0.1170   -0.0960   -0.0131    0.0521
          60    0.0199    0.0987   -0.1052    0.0473    0.0068   -0.0946   -0.1882   -0.0027
          61   -0.0071   -0.0156    0.0385   -0.0218    0.0462    0.1960   -0.0697   -0.0234
          62   -0.0090   -0.1328   -0.2063   -0.1127   -0.0466   -0.0750   -0.0110   -0.0340
          63    0.0335    0.0016   -0.0323    0.0217   -0.1519    0.1340   -0.0834   -0.0012
          64    0.0632   -0.2858   -0.1138    0.0430    0.0075   -0.0054    0.0040   -0.3576
          65    0.0135   -0.0337   -0.0139   -0.0799   -0.0011   -0.0103   -0.1130   -0.0774
          66    0.0131    0.0799   -0.1550    0.0161   -0.0224    0.0066   -0.0234    0.0119
          67    0.1975   -0.0381   -0.0135   -0.0111    0.0349    0.0105   -0.0268    0.0257
          68    0.0951   -0.0359   -0.0567   -0.0889   -0.1202   -0.0478   -0.0129    0.0071
          69   -0.3279   -0.0106   -0.0873   -0.0182   -0.0502   -0.0345    0.0224   -0.0684
          70    0.0144   -0.0073    0.0011   -0.0195    0.0805   -0.2525    0.1414   -0.0163
          71    0.0032    0.0043   -0.0181   -0.0564   -0.0423   -0.1943    0.0862   -0.0045
          72   -0.0249    0.0027   -0.0343    0.0096   -0.1789   -0.1332    0.0104    0.0848
          73   -0.2323    0.0007   -0.0634   -0.0245   -0.2152   -0.3074    0.0957    0.0833
          74   -0.1618    0.0411    0.0259    0.1012    0.0760    0.0436   -0.0212    0.0196
          75    0.3754   -0.0245    0.0321   -0.0407    0.1844   -0.2929    0.1803   -0.0433
          76   -0.3505   -0.0075   -0.0193    0.0010   -0.0235    0.3897   -0.1722   -0.0437
          77    0.2303    0.0804    0.1102    0.1398    0.0210    0.1997   -0.1092    0.0727
          78   -0.1782   -0.0185   -0.0834   -0.0395   -0.2815   -0.1090   -0.0185    0.0857
          79    0.4035   -0.0784   -0.0350   -0.1164    0.0098   -0.0656    0.0440   -0.0482
          80   -0.2359    0.0777    0.0899    0.0458    0.2782   -0.1186    0.1335   -0.0812
          81    0.2018    0.0104    0.0806    0.0571    0.1486    0.4323   -0.1673   -0.0458
          82    0.0020   -0.0484   -0.0830    0.0711    0.0605    0.0141    0.0106    0.3437
          83    0.0046    0.0046    0.0010   -0.0425   -0.0023    0.0085   -0.0554    0.0018
          84    0.0003    0.0048   -0.0650   -0.0100   -0.0311    0.1626    0.3442   -0.0198
          85   -0.0734    0.2957    0.1884   -0.0946   -0.0624   -0.0789   -0.1345   -0.2988
          86   -0.0077   -0.0097    0.0329    0.0898   -0.0232    0.0814    0.2892   -0.1178
          87   -0.0086    0.0843   -0.0361   -0.1054   -0.0613    0.1646    0.2791   -0.1408
          88   -0.0163    0.1103   -0.1191    0.0127   -0.0282    0.2071    0.4406    0.1110
          89    0.0700   -0.1262   -0.1027    0.1128   -0.0122   -0.0465    0.0148   -0.1645
          90    0.0356   -0.2263   -0.0743    0.1185    0.0945   -0.0410   -0.0759    0.3815
          91    0.0150   -0.1374    0.0418   -0.0041    0.0654   -0.1220   -0.3307    0.2080
          92   -0.0648    0.2746   -0.0361    0.1466    0.0518   -0.0554   -0.0443    0.3358
          93   -0.0349    0.0732    0.2009   -0.0264   -0.0135   -0.1646   -0.2840   -0.2562


   Root No.      41        42        43        44        45        46        47        48

                41 A      42 A      43 A      44 A      45 A      46 A      47 A      48 A   

                   1.8       1.9       1.9       2.1       2.3       2.4       2.5       2.8
  
           1   -0.0075   -0.0650   -0.0447   -0.1154    0.0203   -0.0506    0.0835    0.0471
           2    0.0567    0.0686   -0.0048   -0.0798   -0.0827   -0.0546    0.0786   -0.2052
           3    0.0915    0.0080   -0.0497   -0.1675   -0.1320   -0.0668    0.0088    0.2186
           4   -0.0505    0.0319   -0.0828   -0.0541    0.0266   -0.0486    0.0707   -0.0055
           5    0.0207    0.1083    0.0468   -0.0431   -0.1366    0.2490   -0.0001    0.0865
           6   -0.0171   -0.0826   -0.1760    0.0121   -0.0444   -0.0163    0.0291   -0.0702
           7    0.0702   -0.1476   -0.0181    0.0153   -0.0662    0.1051    0.0025   -0.1981
           8    0.0321   -0.0559    0.1877    0.0004    0.1077   -0.1730   -0.0020   -0.0071
           9   -0.0417    0.0492    0.1243    0.0346    0.0126    0.1156   -0.0108   -0.0190
          10    0.1193   -0.2482    0.0434   -0.0064   -0.0145    0.0409   -0.0300    0.0482
          11    0.0245    0.0074    0.0776   -0.0611   -0.0200   -0.0752    0.0747   -0.3041
          12   -0.0124    0.0461    0.1613   -0.0424   -0.0384    0.0517   -0.0077    0.1613
          13    0.0848    0.0171    0.0150   -0.0795   -0.0434   -0.0832   -0.0087    0.0148
          14    0.0640    0.0254   -0.1365   -0.1797   -0.1161   -0.0901    0.0572    0.1223
          15    0.0708    0.0433   -0.0336   -0.2654   -0.1668   -0.1297    0.1699   -0.0463
          16    0.1236   -0.3328    0.0252    0.0181   -0.0047    0.1197   -0.1140    0.4309
          17   -0.1104    0.1543   -0.0642   -0.0178    0.0410   -0.0676    0.0282   -0.0167
          18    0.0534   -0.0326   -0.0046    0.0237   -0.0013   -0.0222   -0.0101   -0.0087
          19   -0.1135    0.0983   -0.1142    0.0771   -0.0656    0.1806    0.0074   -0.1298
          20   -0.0187    0.0658    0.0563   -0.0044   -0.0214    0.0530    0.0018    0.0837
          21    0.0766   -0.0973   -0.0229   -0.0584   -0.1300    0.2173    0.0418   -0.1365
          22   -0.1877    0.2113   -0.1370    0.1277   -0.0738    0.2574    0.0033   -0.1684
          23   -0.0251   -0.0415   -0.0508    0.0732   -0.0130    0.0760   -0.0174   -0.1085
          24   -0.0398    0.0685    0.0617    0.0365    0.1299   -0.2066   -0.0383    0.1068
          25    0.0415   -0.0225    0.0863   -0.0124    0.1242   -0.2514   -0.0280    0.1262
          26    0.0022    0.0060    0.0752    0.0091    0.0470   -0.0393   -0.0120   -0.0053
          27    0.1700   -0.2008    0.0468   -0.1434   -0.1720    0.2343    0.0704   -0.2052
          28   -0.0853    0.3946   -0.1059    0.0686   -0.0030   -0.1084   -0.0096    0.0889
          29   -0.1309    0.1185   -0.2792    0.0744    0.0115    0.0166   -0.0262    0.1926
          30   -0.1360    0.0111   -0.2914    0.1173    0.0470   -0.0798   -0.0156    0.0220
          31    0.0906    0.1447    0.2838   -0.0920   -0.0445   -0.0053    0.0241   -0.0594
          32   -0.0126   -0.1513   -0.1566    0.0481    0.0078    0.0065   -0.0129   -0.0037
          33   -0.1168   -0.1992   -0.2528    0.0784    0.0751    0.0372   -0.0262    0.0861
          34    0.1047   -0.0723    0.0967    0.0572    0.0046   -0.0324   -0.0137   -0.2544
          35    0.0008   -0.1734   -0.0947    0.0563    0.0642   -0.0105   -0.0114   -0.1058
          36   -0.0704    0.1336    0.1739    0.0897    0.0622    0.0402   -0.0310   -0.0357
          37   -0.0571    0.0821    0.0150   -0.0197   -0.0076    0.0357   -0.0089    0.1260
          38    0.0587   -0.1579   -0.2065   -0.0693   -0.0244   -0.0974    0.0296   -0.0044
          39   -0.0502    0.2729    0.2508    0.0577    0.0199    0.0186   -0.0313    0.0342
          40   -0.0285   -0.0512   -0.0934    0.0556    0.0909   -0.2351    0.0259   -0.1748
          41    0.0649    0.1415    0.1731    0.0065   -0.1700    0.3763   -0.0856    0.1690
          42   -0.0211   -0.0603   -0.0591   -0.0045    0.0837   -0.1308    0.0199   -0.0451
          43   -0.0417    0.0730   -0.0252    0.0201    0.0258   -0.0034   -0.0170    0.0917
          44    0.0165   -0.0588    0.3413    0.0252    0.1977   -0.2481   -0.0111   -0.0339
          45    0.0414    0.0014    0.1100   -0.0417    0.0360   -0.1091    0.0068    0.0231
          46    0.0688    0.0132   -0.0313    0.0563   -0.3051   -0.1563   -0.0217   -0.0305
          47   -0.0424   -0.0259    0.0329    0.0322   -0.2488   -0.1087   -0.0120    0.0274
          48    0.1660    0.0692   -0.0876    0.2467    0.0054   -0.0579   -0.1976    0.0027
          49   -0.0950   -0.1359    0.0784   -0.0253    0.1715    0.1260   -0.0933    0.0395
          50   -0.0237   -0.0570    0.0130    0.1950    0.0675    0.0214   -0.0654   -0.0425
          51    0.0291   -0.0094   -0.0190    0.0563    0.0610    0.0175   -0.1434    0.1447
          52    0.0112    0.0179    0.0053   -0.2126    0.0819    0.0582    0.2011    0.0577
          53   -0.0864   -0.0120    0.0176   -0.0421   -0.0283   -0.0040   -0.0567    0.0437
          54   -0.0491    0.0007   -0.0192    0.0902    0.3126    0.1241   -0.1434   -0.1281
          55   -0.0282   -0.0372    0.0412    0.0291    0.0899    0.1139   -0.1570   -0.0120
          56   -0.0274   -0.0532    0.0699    0.2178   -0.0342    0.0078    0.0607   -0.0560
          57   -0.0536    0.0110    0.0218    0.0362   -0.0320   -0.0193    0.0834   -0.0876
          58   -0.0007    0.0274   -0.0193   -0.0206   -0.0444   -0.0476    0.0720   -0.0078
          59    0.0797    0.0230   -0.0448   -0.1250    0.0300    0.0066   -0.0817    0.1419
          60   -0.0271    0.0241    0.0025   -0.0597   -0.0049   -0.0046    0.0212   -0.0467
          61   -0.0316   -0.0131    0.0124    0.0913   -0.0749   -0.0419   -0.0808   -0.0139
          62   -0.0522    0.0208   -0.0122   -0.1389    0.3286    0.1574   -0.0017   -0.0257
          63   -0.0685   -0.0288    0.0376   -0.0853   -0.1229   -0.0373    0.0476    0.0522
          64    0.0625    0.1386   -0.1164   -0.0812   -0.0302   -0.0612    0.0267   -0.0017
          65   -0.0165   -0.0133    0.0360    0.2453   -0.0574   -0.0155    0.2293    0.0408
          66   -0.0380    0.0039    0.0084   -0.0268    0.0069   -0.0060   -0.0366   -0.1553
          67    0.1747    0.0667   -0.0559    0.0135    0.2658    0.1134    0.0152   -0.0385
          68    0.0195   -0.0027    0.0217    0.0533   -0.0791   -0.0344   -0.2737   -0.0550
          69   -0.3038   -0.0860    0.0757   -0.1960   -0.0252    0.0180    0.0743    0.0243
          70   -0.0878   -0.0258    0.0046   -0.0387    0.0565    0.0328    0.2048    0.0307
          71   -0.0681   -0.0335    0.0308    0.0615   -0.2056   -0.0960   -0.2571   -0.0309
          72    0.2795    0.0701   -0.0538    0.0702    0.0309    0.0056    0.0309    0.0031
          73    0.2303    0.0485   -0.0422    0.0666    0.0138    0.0050    0.1566    0.0300
          74    0.1088    0.0462   -0.0451   -0.0612    0.1969    0.0860    0.1838    0.0148
          75   -0.1706   -0.0475    0.0177   -0.0337    0.0271    0.0196    0.1696    0.0294
          76   -0.1161   -0.0269    0.0346   -0.0342   -0.0245   -0.0053   -0.0818   -0.0090
          77    0.3186    0.0981   -0.0810    0.0428    0.1384    0.0469    0.1013    0.0068
          78    0.2658    0.0582   -0.0335    0.1220   -0.1114   -0.0630   -0.1990   -0.0256
          79   -0.1974   -0.0630    0.0560    0.0289   -0.1791   -0.0774   -0.2190   -0.0232
          80   -0.3039   -0.0814    0.0433   -0.0808   -0.0338   -0.0082    0.0975    0.0185
          81   -0.0738   -0.0054    0.0067   -0.0439    0.0775    0.0361    0.0281    0.0024
          82   -0.0362   -0.1011    0.0639   -0.0040    0.0192    0.0182   -0.0470   -0.0106
          83   -0.0138   -0.0534    0.0739    0.2802   -0.0720   -0.0011    0.3165    0.1022
          84    0.0423   -0.0157   -0.0074    0.0178    0.0054    0.0076    0.0031    0.0302
          85    0.0117    0.1130   -0.0742   -0.0721   -0.0023   -0.0239   -0.0431   -0.0410
          86    0.0717    0.0391   -0.0495   -0.1155    0.0246    0.0141   -0.0444    0.0545
          87    0.0368   -0.0155    0.0254    0.2291   -0.0544   -0.0015    0.2516    0.1116
          88    0.0359   -0.0502    0.0063   -0.0444    0.0312    0.0194   -0.0932    0.0072
          89    0.0307    0.1051   -0.0973   -0.2482    0.0383   -0.0117   -0.1625   -0.0617
          90   -0.0383   -0.1005    0.0580   -0.0473    0.0335    0.0237   -0.0947   -0.0098
          91   -0.0651   -0.0854    0.0927    0.1875   -0.0385    0.0056    0.1729    0.0399
          92   -0.0384   -0.0568    0.0259   -0.1546    0.0423    0.0177   -0.1254   -0.0385
          93    0.0053    0.1102   -0.0718   -0.1024    0.0091   -0.0161   -0.0706   -0.0330


   Root No.      49        50        51        52        53        54        55        56

                49 A      50 A      51 A      52 A      53 A      54 A      55 A      56 A   

                   3.0       3.1       3.3       3.7       3.8       4.1       4.6       4.8
  
[...]
 FREQUENCY          1795.46         C 18 -- O 21         +48.8% ( 99.1%)    100.0%
 TRANSITION DIPOLE   7.0846         C 18 -- O 23         +21.0% ( 65.0%)     39.4%
 TRAVEL (Ang.)       0.0794         N 16 -- C 18         +19.2% ( 62.2%)     24.6%
 REDUCED MASS        5.9531         N 16 -- N 17          +6.0% ( 34.8%)    100.0%
 EFFECTIVE MASS     13.4683
 FORCE CONSTANT     11.3070

 VIBRATION         72   72A           ATOM PAIR      ENERGY CONTRIBUTION    RADIAL
 FREQUENCY          1829.45         C 19 -- O 20         +50.4% ( 98.9%)     99.9%
 TRANSITION DIPOLE   8.4269         C 19 -- O 22         +21.9% ( 65.2%)     45.6%
 TRAVEL (Ang.)       0.0768         N 17 -- C 19         +21.3% ( 64.3%)     23.1%
 REDUCED MASS        6.2478         N 16 -- N 17          +3.9% ( 27.5%)     98.3%
 EFFECTIVE MASS     13.4423
 FORCE CONSTANT     12.3202

 VIBRATION         73   73A           ATOM PAIR      ENERGY CONTRIBUTION    RADIAL
 FREQUENCY          2519.74         N 16 -- N 17         +28.3% ( 66.2%)     96.0%
 TRANSITION DIPOLE   3.8187         C 10 -- H 11         +16.1% ( 49.9%)     99.2%
 TRAVEL (Ang.)       0.1333         N 16 -- C 18         +12.3% ( 43.8%)     75.3%
 REDUCED MASS        1.5064         N 17 -- C 19         +11.1% ( 41.4%)     61.0%
 EFFECTIVE MASS      9.3207
 FORCE CONSTANT      5.6351

 VIBRATION         74   74A           ATOM PAIR      ENERGY CONTRIBUTION    RADIAL
 FREQUENCY          2644.81         C 28 -- H 30         +59.2% ( 80.0%)     99.2%
 TRANSITION DIPOLE   0.7666         C 28 -- H 31         +36.9% ( 63.2%)     96.4%
 TRAVEL (Ang.)       0.2242         C 28 -- H 29          +2.8% ( 17.4%)     41.4%
 REDUCED MASS        0.5070         O 22 -- C 28          +0.9% ( 10.0%)      0.3%
 EFFECTIVE MASS      1.4730
 FORCE CONSTANT      2.0896

 VIBRATION         75   75A           ATOM PAIR      ENERGY CONTRIBUTION    RADIAL
 FREQUENCY          2651.60         C 24 -- H 27         +42.2% ( 67.5%)     98.8%
 TRANSITION DIPOLE   0.3171         C 24 -- H 26         +32.4% ( 59.1%)     97.2%
 TRAVEL (Ang.)       0.2814         C 28 -- H 29         +14.7% ( 39.9%)     99.7%
 REDUCED MASS        0.3212         C 28 -- H 31          +6.4% ( 26.4%)     93.8%
 EFFECTIVE MASS      1.4712
 FORCE CONSTANT      1.3304

 VIBRATION         76   76A           ATOM PAIR      ENERGY CONTRIBUTION    RADIAL
 FREQUENCY          2652.59         C 28 -- H 29         +46.4% ( 70.8%)     99.6%
 TRANSITION DIPOLE   0.8700         C 28 -- H 31         +21.5% ( 48.2%)     94.2%
 TRAVEL (Ang.)       0.2898         C 24 -- H 27         +12.5% ( 36.8%)     98.8%
 REDUCED MASS        0.3027         C 24 -- H 26          +9.5% ( 32.1%)     97.1%
 EFFECTIVE MASS      1.4939
 FORCE CONSTANT      1.2550

 VIBRATION         77   77A           ATOM PAIR      ENERGY CONTRIBUTION    RADIAL
 FREQUENCY          2656.93         C 24 -- H 25         +63.8% ( 83.0%)     99.8%
 TRANSITION DIPOLE   0.8342         C 24 -- H 26         +23.8% ( 50.7%)     92.2%
 TRAVEL (Ang.)       0.2262         C 24 -- H 27         +11.2% ( 34.8%)     81.0%
 REDUCED MASS        0.4962         O 23 -- C 24          +1.0% ( 10.3%)      1.7%
 EFFECTIVE MASS      1.4777
 FORCE CONSTANT      2.0637

 VIBRATION         78   78A           ATOM PAIR      ENERGY CONTRIBUTION    RADIAL
 FREQUENCY          2675.17         C  7 -- H  8         +51.6% ( 75.5%)     98.6%
 TRANSITION DIPOLE   1.4084         C  7 -- H  9         +36.3% ( 63.3%)     97.0%
 TRAVEL (Ang.)       0.2407         C 10 -- H 11          +3.0% ( 18.3%)     99.7%
 REDUCED MASS        0.4351         N 16 -- N 17          +1.0% ( 10.7%)     95.7%
 EFFECTIVE MASS      1.7443
 FORCE CONSTANT      1.8346

 VIBRATION         79   79A           ATOM PAIR      ENERGY CONTRIBUTION    RADIAL
 FREQUENCY          2748.79         C  1 -- H  5         +84.1% ( 92.7%)    100.0%
 TRANSITION DIPOLE   1.5321         C  2 -- H 14         +12.5% ( 35.7%)     99.9%
 TRAVEL (Ang.)       0.1862         C  1 -- C  2          +0.7% (  8.6%)      3.0%
 REDUCED MASS        0.7078         C  1 -- N 17          +0.6% (  8.0%)      2.2%
 EFFECTIVE MASS      1.3423
 FORCE CONSTANT      3.1508

 VIBRATION         80   80A           ATOM PAIR      ENERGY CONTRIBUTION    RADIAL
 FREQUENCY          2753.82         C  2 -- H 14         +79.1% ( 90.4%)    100.0%
 TRANSITION DIPOLE   1.0068         C  1 -- H  5         +11.0% ( 33.7%)    100.0%
 TRAVEL (Ang.)       0.1963         C  4 -- H  6          +3.7% ( 19.7%)     99.9%
 REDUCED MASS        0.6355         C 10 -- H 11          +1.2% ( 11.1%)     98.8%
 EFFECTIVE MASS      1.3855
 FORCE CONSTANT      2.8393

 VIBRATION         81   81A           ATOM PAIR      ENERGY CONTRIBUTION    RADIAL
 FREQUENCY          2770.17         C  4 -- H  6         +53.2% ( 74.4%)    100.0%
 TRANSITION DIPOLE   0.8883         C  3 -- H 15         +41.8% ( 66.0%)    100.0%
 TRAVEL (Ang.)       0.2315         C  3 -- C  4          +1.0% ( 10.1%)      0.3%
 REDUCED MASS        0.4543         C  1 -- C  4          +0.6% (  8.0%)     23.5%
 EFFECTIVE MASS      1.3967
 FORCE CONSTANT      2.0540

 VIBRATION         82   82A           ATOM PAIR      ENERGY CONTRIBUTION    RADIAL
 FREQUENCY          2776.19         C 12 -- H 13         +45.7% ( 68.9%)    100.0%
 TRANSITION DIPOLE   1.0525         C  3 -- H 15         +30.8% ( 56.6%)    100.0%
 TRAVEL (Ang.)       0.2732         C  4 -- H  6         +15.5% ( 40.1%)     99.9%
 REDUCED MASS        0.3254         C  7 -- H  8          +1.5% ( 12.6%)     97.9%
 EFFECTIVE MASS      1.4098
 FORCE CONSTANT      1.4775

 VIBRATION         83   83A           ATOM PAIR      ENERGY CONTRIBUTION    RADIAL
 FREQUENCY          2788.03         C 12 -- H 13         +35.0% ( 59.1%)    100.0%
 TRANSITION DIPOLE   1.1714         C  7 -- H  8         +23.2% ( 48.1%)     97.7%
 TRAVEL (Ang.)       0.3196         C  7 -- H  9         +22.4% ( 47.3%)     97.7%
 REDUCED MASS        0.2367         C  3 -- H 15          +9.0% ( 29.9%)     99.8%
 EFFECTIVE MASS      1.3196
 FORCE CONSTANT      1.0841

 VIBRATION         84   84A           ATOM PAIR      ENERGY CONTRIBUTION    RADIAL
 FREQUENCY          2801.73         C 10 -- H 11         +26.9% ( 51.9%)    100.0%
 TRANSITION DIPOLE   0.8108         C  7 -- H  9         +19.3% ( 44.0%)     98.4%
 TRAVEL (Ang.)       0.3959         C  7 -- H  8         +15.8% ( 39.8%)     96.6%
 REDUCED MASS        0.1536         C 12 -- H 13         +11.8% ( 34.4%)     99.9%
 EFFECTIVE MASS      1.3371
 FORCE CONSTANT      0.7103

 VIBRATION         85   85A           ATOM PAIR      ENERGY CONTRIBUTION    RADIAL
 FREQUENCY          2812.51         C 28 -- H 29         +29.4% ( 51.2%)     97.7%
 TRANSITION DIPOLE   0.6155         C 28 -- H 31         +28.1% ( 50.0%)     98.0%
 TRAVEL (Ang.)       0.3166         C 28 -- H 30         +25.9% ( 48.0%)     97.9%
 REDUCED MASS        0.2392         C 24 -- H 26          +3.5% ( 17.6%)     98.1%
 EFFECTIVE MASS      1.0867
 FORCE CONSTANT      1.1149

 VIBRATION         86   86A           ATOM PAIR      ENERGY CONTRIBUTION    RADIAL
 FREQUENCY          2816.11         C 24 -- H 25         +28.9% ( 50.8%)     97.7%
 TRANSITION DIPOLE   0.2397         C 24 -- H 26         +28.3% ( 50.3%)     98.1%
 TRAVEL (Ang.)       0.3086         C 24 -- H 27         +28.2% ( 50.2%)     98.1%
 REDUCED MASS        0.2515         C 10 -- H 11          +5.9% ( 23.0%)    100.0%
 EFFECTIVE MASS      1.0893
 FORCE CONSTANT      1.1751

 VIBRATION         87   87A           ATOM PAIR      ENERGY CONTRIBUTION    RADIAL
 FREQUENCY          3156.28         C 10 -- H 11         +37.9% ( 59.6%)     99.4%
 TRANSITION DIPOLE   5.3288         N 16 -- N 17         +18.5% ( 41.6%)     94.9%
 TRAVEL (Ang.)       0.1694         N 16 -- C 18          +8.1% ( 27.6%)     76.7%
 REDUCED MASS        0.7446         N 17 -- C 19          +7.7% ( 26.9%)     65.5%
 EFFECTIVE MASS      5.5399
 FORCE CONSTANT      4.3706

      SYMMETRY NUMBER FOR POINT-GROUP C1  =  1


          SYSTEM IS A GROUND STATE



 Cycloaddition_P_PM6_D3H4_THERMO


          MOLECULE IS NOT LINEAR

          THERE ARE 87 GENUINE VIBRATIONS IN THIS SYSTEM
          THIS THERMODYNAMICS CALCULATION IS LIMITED TO
          MOLECULES WHICH HAVE NO INTERNAL ROTATIONS




                    CALCULATED THERMODYNAMIC PROPERTIES
                                          *
   TEMP. (K)   PARTITION FUNCTION   H.O.F.    ENTHALPY  HEAT CAPACITY ENTROPY
                                   KCAL/MOL   CAL/MOLE    CAL/K/MOL  CAL/K/MOL


 298.00  VIB.     0.7699D+07                  8854.2387    55.3161    61.2226
         ROT.     0.3095D+07                   888.2813     2.9808    32.6800
         INT.     0.2383D+14                  9742.5200    58.2969    93.9026
         TRA.     0.3555D+28                  1480.4688     4.9680    42.3035
         TOT.                      -52.211   11222.9889    63.2649   136.2061

 200.00  VIB.     0.4809D+05                  4293.8319    38.1463    42.8930
         ROT.     0.1701D+07                   596.1620     2.9808    31.4913
         INT.     0.8183D+11                  4889.9938    41.1271    74.3843
         TRA.     0.1955D+28                   993.6033     4.9680    40.3223
         TOT.                      -57.550    5883.5971    46.0951   114.7067

 210.00  VIB.     0.8230D+05                  4683.3797    39.7694    44.7933
         ROT.     0.1831D+07                   625.9700     2.9808    31.6367
         INT.     0.1507D+12                  5309.3497    42.7502    76.4300
         TRA.     0.2103D+28                  1043.2834     4.9680    40.5647
         TOT.                      -57.081    6352.6331    47.7183   116.9948

 220.00  VIB.     0.1401D+06                  5089.3434    41.4294    46.6816
         ROT.     0.1963D+07                   655.7781     2.9808    31.7754
         INT.     0.2750D+12                  5745.1216    44.4102    78.4569
         TRA.     0.2255D+28                  1092.9636     4.9680    40.7959
         TOT.                      -56.596    6838.0851    49.3782   119.2528

 230.00  VIB.     0.2372D+06                  5512.0861    43.1249    48.5604
         ROT.     0.2098D+07                   685.5862     2.9808    31.9079
         INT.     0.4977D+12                  6197.6724    46.1057    80.4683
         TRA.     0.2411D+28                  1142.6437     4.9680    41.0167
         TOT.                      -56.093    7340.3161    51.0737   121.4850

 240.00  VIB.     0.3998D+06                  5951.9510    44.8533    50.4322
         ROT.     0.2237D+07                   715.3943     2.9808    32.0348
         INT.     0.8942D+12                  6667.3454    47.8341    82.4670
         TRA.     0.2569D+28                  1192.3239     4.9680    41.2281
         TOT.                      -55.574    7859.6693    52.8021   123.6951

 250.00  VIB.     0.6711D+06                  6409.2506    46.6112    52.2988
         ROT.     0.2378D+07                   745.2024     2.9808    32.1564
         INT.     0.1596D+13                  7154.4530    49.5920    84.4552
         TRA.     0.2732D+28                  1242.0041     4.9680    41.4309
         TOT.                      -55.037    8396.4571    54.5600   125.8861

 260.00  VIB.     0.1122D+07                  6884.2585    48.3943    54.1616
         ROT.     0.2522D+07                   775.0105     2.9808    32.2734
         INT.     0.2831D+13                  7659.2690    51.3751    86.4349
         TRA.     0.2897D+28                  1291.6842     4.9680    41.6258
         TOT.                      -54.483    8950.9533    56.3431   128.0607

 270.00  VIB.     0.1871D+07                  7377.2042    50.1979    56.0217
         ROT.     0.2669D+07                   804.8186     2.9808    32.3858
         INT.     0.4992D+13                  8182.0228    53.1787    88.4076
         TRA.     0.3066D+28                  1341.3644     4.9680    41.8133
         TOT.                      -53.910    9523.3872    58.1468   130.2209

 280.00  VIB.     0.3108D+07                  7888.2694    52.0173    57.8802
         ROT.     0.2819D+07                   834.6267     2.9808    32.4943
         INT.     0.8760D+13                  8722.8961    54.9981    90.3744
         TRA.     0.3238D+28                  1391.0445     4.9680    41.9940
         TOT.                      -53.320   10113.9406    59.9661   132.3684

 290.00  VIB.     0.5150D+07                  8417.5863    53.8475    59.7374
         ROT.     0.2971D+07                   864.4348     2.9808    32.5989
         INT.     0.1530D+14                  9282.0211    56.8283    92.3363
         TRA.     0.3413D+28                  1440.7247     4.9680    42.1683
         TOT.                      -52.711   10722.7458    61.7963   134.5046

 300.00  VIB.     0.8512D+07                  8965.2383    55.6835    61.5939
         ROT.     0.3126D+07                   894.2429     2.9808    32.6999
         INT.     0.2661D+14                  9859.4813    58.6643    94.2938
         TRA.     0.3591D+28                  1490.4049     4.9680    42.3367
         TOT.                      -52.084   11349.8861    63.6324   136.6305

 310.00  VIB.     0.1404D+08                  9531.2610    57.5208    63.4497
         ROT.     0.3283D+07                   924.0510     2.9808    32.7976
         INT.     0.4608D+14                 10455.3120    60.5016    96.2473
         TRA.     0.3772D+28                  1540.0850     4.9680    42.4996
         TOT.                      -51.438   11995.3971    65.4697   138.7469

 320.00  VIB.     0.2310D+08                 10115.6444    59.3550    65.3049
         ROT.     0.3444D+07                   953.8591     2.9808    32.8923
         INT.     0.7953D+14                 11069.5035    62.3358    98.1971
         TRA.     0.3956D+28                  1589.7652     4.9680    42.6573
         TOT.                      -50.774   12659.2687    67.3038   140.8545

 330.00  VIB.     0.3793D+08                 10718.3361    61.1819    67.1593
         ROT.     0.3606D+07                   983.6672     2.9808    32.9840
         INT.     0.1368D+15                 11702.0033    64.1627   100.1433
         TRA.     0.4143D+28                  1639.4454     4.9680    42.8102
         TOT.                      -50.092   13341.4486    69.1307   142.9535

 340.00  VIB.     0.6220D+08                 11339.2448    62.9978    69.0128
         ROT.     0.3771D+07                  1013.4753     2.9808    33.0730
         INT.     0.2346D+15                 12352.7201    65.9786   102.0858
         TRA.     0.4333D+28                  1689.1255     4.9680    42.9585
         TOT.                      -49.392   14041.8456    70.9466   145.0443

 350.00  VIB.     0.1018D+09                 11978.2439    64.7994    70.8649
         ROT.     0.3939D+07                  1043.2834     2.9808    33.1594
         INT.     0.4010D+15                 13021.5273    67.7802   104.0243
         TRA.     0.4525D+28                  1738.8057     4.9680    43.1025
         TOT.                      -48.673   14760.3330    72.7482   147.1269

 360.00  VIB.     0.1664D+09                 12635.1754    66.5838    72.7155
         ROT.     0.4109D+07                  1073.0915     2.9808    33.2434
         INT.     0.6838D+15                 13708.2669    69.5646   105.9588
         TRA.     0.4720D+28                  1788.4859     4.9680    43.2425
         TOT.                      -47.937   15496.7528    74.5326   149.2013

 370.00  VIB.     0.2716D+09                 13309.8537    68.3484    74.5639
         ROT.     0.4281D+07                  1102.8996     2.9808    33.3250
         INT.     0.1163D+16                 14412.7533    71.3292   107.8889
         TRA.     0.4918D+28                  1838.1660     4.9680    43.3786
         TOT.                      -47.183   16250.9193    76.2972   151.2675

 380.00  VIB.     0.4427D+09                 14002.0692    70.0909    76.4098
         ROT.     0.4456D+07                  1132.7077     2.9808    33.4045
         INT.     0.1973D+16                 15134.7769    73.0717   109.8143
         TRA.     0.5119D+28                  1887.8462     4.9680    43.5111
         TOT.                      -46.411   17022.6231    78.0397   153.3254

 390.00  VIB.     0.7208D+09                 14711.5921    71.8096    78.2527
         ROT.     0.4633D+07                  1162.5158     2.9808    33.4820
         INT.     0.3339D+16                 15874.1079    74.7904   111.7347
         TRA.     0.5323D+28                  1937.5263     4.9680    43.6401
         TOT.                      -45.622   17811.6342    79.7584   155.3748

 400.00  VIB.     0.1172D+10                 15438.1756    73.5028    80.0922
         ROT.     0.4813D+07                  1192.3239     2.9808    33.5574
         INT.     0.5640D+16                 16630.4995    76.4836   113.6496
         TRA.     0.5529D+28                  1987.2065     4.9680    43.7659
         TOT.                      -44.816   18617.7060    81.4516   157.4155

   *: NOTE: HEATS OF FORMATION ARE RELATIVE TO THE
            ELEMENTS IN THEIR STANDARD STATE AT 298K
              (=  Standard Enthalpy of Formation).

            Hvib:  Zero-point energy is not included.
                   frequencies of less than zero cm-1 are not included.
            Hrot = (3/2)RT
            Htra = (3/2)RT + pV = (5/2)RT

            Heat capacity is Cp, not Cv

          For more information, see: HTTP://OpenMOPAC.net/Manual/thermochemistry.html


           FORCE CONSTANT IN CARTESIAN COORDINATES (Millidynes/A)

    ATOM   CHEMICAL       X               Y               Z
   NUMBER   SYMBOL  FORCE CONSTANT  FORCE CONSTANT  FORCE CONSTANT

      1       C        7.123789        7.825663        6.166561
      2       C        6.971181        8.166715        6.775687
      3       C        5.226684        9.146781        6.515852
      4       C        9.921651        6.665459        4.094647
      5       H        1.269566        2.229453        2.254658
      6       H        3.820908        1.156610        0.599773
      7       C        7.147526        5.583931        7.829638
      8       H        3.942861        0.898406        0.748733
      9       H        0.931030        0.704172        3.995757
     10       C        4.687484        6.038302        7.463452
     11       H        1.797750        1.049180        2.612397
     12       C        4.828414        6.853189        9.432192
     13       H        0.614142        1.803124        3.168756
     14       H        1.462051        3.183144        0.981314
     15       H        0.617479        4.066336        0.869414
     16       N        6.581552       16.927845       10.172020
     17       N        7.925184       18.430731       12.931538
     18       C        7.865772       16.172422        5.858997
     19       C        3.161288       11.697745       15.337247
     20       O        0.559495        2.018186       13.317551
     21       O        3.810053        8.510626        3.230541
     22       O        0.898890        7.358749        6.130834
     23       O        5.727997        5.701105        2.699759
     24       C        6.206241        6.015057        6.241851
     25       H        2.909824        0.807221        1.728000
     26       H        0.847340        0.951093        3.659170
     27       H        2.045635        2.201550        1.213276
     28       C        6.045882        5.522995        6.552723
     29       H        0.714410        1.139891        3.517559
     30       H        2.727544        0.805688        1.889277
     31       H        3.101694        1.214626        1.120433

 **********************
 *                    *
 * JOB ENDED NORMALLY *
 *                    *
 **********************



 TOTAL JOB TIME:           177.20 SECONDS

 == MOPAC DONE ==
