 *******************************************************************************
 ** Site#: 37381        For non-commercial use only           Version 21.125L **
 *******************************************************************************
 ** Cite this program as: MOPAC2016, Version: 21.125L, James J. P. Stewart,   **
 ** Stewart Computational Chemistry, web: HTTP://OpenMOPAC.net. Days left: 191**
 *******************************************************************************
 **                                                                           **
 **                                MOPAC2016                                  **
 **                                                                           **
 *******************************************************************************

                              PM6-D3H4 CALCULATION RESULTS

 *******************************************************************************
 *  CALCULATION DONE:                                Tue Oct 26 16:24:34 2021  *
 *  PM6-D3H4   - CORRECT DISPERSION AND HYDROGEN BOND TERMS USING THE D3H4 METHOD
 *  EPS=2.38   - USE ANDREAS KLAMT'S COSMO IMPLICIT SOLVATION MODEL
 *  RSOLV=  3.480
 *  FORCE      - FORCE CALCULATION SPECIFIED
 *  T=         - A TIME OF 172800.0 SECONDS REQUESTED
 *  DUMP=N     - RESTART FILE WRITTEN EVERY 7200.0 SECONDS REQUESTED
 *  AUX        - OUTPUT AUXILIARY INFORMATION
 *  LARGE      - EXPANDED OUTPUT TO BE PRINTED
 *  THERMO     - THERMODYNAMIC QUANTITIES TO BE CALCULATED
 *******************************************************************************
 AUX LARGE FORCE THERMO PM6-D3H4 EPS=2.38 RSOLV=3.48
 Cycloaddition_SM1_PM6_D3H4_THERMO

   ATOM   CHEMICAL          X               Y               Z
  NUMBER   SYMBOL      (ANGSTROMS)     (ANGSTROMS)     (ANGSTROMS)
 
     1       N          0.39267000  *   0.22293000  *  -0.41935000  *
     2       N         -0.39224000  *  -0.21823000  *   0.41922000  *
     3       C          1.78704000  *   0.51730000  *  -0.05090000  *
     4       C         -1.78593000  *  -0.51505000  *   0.05048000  *
     5       O         -2.21687000  *  -1.62973000  *  -0.08399000  *
     6       O          2.22151000  *   1.63122000  *   0.07906000  *
     7       O         -2.48413000  *   0.64983000  *   0.06160000  *
     8       O          2.48136000  *  -0.64987000  *  -0.05615000  *
     9       C          3.93845000  *  -0.54544000  *   0.06054000  *
    10       H          4.21776000  *  -1.62345000  *   0.05543000  *
    11       H          4.32348000  *   0.00425000  *  -0.82334000  *
    12       H          4.18311000  *  -0.04137000  *   1.01859000  *
    13       C         -3.94042000  *   0.54102000  *  -0.06018000  *
    14       H         -4.22542000  *   1.61710000  *  -0.02855000  *
    15       H         -4.17931000  *   0.06026000  *  -1.03156000  *
    16       H         -4.32581000  *  -0.03274000  *   0.80793000  *
 


          CARTESIAN COORDINATES 

    NO.       ATOM           X           Y           Z

     1         N          0.3927      0.2229     -0.4194
     2         N         -0.3922     -0.2182      0.4192
     3         C          1.7870      0.5173     -0.0509
     4         C         -1.7859     -0.5151      0.0505
     5         O         -2.2169     -1.6297     -0.0840
     6         O          2.2215      1.6312      0.0791
     7         O         -2.4841      0.6498      0.0616
     8         O          2.4814     -0.6499     -0.0562
     9         C          3.9385     -0.5454      0.0605
    10         H          4.2178     -1.6235      0.0554
    11         H          4.3235      0.0042     -0.8233
    12         H          4.1831     -0.0414      1.0186
    13         C         -3.9404      0.5410     -0.0602
    14         H         -4.2254      1.6171     -0.0286
    15         H         -4.1793      0.0603     -1.0316
    16         H         -4.3258     -0.0327      0.8079

 General Reference for PM6:
 "Optimization of Parameters for Semiempirical Methods V: Modification of NDDO Approximations
 and Application to 70 Elements", J. J. P. Stewart, J. Mol. Mod., 13, 1173-1213 (2007)
 URL: https://link.springer.com/article/10.1007/s00894-007-0233-4

           Empirical Formula: C4 H6 N2 O4  =    16 atoms



      MOLECULAR POINT GROUP   :   Ci  


      RHF CALCULATION, NO. OF DOUBLY OCCUPIED LEVELS = 28



          HEAT OF FORMATION =    -107.718944 KCALS/MOLE


          CARTESIAN COORDINATE DERIVATIVES

   NUMBER  ATOM         X            Y            Z

     1       N      0.065515     0.053811     0.010198
     2       N     -0.052846    -0.101546    -0.024490
     3       C     -0.009123    -0.013267    -0.009048
     4       C     -0.006904     0.023184    -0.016248
     5       O     -0.046798     0.022092     0.039815
     6       O     -0.009988     0.047860     0.023498
     7       O      0.021139    -0.058807    -0.034535
     8       O      0.042138     0.011104     0.006575
     9       C     -0.063677     0.054528    -0.054133
    10       H      0.047101    -0.019085    -0.006720
    11       H     -0.021979    -0.088090     0.005944
    12       H      0.041124     0.061343     0.030602
    13       C      0.057302    -0.037280     0.041823
    14       H     -0.029801     0.016904     0.004677
    15       H     -0.041189    -0.026603    -0.003606
    16       H      0.007988     0.053853    -0.014351
 
 DIPOLE           X         Y         Z       TOTAL
 POINT-CHG.     0.005    -0.008    -0.009     0.013
 HYBRID         0.001     0.001     0.000     0.002
 SUM            0.006    -0.007    -0.009     0.013


          GRADIENT NORM =   0.27730


          TIME FOR SCF CALCULATION =    0.02

          TIME FOR DERIVATIVES     =    0.01

          MOLECULAR WEIGHT =  146.10



          ROTATIONAL CONSTANTS IN CM(-1)

          A =    0.13283000   B =    0.01818503   C =    0.01626828



           PRINCIPAL MOMENTS OF INERTIA IN UNITS OF 10**(-40)*GRAM-CM**2

          A =      210.7414   B =     1539.3304   C =     1720.6961


          ORIENTATION OF MOLECULE IN FORCE CALCULATION

    NO.       ATOM         X         Y         Z

     1          N      -0.6160    0.0000    0.0018
     2          N       0.6144    0.0000    0.0018
     3          C      -1.3600    1.2702    0.0018
     4          C       1.3585   -1.2699   -0.0007
     5          O       1.9415   -1.6989   -0.9611
     6          O      -1.9480    1.6986    0.9595
     7          O       1.3939   -1.7425    1.2721
     8          O      -1.3880    1.7440   -1.2706
     9          C      -2.2754    2.8819   -1.5262
    10          H      -2.0706    3.0571   -2.6067
    11          H      -3.3205    2.5634   -1.3313
    12          H      -1.9593    3.7304   -0.8844
    13          C       2.2789   -2.8834    1.5221
    14          H       2.0964   -3.0445    2.6088
    15          H       1.9416   -3.7364    0.8973
    16          H       3.3221   -2.5766    1.3010


    FIRST DERIVATIVES WILL BE USED IN THE CALCULATION OF SECOND DERIVATIVES

          ESTIMATED TIME TO COMPLETE CALCULATION =        3.00 SECONDS

    FOR POINT-GROUP Ci   THERE ARE   2 UNIQUE SYMMETRY FUNCTIONS.

 STEP:   1 TIME =     0.02 SECS, INTEGRAL =      0.02 TIME LEFT: 172799.95
 STEP:   2 TIME =     0.02 SECS, INTEGRAL =      0.04 TIME LEFT: 172799.93
 STEP:   3 TIME =     0.02 SECS, INTEGRAL =      0.05 TIME LEFT: 172799.91
 STEP:   4                       INTEGRAL =      0.05 TIME LEFT: 172799.91
 STEP:   5                       INTEGRAL =      0.05 TIME LEFT: 172799.91
 STEP:   6                       INTEGRAL =      0.05 TIME LEFT: 172799.91
 STEP:   7 TIME =     0.02 SECS, INTEGRAL =      0.07 TIME LEFT: 172799.89
 STEP:   8 TIME =     0.02 SECS, INTEGRAL =      0.09 TIME LEFT: 172799.88
 STEP:   9 TIME =     0.02 SECS, INTEGRAL =      0.12 TIME LEFT: 172799.85
 STEP:  10                       INTEGRAL =      0.12 TIME LEFT: 172799.85
 STEP:  11                       INTEGRAL =      0.12 TIME LEFT: 172799.85
 STEP:  12                       INTEGRAL =      0.12 TIME LEFT: 172799.85
 STEP:  13 TIME =     0.02 SECS, INTEGRAL =      0.14 TIME LEFT: 172799.83
 STEP:  14 TIME =     0.02 SECS, INTEGRAL =      0.16 TIME LEFT: 172799.81
 STEP:  15 TIME =     0.02 SECS, INTEGRAL =      0.18 TIME LEFT: 172799.79
 STEP:  16                       INTEGRAL =      0.18 TIME LEFT: 172799.79
 STEP:  17                       INTEGRAL =      0.18 TIME LEFT: 172799.79
 STEP:  18                       INTEGRAL =      0.18 TIME LEFT: 172799.79
 STEP:  19 TIME =     0.02 SECS, INTEGRAL =      0.20 TIME LEFT: 172799.77
 STEP:  20 TIME =     0.02 SECS, INTEGRAL =      0.22 TIME LEFT: 172799.75
 STEP:  21 TIME =     0.02 SECS, INTEGRAL =      0.24 TIME LEFT: 172799.73
 STEP:  22                       INTEGRAL =      0.24 TIME LEFT: 172799.73
 STEP:  23                       INTEGRAL =      0.24 TIME LEFT: 172799.73
 STEP:  24                       INTEGRAL =      0.24 TIME LEFT: 172799.73
 STEP:  25 TIME =     0.02 SECS, INTEGRAL =      0.26 TIME LEFT: 172799.71
 STEP:  26 TIME =     0.02 SECS, INTEGRAL =      0.28 TIME LEFT: 172799.69
 STEP:  27 TIME =     0.02 SECS, INTEGRAL =      0.30 TIME LEFT: 172799.67
 STEP:  28 TIME =     0.02 SECS, INTEGRAL =      0.32 TIME LEFT: 172799.65
 STEP:  29 TIME =     0.02 SECS, INTEGRAL =      0.34 TIME LEFT: 172799.63
 STEP:  30 TIME =     0.02 SECS, INTEGRAL =      0.36 TIME LEFT: 172799.61
 STEP:  31 TIME =     0.02 SECS, INTEGRAL =      0.38 TIME LEFT: 172799.59
 STEP:  32 TIME =     0.02 SECS, INTEGRAL =      0.39 TIME LEFT: 172799.57
 STEP:  33 TIME =     0.02 SECS, INTEGRAL =      0.41 TIME LEFT: 172799.55
 STEP:  34 TIME =     0.02 SECS, INTEGRAL =      0.43 TIME LEFT: 172799.54
 STEP:  35 TIME =     0.02 SECS, INTEGRAL =      0.45 TIME LEFT: 172799.52
 STEP:  36 TIME =     0.02 SECS, INTEGRAL =      0.47 TIME LEFT: 172799.50
 STEP:  37                       INTEGRAL =      0.47 TIME LEFT: 172799.50
 STEP:  38                       INTEGRAL =      0.47 TIME LEFT: 172799.50
 STEP:  39                       INTEGRAL =      0.47 TIME LEFT: 172799.50
 STEP:  40                       INTEGRAL =      0.47 TIME LEFT: 172799.50
 STEP:  41                       INTEGRAL =      0.47 TIME LEFT: 172799.50
 STEP:  42                       INTEGRAL =      0.47 TIME LEFT: 172799.50
 STEP:  43                       INTEGRAL =      0.47 TIME LEFT: 172799.50
 STEP:  44                       INTEGRAL =      0.47 TIME LEFT: 172799.50
 STEP:  45                       INTEGRAL =      0.47 TIME LEFT: 172799.50
 STEP:  46                       INTEGRAL =      0.47 TIME LEFT: 172799.50
 STEP:  47                       INTEGRAL =      0.47 TIME LEFT: 172799.50
 STEP:  48                       INTEGRAL =      0.47 TIME LEFT: 172799.50

(To convert to Hartree/Bohr^2, multiply by (10^(-21) x N x a0^2)/(4.184 x 627.51) =  0.0642)


           FORCE MATRIX IN MILLIDYNES/ANGSTROM


                  N  1       N  2       C  3       C  4       O  5       O  6
 ------------------------------------------------------------------------------
     N    1  16.820461
     N    2  13.519169  16.820461
     C    3   3.344900   1.254625  16.946544
     C    4   1.255988   3.345572   0.479276  16.946544
     O    5   0.177719   1.274186   0.137852  11.432676  13.786445
     O    6   1.271150   0.181441  11.428175   0.137941   0.043631  13.786445
     O    7   0.149551   1.107307   0.138036   4.386979   1.813720   0.081540
     O    8   1.108938   0.151447   4.384298   0.138751   0.081542   1.812551
     C    9   0.137263   0.054334   1.132225   0.040710   0.027386   0.104556
     H   10   0.026806   0.014336   0.141633   0.016972   0.010588   0.024206
     H   11   0.017694   0.007987   0.103237   0.006585   0.003459   0.030233
     H   12   0.022238   0.007347   0.117337   0.009789   0.004865   0.029006
     C   13   0.057017   0.141364   0.046403   1.126014   0.106706   0.030280
     H   14   0.015637   0.025242   0.016901   0.139280   0.022649   0.010530
     H   15   0.007423   0.022681   0.009547   0.118585   0.029603   0.004743
     H   16   0.009283   0.017655   0.009592   0.113413   0.027270   0.005264


                  O  7       O  8       C  9       H 10       H 11       H 12
 ------------------------------------------------------------------------------
     O    7   9.449878
     O    8   0.043591   9.449878
     C    9   0.013300   3.312241  10.532197
     H   10   0.005617   0.708089   3.318423   4.209141
     H   11   0.002546   0.684509   3.338648   0.527311   4.224043
     H   12   0.003931   0.676843   3.341775   0.529123   0.539345   4.191573
     C   13   3.303211   0.015828   0.003928   0.001914   0.001386   0.001448
     H   14   0.708472   0.005541   0.001322   0.000630   0.000509   0.000514
     H   15   0.677535   0.003815   0.000993   0.000488   0.000261   0.000240
     H   16   0.678930   0.003939   0.001073   0.000485   0.000238   0.000384


                  C 13       H 14       H 15       H 16
 ------------------------------------------------------
     C   13  10.532197
     H   14   3.318423   4.209141
     H   15   3.341775   0.529123   4.191573
     H   16   3.338648   0.527311   0.539345   4.224043


          HEAT OF FORMATION =    -107.718944 KCALS/MOLE


          TRIVIAL VIBRATIONS, SHOULD BE ZERO

 -29.2417=TX  -0.0383=TY  -0.2119=TZ  -0.1945=RX  15.6273=RY  14.0645=RZ


      MOLECULAR POINT GROUP   :   Ci  


           EIGENVECTORS  


   Root No.       1         2         3         4         5         6         7         8

                 1 Au      2 Au      1 Ag      3 Au      5 ????    6 ????    7 ????    2 Ag  

                  -0.0      -0.0       0.0       0.0       0.0       0.1       0.1       0.2
  
           1    0.0740    0.2109    0.0163   -0.0350    0.1387   -0.0394    0.0075   -0.0156
           2    0.0136    0.1033   -0.0129   -0.1745    0.0665    0.0350   -0.0621   -0.0342
           3   -0.0753   -0.0827   -0.0316   -0.2702   -0.1727   -0.2833   -0.1245    0.1173
           4    0.0741    0.2108    0.0169   -0.0348    0.1377   -0.0428    0.0110   -0.0138
           5    0.0111    0.0960    0.0888   -0.1480    0.0331   -0.0794    0.0626    0.0014
           6   -0.0652   -0.0566    0.1340   -0.2752   -0.0301    0.3123    0.0996   -0.1512
           7    0.0836    0.2002   -0.0907   -0.0263    0.0683    0.0548   -0.0892    0.0492
           8    0.0195    0.0903   -0.0724   -0.1657    0.0108    0.0901   -0.1153   -0.0269
           9   -0.0466   -0.0509   -0.0085   -0.1533   -0.0956   -0.2040   -0.1558   -0.0998
          10    0.0721    0.1835    0.1155    0.0216    0.0231   -0.1018    0.0812   -0.0538
          11    0.0102    0.0756    0.1446   -0.1119   -0.0471   -0.1094    0.0974    0.0161
          12   -0.0336   -0.0178    0.0737   -0.1737   -0.0152    0.2163    0.1453    0.1094
          13    0.1649    0.3085    0.2970    0.1792   -0.2497   -0.0493   -0.1061    0.0684
          14    0.0381    0.1139    0.3302   -0.1198   -0.3032    0.0074   -0.0381   -0.1581
          15    0.0110    0.0419    0.1004   -0.0710   -0.0657    0.1913    0.0893    0.2579
          16    0.2091    0.3536   -0.2678    0.0486   -0.2328    0.1271    0.0409   -0.0279
          17    0.0656    0.1497   -0.2149   -0.2434   -0.3010    0.0938   -0.0416    0.1253
          18    0.0101    0.0176   -0.0533   -0.0706   -0.1369   -0.1571   -0.1067   -0.2122
          19   -0.0618   -0.0179   -0.0362   -0.1260    0.2347   -0.1388    0.3609   -0.1898
          20   -0.0304    0.0069   -0.0325   -0.0337    0.1804   -0.2878    0.2730    0.1115
          21   -0.0447   -0.0390    0.0111   -0.1373    0.0631    0.1536    0.2021    0.1632
          22   -0.0736   -0.0376    0.0568   -0.0955    0.3223   -0.0121   -0.3283    0.1920
          23   -0.0353    0.0108    0.0296   -0.0352    0.3286    0.1532   -0.2384   -0.0860
          24   -0.0613   -0.0756    0.0262   -0.0996    0.0139   -0.1815   -0.1947   -0.1356
          25   -0.0704   -0.1639    0.0368    0.0130   -0.0312   -0.1011   -0.0444    0.1022
          26   -0.0123   -0.0634    0.0045    0.1022    0.0654    0.1272    0.0313   -0.1108
          27    0.0227    0.0204   -0.0119    0.1220    0.0431   -0.0416   -0.0042    0.0473
          28   -0.3641   -0.1212   -0.1853   -0.0420   -0.2115   -0.2142   -0.0164   -0.0865
          29   -0.1843    0.1070   -0.2194    0.2414    0.0638    0.2125    0.1644    0.0921
          30   -0.0596    0.0561   -0.0898    0.1352    0.0107   -0.0481    0.0229    0.0603
          31   -0.0413   -0.1284    0.0569   -0.0083    0.0756   -0.0665   -0.1237    0.1763
          32    0.1016   -0.2441    0.1112    0.1911   -0.2057    0.0537    0.2731   -0.2751
          33    0.3774   -0.0941    0.2831    0.1531    0.1845    0.0302   -0.0386    0.2005
          34    0.1843   -0.3357    0.2359    0.1522   -0.1869   -0.1024    0.1882    0.1438
          35    0.0521   -0.0967    0.1046   -0.0275    0.1821    0.1090   -0.1561   -0.2143
          36   -0.1882    0.1506   -0.2439    0.2262   -0.0348   -0.0160    0.1314    0.1707
          37   -0.0603   -0.1427   -0.0572   -0.0246    0.0116    0.1237    0.0526   -0.1039
          38   -0.0130   -0.0752   -0.0598    0.1065    0.0068   -0.1247   -0.0141    0.1254
          39    0.0253    0.0247   -0.0368    0.1128    0.0571    0.0280    0.0155   -0.0489
          40   -0.3720   -0.1094    0.1507   -0.0067   -0.0765    0.3083    0.0181    0.1057
          41   -0.2143    0.0559    0.0816    0.3412   -0.0002   -0.1887   -0.1448   -0.1099
          42   -0.0654    0.0520    0.0245    0.1552    0.0409    0.0508   -0.0124   -0.0656
          43    0.2111   -0.3030   -0.2803    0.0323   -0.0984    0.2177   -0.1889   -0.1650
          44    0.0658   -0.0881   -0.0967   -0.0615    0.0823   -0.1784    0.1782    0.2519
          45   -0.2134    0.1217    0.1225    0.3091    0.0119    0.0519   -0.1220   -0.1948
          46   -0.0297   -0.1077   -0.0654   -0.0478    0.0751    0.0368    0.1364   -0.1813
          47    0.1120   -0.2419   -0.1866    0.1387   -0.1627    0.0865   -0.2696    0.2918
          48    0.4070   -0.0683   -0.2997    0.0371    0.1258   -0.1028    0.0529   -0.2185


   Root No.       9        10        11        12        13        14        15        16

                 4 Au      5 Au      3 Ag     12 ????   13 ????    4 Ag      6 Au      5 Ag  

                   0.3       0.3       0.4       0.9       0.9       1.0       1.1       1.3
  
           1   -0.1169    0.4108    0.0106   -0.0118   -0.0227    0.0052   -0.0655    0.0072
           2   -0.1644    0.2476    0.1214    0.0120    0.0177    0.1050   -0.0209    0.1275
           3   -0.1969    0.0149    0.4422   -0.1021    0.0964   -0.1282   -0.0492   -0.3020
           4   -0.1169    0.4109    0.0093   -0.0090   -0.0236   -0.0044   -0.0656    0.0019
           5   -0.1718    0.2520   -0.1071    0.0036    0.0223   -0.1091   -0.0229   -0.1592
           6   -0.1930    0.0157   -0.4390    0.1350    0.0073    0.1330   -0.0465    0.3443
           7    0.0026    0.0452   -0.0544    0.0031   -0.0485    0.0751    0.0442   -0.0390
           8   -0.0531   -0.0066    0.1151    0.0145    0.0189    0.1377    0.0531    0.1516
           9    0.0727    0.0520    0.0139   -0.0409    0.1328    0.0842    0.0120    0.1885
          10    0.0088    0.0421    0.0581   -0.0386   -0.0348   -0.0723    0.0418    0.0568
          11   -0.0626   -0.0028   -0.1125    0.0023    0.0246   -0.1409    0.0506   -0.1743
          12    0.0605    0.0417   -0.0172    0.1157    0.0737   -0.0829    0.0095   -0.1928
          13    0.2595   -0.1231    0.3153    0.0898    0.0185    0.1098    0.0050    0.2832
          14   -0.1885   -0.2840   -0.1843   -0.2233   -0.0700   -0.0412    0.0179   -0.2524
          15    0.2640    0.0670    0.1625    0.2895    0.1452   -0.0165    0.0014   -0.0220
          16    0.2616   -0.1222   -0.3330   -0.0551    0.0765   -0.1050    0.0034   -0.2710
          17   -0.2030   -0.2893    0.1754    0.1264   -0.1991    0.0387    0.0165    0.2548
          18    0.2922    0.0758   -0.1742   -0.1248    0.3008    0.0188    0.0032    0.0032
          19    0.0019   -0.2198    0.0710   -0.0145   -0.0079   -0.1690    0.2282    0.1769
          20    0.1321   -0.0918   -0.0513   -0.0037   -0.0015   -0.1560    0.1956    0.0658
          21    0.1589    0.0187    0.0238    0.0817    0.0496   -0.0817    0.0648   -0.0952
          22   -0.0303   -0.2035   -0.0763    0.0071   -0.0182    0.1656    0.2279   -0.1702
          23    0.1548   -0.0921    0.0454    0.0027   -0.0056    0.1543    0.1961   -0.0710
          24    0.1780    0.0308   -0.0312   -0.0298    0.0920    0.0825    0.0659    0.0921
          25   -0.0435   -0.0615   -0.0787   -0.0061    0.0192    0.0020    0.0236   -0.0645
          26    0.0907    0.0009    0.0886   -0.0075    0.0010   -0.0086    0.0191   -0.0351
          27   -0.0160   -0.0098   -0.0238    0.0401   -0.0840    0.0086    0.0140    0.0314
          28    0.1186    0.0684   -0.1062    0.1752   -0.3819   -0.2331   -0.2496    0.0887
          29   -0.1392   -0.0803    0.1325   -0.2268    0.4592   -0.2052   -0.2573    0.1175
          30   -0.0379   -0.0073   -0.0212    0.0449   -0.0970   -0.0665   -0.0819    0.0962
          31   -0.0690   -0.1466   -0.1098   -0.0275    0.0698   -0.1035   -0.0859   -0.0306
          32    0.1229    0.2213    0.1714    0.0915   -0.2355    0.1654    0.2131   -0.1920
          33   -0.1287   -0.1173   -0.0403    0.1222   -0.2704   -0.2521   -0.2556    0.0262
          34   -0.1849    0.0398   -0.0749   -0.1209    0.3226    0.1696    0.1017    0.1517
          35    0.2626   -0.0348    0.0920    0.0009   -0.0617   -0.2622   -0.2183    0.0135
          36   -0.1802   -0.0171   -0.0254    0.0939   -0.1699    0.2533    0.2895   -0.1467
          37   -0.0211   -0.0711    0.0769    0.0178    0.0097   -0.0029    0.0232    0.0627
          38    0.0660    0.0102   -0.0890    0.0073   -0.0040    0.0097    0.0193    0.0379
          39   -0.0052   -0.0148    0.0271   -0.0835   -0.0375   -0.0080    0.0156   -0.0211
          40    0.1096    0.0547    0.0961   -0.3831   -0.1815    0.2310   -0.2481   -0.1100
          41   -0.1341   -0.0594   -0.1296    0.4683    0.2011    0.2091   -0.2565   -0.1082
          42   -0.0256   -0.0115    0.0234   -0.0963   -0.0451    0.0672   -0.0794   -0.0866
          43   -0.1444    0.0355    0.0891    0.3062    0.1690   -0.1702    0.1012   -0.1618
          44    0.2158   -0.0329   -0.0999   -0.0420   -0.0481    0.2689   -0.2159    0.0135
          45   -0.1486   -0.0153    0.0306   -0.1792   -0.0672   -0.2602    0.2889    0.1310
          46   -0.0356   -0.1597    0.1071    0.0676    0.0336    0.1022   -0.0855    0.0180
          47    0.0718    0.2420   -0.1681   -0.2259   -0.1194   -0.1657    0.2106    0.2102
          48   -0.0940   -0.1233    0.0488   -0.2663   -0.1268    0.2487   -0.2521   -0.0465


   Root No.      17        18        19        20        21        22        23        24

                 7 Au     18 ????   19 ????    6 Ag      8 Au      7 Ag      9 Au      8 Ag  

                   1.3       1.6       1.6       1.8       1.8       2.0       2.5       2.6
  
           1    0.0747    0.0010    0.0468   -0.0034    0.0441   -0.0171   -0.0891   -0.0305
           2   -0.2582   -0.1551    0.0064   -0.0485    0.0428   -0.2396    0.0168   -0.1232
           3    0.4202   -0.0138   -0.0415   -0.1066    0.0189   -0.0837    0.3272    0.0900
           4    0.0747    0.0223    0.0399    0.0120    0.0438    0.0207   -0.0935    0.0048
           5   -0.2432    0.1298   -0.0769    0.0512    0.0438    0.2380   -0.0069    0.1198
           6    0.3806   -0.0222   -0.0521    0.1117    0.0122    0.0817    0.3424   -0.0054
           7    0.1563   -0.0691    0.0656   -0.1515   -0.0702   -0.1437    0.0515   -0.2760
           8   -0.1800   -0.1781   -0.0023   -0.0566   -0.0386   -0.2448    0.0816   -0.1203
           9   -0.0393   -0.0675   -0.0215    0.1184   -0.0159    0.0893   -0.1824   -0.0826
          10    0.1482    0.0946    0.0035    0.1425   -0.0760    0.1438   -0.0194    0.2894
          11   -0.1617    0.1478   -0.0964    0.0496   -0.0374    0.2419    0.0570    0.1423
          12   -0.0136    0.0523   -0.0488   -0.1231   -0.0086   -0.0884   -0.1976    0.0362
          13    0.0321   -0.0445   -0.0373    0.0797    0.0022   -0.0131    0.1446   -0.0389
          14   -0.0100   -0.1057    0.1543   -0.1436   -0.0110   -0.2346   -0.1887   -0.1649
          15   -0.1505    0.0828   -0.1831   -0.0749    0.0274    0.0370    0.0119   -0.0376
          16    0.0633    0.0161   -0.0444   -0.0754    0.0088    0.0120    0.1298    0.0711
          17   -0.0401    0.1706    0.0523    0.1462   -0.0163    0.2401   -0.2222    0.1109
          18   -0.1574   -0.1709   -0.1101    0.0739    0.0226   -0.0406   -0.0018    0.0368
          19    0.0931    0.0205   -0.0790    0.1055   -0.2096   -0.2700   -0.0929    0.0441
          20   -0.0615    0.0147    0.0153    0.1484   -0.1726   -0.0228    0.1983   -0.2516
          21   -0.0281   -0.0053    0.0205   -0.0530   -0.0594   -0.1432   -0.1317   -0.1232
          22    0.1099   -0.0608   -0.0520   -0.1175   -0.1960    0.2764   -0.0755   -0.0679
          23   -0.0558   -0.0035    0.0227   -0.1616   -0.1613    0.0242    0.1288    0.2938
          24   -0.0431    0.0178    0.0067    0.0478   -0.0599    0.1461   -0.1564    0.0875
          25    0.0245    0.0060   -0.0861    0.2357    0.2030    0.0135   -0.1482   -0.2001
          26   -0.0054    0.1236    0.0280    0.0830    0.1682   -0.2025    0.1909    0.2399
          27    0.0168    0.2996    0.1797   -0.0917    0.0261    0.0021   -0.0493   -0.1450
          28   -0.1691   -0.1515    0.0178   -0.2117   -0.1932   -0.0489    0.1190    0.1422
          29    0.1283   -0.2210   -0.0923   -0.0057   -0.1562    0.1836   -0.0918   -0.0353
          30    0.0050    0.2856    0.2281   -0.2325   -0.1162    0.0856   -0.1108   -0.2630
          31   -0.0684   -0.0143   -0.1233    0.3489    0.3340   -0.1290   -0.0810   -0.0853
          32    0.2409   -0.2000   -0.1482    0.0597   -0.0703    0.2101   -0.1523   -0.1880
          33   -0.1094   -0.3602   -0.1665    0.0022   -0.0985   -0.0061    0.0489    0.1152
          34   -0.1711    0.2117    0.2062   -0.2401   -0.1248   -0.0855    0.1285    0.1676
          35    0.1484    0.3652    0.1510    0.0799    0.2277   -0.1034    0.0309   -0.0732
          36   -0.0928    0.0112   -0.0754    0.1846    0.2236   -0.1897    0.1233    0.1527
          37    0.0192   -0.0492   -0.0692   -0.2230    0.2189   -0.0165   -0.1945    0.1549
          38   -0.0101   -0.0882    0.0892   -0.0722    0.1773    0.1958    0.2456   -0.1834
          39    0.0169   -0.1525    0.3126    0.0983    0.0212    0.0031   -0.0867    0.1291
          40   -0.1637    0.1332   -0.0666    0.1956   -0.2062    0.0493    0.1522   -0.1083
          41    0.1449    0.1366   -0.1938   -0.0062   -0.1617   -0.1819   -0.1000    0.0106
          42    0.0115   -0.1155    0.3478    0.2312   -0.1321   -0.0751   -0.1767    0.2281
          43   -0.1542   -0.0643    0.2892    0.2323   -0.1383    0.0883    0.1673   -0.1272
          44    0.1436   -0.2231    0.3245   -0.0588    0.2361    0.1031    0.0081    0.0797
          45   -0.1044   -0.0502   -0.0594   -0.1721    0.2385    0.1812    0.1579   -0.1169
          46   -0.0696   -0.0517   -0.1113   -0.3296    0.3596    0.1198   -0.0990    0.0603
          47    0.2199    0.0863   -0.2338   -0.0648   -0.0704   -0.2073   -0.1961    0.1430
          48   -0.1125    0.2088   -0.3368   -0.0143   -0.1000    0.0007    0.0816   -0.1017


   Root No.      25        26        27        28        29        30        31        32

                10 Au     11 Au      9 Ag     12 Au     10 Ag     11 Ag     13 Au     12 Ag  

                   3.3       3.4       4.6       5.4       5.4       7.8       8.1       8.9
  
           1   -0.2327   -0.1357    0.0047    0.0155   -0.0036    0.0444   -0.1521    0.0432
           2    0.1914   -0.1836    0.2498   -0.0321   -0.1112    0.3881    0.2008    0.2745
           3    0.0691   -0.0836    0.0151    0.0647    0.0278    0.0052    0.0381   -0.0181
           4   -0.2328   -0.1353   -0.0037    0.0150    0.0046   -0.0462   -0.1519   -0.0387
           5    0.1903   -0.1828   -0.2525   -0.0420    0.1079   -0.3862    0.2039   -0.2800
           6    0.0698   -0.0768   -0.0143    0.0656   -0.0223   -0.0054    0.0389    0.0177
           7    0.0214    0.4853   -0.4481    0.0215    0.1642   -0.0058    0.0870    0.0479
           8    0.2656    0.2995    0.0899   -0.0203   -0.0377   -0.2407   -0.1050   -0.2483
           9   -0.1270    0.1686   -0.1740   -0.0586   -0.0124   -0.0767   -0.0819    0.0718
          10    0.0220    0.4816    0.4502    0.0335   -0.1618    0.0074    0.0879   -0.0504
          11    0.2649    0.2973   -0.0892   -0.0246    0.0358    0.2405   -0.1062    0.2534
          12   -0.1263    0.1641    0.1728   -0.0608    0.0078    0.0760   -0.0832   -0.0724
          13    0.0610   -0.1823   -0.0508    0.0243   -0.0055   -0.0974    0.0872   -0.0428
          14   -0.2165   -0.0722   -0.0206   -0.0108    0.0122    0.0140   -0.0577    0.0013
          15    0.0991   -0.0702   -0.1877   -0.0827    0.1354    0.1616   -0.1672    0.0579
          16    0.0636   -0.1853    0.0512    0.0277    0.0069    0.0976    0.0853    0.0408
          17   -0.2136   -0.0727    0.0202   -0.0057   -0.0129   -0.0150   -0.0579   -0.0004
          18    0.0996   -0.0700    0.1869   -0.0698   -0.1425   -0.1634   -0.1652   -0.0561
          19    0.1071   -0.1719   -0.0510   -0.2221    0.2248    0.1377   -0.1939   -0.1498
          20   -0.1269   -0.0765   -0.0962    0.2428   -0.1955   -0.1249    0.1762    0.1742
          21   -0.2647    0.0413    0.1698    0.0936   -0.1597   -0.2155    0.1736   -0.0884
          22    0.1053   -0.1695    0.0490   -0.2025   -0.2432   -0.1401   -0.1911    0.1480
          23   -0.1274   -0.0839    0.0986    0.2228    0.2150    0.1262    0.1732   -0.1740
          24   -0.2654    0.0397   -0.1681    0.0790    0.1665    0.2174    0.1700    0.0867
          25    0.1119   -0.0107    0.0318   -0.1017   -0.1096    0.0952    0.1410   -0.2962
          26   -0.1617    0.0426   -0.0496    0.1291    0.1420   -0.2363   -0.2771    0.0680
          27    0.1060   -0.0218    0.0139   -0.0148   -0.0082    0.2372    0.3252   -0.3339
          28   -0.0464    0.0037   -0.0225   -0.0351   -0.0340    0.0191    0.0290   -0.0213
          29   -0.0590    0.0149   -0.0656   -0.0530   -0.0353    0.0583    0.0623   -0.0177
          30    0.2766   -0.0738    0.2486    0.2360    0.2013   -0.2082   -0.2502    0.1614
          31    0.0470    0.0098    0.1482    0.3468    0.3530    0.0157    0.0061    0.1147
          32    0.0921   -0.0243    0.0504    0.0652    0.0632    0.0108    0.0086    0.0392
          33   -0.0655    0.0138   -0.0348   -0.0446   -0.0466   -0.0100   -0.0131   -0.0066
          34   -0.0709    0.0044   -0.0448   -0.0731   -0.0765    0.0020   -0.0059    0.0495
          35    0.0140    0.0051   -0.1081   -0.3005   -0.3131    0.0151   -0.0052    0.1093
          36   -0.0934    0.0258   -0.0911   -0.1901   -0.1926   -0.0056   -0.0230    0.0947
          37    0.1132   -0.0168   -0.0348   -0.1106    0.1009   -0.0920    0.1413    0.3216
          38   -0.1615    0.0471    0.0509    0.1410   -0.1296    0.2347   -0.2836   -0.0481
          39    0.1048   -0.0217   -0.0142   -0.0157    0.0072   -0.2319    0.3264    0.3462
          40   -0.0445    0.0056    0.0226   -0.0347    0.0308   -0.0188    0.0288    0.0206
          41   -0.0568    0.0120    0.0650   -0.0532    0.0308   -0.0575    0.0625    0.0170
          42    0.2735   -0.0724   -0.2464    0.2548   -0.1805    0.2043   -0.2521   -0.1644
          43   -0.0730    0.0119    0.0477   -0.0812    0.0689   -0.0025   -0.0047   -0.0560
          44    0.0116    0.0071    0.1097   -0.3273    0.2846   -0.0166   -0.0031   -0.1234
          45   -0.0925    0.0272    0.0922   -0.2038    0.1748    0.0043   -0.0221   -0.1055
          46    0.0477    0.0051   -0.1497    0.3767   -0.3200   -0.0163    0.0061   -0.1310
          47    0.0935   -0.0295   -0.0525    0.0686   -0.0562   -0.0105    0.0082   -0.0451
          48   -0.0636    0.0096    0.0313   -0.0529    0.0439    0.0107   -0.0141    0.0091


   Root No.      33        34        35        36        37        38        39        40

                14 Au     13 Ag     15 Au     14 Ag     16 Au     17 Au     15 Ag     16 Ag  

                   9.0       9.0       9.5       9.6       9.8      11.6      11.7      25.8
  
           1    0.0077   -0.0222    0.1694    0.0100   -0.1715    0.0704    0.0033    0.0493
           2   -0.0023   -0.1777   -0.2399    0.0630    0.2466   -0.0891   -0.0519   -0.0145
           3    0.0026    0.0080   -0.0093   -0.0159   -0.0392    0.0132   -0.0051    0.0013
           4    0.0081    0.0247    0.1704   -0.0064   -0.1711    0.0696    0.0091   -0.0457
           5   -0.0010    0.1750   -0.2333   -0.0671    0.2480   -0.0966    0.0350    0.0100
           6    0.0022   -0.0071   -0.0102    0.0139   -0.0398    0.0122    0.0074   -0.0022
           7   -0.0099   -0.0169   -0.1256    0.0046    0.1196   -0.1357   -0.1287   -0.2789
           8    0.0005    0.1459    0.1704   -0.0906   -0.1966    0.2809    0.3095    0.2051
           9   -0.0047   -0.0265    0.0173    0.1082    0.0938   -0.2945   -0.3410    0.4442
          10   -0.0078    0.0144   -0.1246   -0.0075    0.1209   -0.1580    0.1026    0.2295
          11   -0.0008   -0.1431    0.1637    0.0907   -0.1981    0.3319   -0.2545   -0.1699
          12   -0.0038    0.0241    0.0227   -0.1013    0.0953   -0.3513    0.2826   -0.3615
          13    0.0005    0.0298   -0.0850    0.0261    0.0289    0.0610   -0.0463   -0.2109
          14    0.0002   -0.0019    0.0582   -0.0203   -0.0220   -0.0483    0.0404    0.1547
          15    0.0002   -0.0410    0.1618   -0.0682   -0.0497   -0.1095    0.0810    0.3437
          16    0.0003   -0.0299   -0.0840   -0.0300    0.0298    0.0523    0.0565    0.2566
          17    0.0004    0.0022    0.0571    0.0231   -0.0218   -0.0394   -0.0481   -0.1877
          18    0.0025    0.0401    0.1600    0.0779   -0.0502   -0.0926   -0.0988   -0.4187
          19   -0.0224    0.0397    0.0394   -0.1769    0.2152    0.0865   -0.1052   -0.0082
          20   -0.0118   -0.0996    0.0411    0.1523   -0.2724   -0.2620    0.2609    0.0002
          21   -0.0049    0.0607   -0.2514    0.1710    0.0281    0.4577   -0.3845    0.0286
          22   -0.0262   -0.0441    0.0286    0.1862    0.2103    0.0668    0.1202    0.0096
          23   -0.0106    0.1007    0.0522   -0.1567   -0.2668   -0.2118   -0.3043    0.0010
          24   -0.0087   -0.0601   -0.2458   -0.1880    0.0309    0.3797    0.4592   -0.0366
          25    0.4535   -0.3146   -0.1104   -0.2840   -0.2716   -0.0460   -0.0902   -0.0109
          26    0.3688   -0.3973   -0.0078    0.2358    0.2784    0.0400    0.0820    0.0122
          27    0.1286    0.0564    0.4114    0.4043    0.1726    0.0463    0.0681    0.0055
          28   -0.0227    0.0367    0.0568    0.0592    0.0262   -0.0060   -0.0038    0.0025
          29   -0.0190    0.0272    0.0173    0.0148    0.0095    0.0200    0.0241   -0.0027
          30    0.0036   -0.0912   -0.2178   -0.2214   -0.1070   -0.0351   -0.0510   -0.0014
          31   -0.2986    0.2469    0.0905    0.1245    0.0855    0.0097    0.0174   -0.0004
          32   -0.1110    0.0926    0.0288    0.0380    0.0280    0.0084    0.0134   -0.0011
          33    0.0457   -0.0447   -0.0351   -0.0436   -0.0266   -0.0054   -0.0087    0.0015
          34   -0.1050    0.0784   -0.0265   -0.0434   -0.0289   -0.0080   -0.0115    0.0005
          35   -0.2264    0.1660   -0.0784   -0.1211   -0.0771   -0.0095   -0.0141   -0.0005
          36   -0.1698    0.1178   -0.0812   -0.1174   -0.0741   -0.0122   -0.0188    0.0015
          37    0.4053    0.3558   -0.1309    0.2674   -0.2768   -0.0602    0.0798    0.0094
          38    0.3325    0.4265    0.0024   -0.2286    0.2885    0.0495   -0.0709   -0.0099
          39    0.1118   -0.0420    0.4274   -0.3805    0.1865    0.0520   -0.0555   -0.0046
          40   -0.0209   -0.0385    0.0593   -0.0554    0.0279   -0.0068    0.0033   -0.0021
          41   -0.0173   -0.0284    0.0180   -0.0141    0.0102    0.0243   -0.0200    0.0022
          42    0.0052    0.0898   -0.2279    0.2082   -0.1138   -0.0420    0.0433    0.0013
          43   -0.0940   -0.0875   -0.0278    0.0416   -0.0311   -0.0101    0.0099   -0.0004
          44   -0.2025   -0.1857   -0.0823    0.1161   -0.0824   -0.0098    0.0109    0.0003
          45   -0.1517   -0.1327   -0.0854    0.1119   -0.0786   -0.0131    0.0155   -0.0012
          46   -0.2679   -0.2727    0.1003   -0.1159    0.0868    0.0146   -0.0162    0.0001
          47   -0.0995   -0.1023    0.0325   -0.0352    0.0281    0.0116   -0.0123    0.0006
          48    0.0413    0.0484   -0.0365    0.0410   -0.0283   -0.0054    0.0065   -0.0013


   Root No.      41        42

                18 Au     17 Ag  

                  25.8      29.5
  
           1    0.0125   -0.7017
           2   -0.0213    0.0635
           3   -0.0048   -0.0007
           4    0.0232    0.7018
           5   -0.0241   -0.0634
           6   -0.0042    0.0011
           7   -0.2211   -0.0028
           8    0.1589   -0.0085
           9    0.3794    0.0289
          10   -0.2710    0.0028
          11    0.1958    0.0080
          12    0.4594   -0.0301
          13    0.2510   -0.0225
          14   -0.1837    0.0251
          15   -0.4182    0.0364
          16    0.2056    0.0223
          17   -0.1496   -0.0248
          18   -0.3423   -0.0358
          19    0.0067   -0.0022
          20    0.0063    0.0102
          21   -0.0439   -0.0069
          22    0.0051    0.0022
          23    0.0061   -0.0102
          24   -0.0373    0.0070
          25   -0.0079   -0.0029
          26    0.0089    0.0017
          27    0.0027   -0.0008
          28    0.0019    0.0000
          29   -0.0021    0.0001
          30   -0.0001   -0.0000
          31   -0.0000    0.0001
          32   -0.0010    0.0002
          33    0.0013   -0.0001
          34    0.0006    0.0000
          35   -0.0007    0.0000
          36    0.0015    0.0001
          37   -0.0101    0.0030
          38    0.0106   -0.0017
          39    0.0032    0.0009
          40    0.0026    0.0000
          41   -0.0024   -0.0001
          42   -0.0002    0.0001
          43    0.0005   -0.0000
          44   -0.0007   -0.0000
          45    0.0020   -0.0001
          46    0.0003   -0.0000
          47   -0.0008   -0.0002
          48    0.0016    0.0001


          FORCE CONSTANTS IN MILLIDYNES/ANGSTROM (= 10**5 DYNES/CM)

  -0.00454  -0.00034   0.00413   0.01370   0.04626   0.05047   0.06492   0.23705
   0.27506   0.29131   0.38617   0.88219   0.88937   1.02009   1.07662   1.27992
   1.28534   1.61544   1.62494   1.78683   1.80035   2.01204   2.53046   2.57121
   3.26740   3.37943   4.57492   5.35573   5.40173   7.84659   8.10778   8.88712
   8.99573   9.03127   9.46554   9.58952   9.79798  11.62761  11.66450  25.82630
  25.84643  29.50481


           ASSOCIATED EIGENVECTORS




    ROOT NO.    1           2           3           4           5           6

            -0.00454    -0.00034     0.00413     0.01370     0.04626     0.05047
  
         1   0.07396     0.21092     0.01634    -0.03500     0.13870    -0.03943
         2   0.01362     0.10327    -0.01286    -0.17445     0.06652     0.03501
         3  -0.07532    -0.08268    -0.03162    -0.27018    -0.17272    -0.28328
         4   0.07405     0.21083     0.01690    -0.03480     0.13774    -0.04278
         5   0.01111     0.09603     0.08878    -0.14801     0.03310    -0.07944
         6  -0.06521    -0.05661     0.13396    -0.27516    -0.03013     0.31226
         7   0.08362     0.20020    -0.09075    -0.02627     0.06826     0.05479
         8   0.01951     0.09028    -0.07237    -0.16569     0.01075     0.09007
         9  -0.04656    -0.05095    -0.00845    -0.15326    -0.09556    -0.20397
        10   0.07206     0.18349     0.11549     0.02159     0.02310    -0.10182
        11   0.01023     0.07560     0.14465    -0.11190    -0.04710    -0.10936
        12  -0.03360    -0.01780     0.07369    -0.17365    -0.01515     0.21626
        13   0.16489     0.30855     0.29700     0.17923    -0.24967    -0.04928
        14   0.03805     0.11388     0.33018    -0.11985    -0.30320     0.00737
        15   0.01101     0.04186     0.10037    -0.07098    -0.06572     0.19133
        16   0.20913     0.35357    -0.26778     0.04863    -0.23279     0.12705
        17   0.06562     0.14972    -0.21489    -0.24339    -0.30102     0.09379
        18   0.01007     0.01758    -0.05327    -0.07063    -0.13690    -0.15713
        19  -0.06182    -0.01791    -0.03618    -0.12604     0.23467    -0.13877
        20  -0.03045     0.00687    -0.03249    -0.03371     0.18041    -0.28776
        21  -0.04471    -0.03899     0.01110    -0.13727     0.06310     0.15361
        22  -0.07362    -0.03765     0.05678    -0.09554     0.32229    -0.01205
        23  -0.03530     0.01084     0.02956    -0.03518     0.32859     0.15325
        24  -0.06129    -0.07565     0.02618    -0.09960     0.01389    -0.18150
        25  -0.07038    -0.16386     0.03682     0.01302    -0.03123    -0.10111
        26  -0.01225    -0.06345     0.00452     0.10220     0.06542     0.12720
        27   0.02265     0.02043    -0.01189     0.12203     0.04306    -0.04156
        28  -0.36408    -0.12120    -0.18530    -0.04198    -0.21151    -0.21425
        29  -0.18429     0.10701    -0.21939     0.24141     0.06377     0.21255
        30  -0.05962     0.05613    -0.08977     0.13518     0.01075    -0.04807
        31  -0.04125    -0.12844     0.05687    -0.00835     0.07563    -0.06653
        32   0.10164    -0.24409     0.11119     0.19108    -0.20566     0.05365
        33   0.37736    -0.09407     0.28314     0.15307     0.18449     0.03017
        34   0.18428    -0.33568     0.23588     0.15222    -0.18686    -0.10244
        35   0.05209    -0.09666     0.10464    -0.02746     0.18215     0.10897
        36  -0.18823     0.15063    -0.24391     0.22624    -0.03478    -0.01600
        37  -0.06026    -0.14269    -0.05716    -0.02456     0.01155     0.12375
        38  -0.01298    -0.07523    -0.05985     0.10654     0.00680    -0.12468
        39   0.02531     0.02472    -0.03682     0.11277     0.05707     0.02803
        40  -0.37204    -0.10936     0.15073    -0.00671    -0.07650     0.30829
        41  -0.21434     0.05591     0.08165     0.34124    -0.00015    -0.18868
        42  -0.06542     0.05203     0.02454     0.15524     0.04091     0.05076
        43   0.21114    -0.30303    -0.28027     0.03234    -0.09844     0.21774
        44   0.06576    -0.08813    -0.09674    -0.06151     0.08230    -0.17841
        45  -0.21339     0.12168     0.12250     0.30912     0.01194     0.05189
        46  -0.02969    -0.10771    -0.06537    -0.04778     0.07505     0.03683
        47   0.11197    -0.24185    -0.18657     0.13867    -0.16268     0.08646
        48   0.40696    -0.06832    -0.29973     0.03709     0.12576    -0.10280




    ROOT NO.    7           8           9          10          11          12

             0.06492     0.23705     0.27506     0.29131     0.38617     0.88219
  
         1   0.00754    -0.01560    -0.11690     0.41078     0.01055    -0.01184
         2  -0.06207    -0.03417    -0.16444     0.24759     0.12145     0.01196
         3  -0.12448     0.11726    -0.19694     0.01488     0.44219    -0.10208
         4   0.01096    -0.01375    -0.11687     0.41088     0.00926    -0.00896
         5   0.06262     0.00139    -0.17178     0.25203    -0.10715     0.00357
         6   0.09957    -0.15116    -0.19297     0.01567    -0.43896     0.13496
         7  -0.08917     0.04924     0.00263     0.04517    -0.05442     0.00305
         8  -0.11530    -0.02686    -0.05312    -0.00663     0.11514     0.01447
         9  -0.15576    -0.09984     0.07267     0.05197     0.01388    -0.04087
        10   0.08124    -0.05384     0.00878     0.04212     0.05810    -0.03858
        11   0.09744     0.01614    -0.06257    -0.00282    -0.11253     0.00225
        12   0.14526     0.10936     0.06046     0.04169    -0.01718     0.11568
        13  -0.10606     0.06844     0.25955    -0.12307     0.31526     0.08978
        14  -0.03815    -0.15814    -0.18845    -0.28402    -0.18428    -0.22329
        15   0.08930     0.25790     0.26399     0.06699     0.16247     0.28947
        16   0.04088    -0.02793     0.26157    -0.12215    -0.33304    -0.05506
        17  -0.04161     0.12528    -0.20299    -0.28929     0.17539     0.12637
        18  -0.10666    -0.21220     0.29215     0.07579    -0.17421    -0.12477
        19   0.36091    -0.18983     0.00187    -0.21982     0.07096    -0.01450
        20   0.27300     0.11150     0.13208    -0.09183    -0.05128    -0.00372
        21   0.20214     0.16322     0.15885     0.01873     0.02380     0.08166
        22  -0.32830     0.19200    -0.03033    -0.20350    -0.07631     0.00708
        23  -0.23843    -0.08600     0.15477    -0.09214     0.04538     0.00267
        24  -0.19472    -0.13561     0.17805     0.03076    -0.03119    -0.02985
        25  -0.04436     0.10221    -0.04351    -0.06145    -0.07867    -0.00614
        26   0.03130    -0.11085     0.09074     0.00087     0.08861    -0.00751
        27  -0.00422     0.04727    -0.01599    -0.00983    -0.02376     0.04009
        28  -0.01643    -0.08648     0.11860     0.06843    -0.10619     0.17517
        29   0.16443     0.09209    -0.13922    -0.08025     0.13250    -0.22681
        30   0.02289     0.06035    -0.03793    -0.00727    -0.02118     0.04489
        31  -0.12366     0.17629    -0.06905    -0.14656    -0.10978    -0.02755
        32   0.27315    -0.27513     0.12286     0.22127     0.17137     0.09147
        33  -0.03862     0.20052    -0.12872    -0.11732    -0.04031     0.12221
        34   0.18818     0.14379    -0.18490     0.03985    -0.07491    -0.12094
        35  -0.15608    -0.21434     0.26259    -0.03478     0.09199     0.00086
        36   0.13137     0.17071    -0.18018    -0.01710    -0.02542     0.09389
        37   0.05260    -0.10392    -0.02109    -0.07114     0.07691     0.01777
        38  -0.01406     0.12536     0.06602     0.01020    -0.08900     0.00731
        39   0.01545    -0.04889    -0.00524    -0.01485     0.02709    -0.08345
        40   0.01808     0.10569     0.10963     0.05471     0.09606    -0.38307
        41  -0.14476    -0.10990    -0.13409    -0.05936    -0.12957     0.46826
        42  -0.01239    -0.06561    -0.02559    -0.01152     0.02337    -0.09633
        43  -0.18887    -0.16499    -0.14438     0.03546     0.08908     0.30617
        44   0.17818     0.25187     0.21578    -0.03285    -0.09990    -0.04196
        45  -0.12201    -0.19480    -0.14863    -0.01528     0.03064    -0.17924
        46   0.13644    -0.18131    -0.03559    -0.15968     0.10713     0.06763
        47  -0.26965     0.29175     0.07182     0.24204    -0.16813    -0.22591
        48   0.05288    -0.21846    -0.09398    -0.12332     0.04878    -0.26626




    ROOT NO.   13          14          15          16          17          18

             0.88937     1.02009     1.07662     1.27992     1.28534     1.61544
  
         1  -0.02268     0.00517    -0.06554     0.00716     0.07475     0.00101
         2   0.01766     0.10501    -0.02093     0.12755    -0.25822    -0.15505
         3   0.09642    -0.12823    -0.04923    -0.30199     0.42025    -0.01384
         4  -0.02359    -0.00445    -0.06558     0.00190     0.07469     0.02226
         5   0.02234    -0.10906    -0.02292    -0.15924    -0.24315     0.12984
         6   0.00734     0.13299    -0.04646     0.34431     0.38065    -0.02220
         7  -0.04846     0.07509     0.04421    -0.03896     0.15629    -0.06910
         8   0.01890     0.13772     0.05309     0.15155    -0.18003    -0.17806
         9   0.13279     0.08422     0.01195     0.18845    -0.03932    -0.06746
        10  -0.03481    -0.07231     0.04184     0.05678     0.14820     0.09460
        11   0.02459    -0.14088     0.05062    -0.17426    -0.16172     0.14777
        12   0.07370    -0.08295     0.00952    -0.19283    -0.01357     0.05231
        13   0.01851     0.10977     0.00502     0.28321     0.03210    -0.04449
        14  -0.07003    -0.04118     0.01789    -0.25238    -0.01003    -0.10567
        15   0.14518    -0.01654     0.00138    -0.02200    -0.15048     0.08278
        16   0.07653    -0.10501     0.00341    -0.27103     0.06330     0.01614
        17  -0.19907     0.03866     0.01645     0.25479    -0.04006     0.17062
        18   0.30079     0.01878     0.00316     0.00324    -0.15740    -0.17095
        19  -0.00791    -0.16898     0.22824     0.17689     0.09309     0.02053
        20  -0.00154    -0.15596     0.19559     0.06576    -0.06146     0.01475
        21   0.04964    -0.08173     0.06483    -0.09518    -0.02805    -0.00528
        22  -0.01815     0.16556     0.22786    -0.17017     0.10993    -0.06082
        23  -0.00558     0.15433     0.19612    -0.07096    -0.05580    -0.00351
        24   0.09205     0.08245     0.06587     0.09214    -0.04311     0.01784
        25   0.01922     0.00197     0.02362    -0.06448     0.02446     0.00597
        26   0.00104    -0.00856     0.01905    -0.03513    -0.00545     0.12357
        27  -0.08404     0.00857     0.01403     0.03142     0.01677     0.29960
        28  -0.38191    -0.23305    -0.24960     0.08866    -0.16910    -0.15151
        29   0.45918    -0.20521    -0.25728     0.11752     0.12829    -0.22103
        30  -0.09698    -0.06653    -0.08188     0.09619     0.00496     0.28557
        31   0.06984    -0.10349    -0.08594    -0.03060    -0.06835    -0.01434
        32  -0.23546     0.16540     0.21307    -0.19205     0.24089    -0.20000
        33  -0.27038    -0.25208    -0.25564     0.02621    -0.10944    -0.36021
        34   0.32261     0.16961     0.10169     0.15168    -0.17107     0.21172
        35  -0.06172    -0.26224    -0.21828     0.01346     0.14844     0.36521
        36  -0.16988     0.25329     0.28950    -0.14669    -0.09278     0.01123
        37   0.00967    -0.00292     0.02317     0.06272     0.01916    -0.04918
        38  -0.00402     0.00970     0.01932     0.03787    -0.01012    -0.08819
        39  -0.03750    -0.00796     0.01562    -0.02114     0.01690    -0.15253
        40  -0.18154     0.23095    -0.24813    -0.10999    -0.16365     0.13322
        41   0.20114     0.20911    -0.25649    -0.10823     0.14491     0.13661
        42  -0.04509     0.06719    -0.07942    -0.08663     0.01154    -0.11550
        43   0.16904    -0.17016     0.10118    -0.16179    -0.15420    -0.06426
        44  -0.04807     0.26887    -0.21591     0.01354     0.14359    -0.22314
        45  -0.06723    -0.26020     0.28890     0.13103    -0.10444    -0.05016
        46   0.03362     0.10224    -0.08546     0.01802    -0.06959    -0.05174
        47  -0.11937    -0.16571     0.21062     0.21023     0.21993     0.08627
        48  -0.12680     0.24871    -0.25213    -0.04651    -0.11247     0.20879




    ROOT NO.   19          20          21          22          23          24

             1.62494     1.78683     1.80035     2.01204     2.53046     2.57121
  
         1   0.04683    -0.00336     0.04406    -0.01713    -0.08907    -0.03052
         2   0.00643    -0.04852     0.04284    -0.23958     0.01682    -0.12319
         3  -0.04154    -0.10656     0.01886    -0.08368     0.32723     0.08998
         4   0.03992     0.01202     0.04377     0.02067    -0.09345     0.00475
         5  -0.07685     0.05121     0.04376     0.23800    -0.00688     0.11982
         6  -0.05214     0.11174     0.01225     0.08165     0.34243    -0.00538
         7   0.06565    -0.15151    -0.07022    -0.14371     0.05147    -0.27601
         8  -0.00231    -0.05663    -0.03856    -0.24480     0.08164    -0.12030
         9  -0.02155     0.11844    -0.01587     0.08931    -0.18239    -0.08264
        10   0.00346     0.14245    -0.07595     0.14381    -0.01940     0.28944
        11  -0.09639     0.04962    -0.03739     0.24186     0.05701     0.14226
        12  -0.04881    -0.12310    -0.00862    -0.08836    -0.19759     0.03616
        13  -0.03731     0.07968     0.00223    -0.01306     0.14462    -0.03890
        14   0.15425    -0.14363    -0.01096    -0.23463    -0.18871    -0.16494
        15  -0.18312    -0.07492     0.02742     0.03695     0.01188    -0.03760
        16  -0.04436    -0.07538     0.00880     0.01202     0.12984     0.07108
        17   0.05231     0.14618    -0.01634     0.24011    -0.22225     0.11088
        18  -0.11010     0.07388     0.02265    -0.04061    -0.00178     0.03683
        19  -0.07897     0.10546    -0.20959    -0.27000    -0.09287     0.04414
        20   0.01530     0.14844    -0.17260    -0.02276     0.19829    -0.25162
        21   0.02055    -0.05300    -0.05944    -0.14325    -0.13174    -0.12322
        22  -0.05196    -0.11747    -0.19604     0.27639    -0.07546    -0.06795
        23   0.02267    -0.16161    -0.16133     0.02416     0.12878     0.29379
        24   0.00667     0.04780    -0.05993     0.14612    -0.15639     0.08746
        25  -0.08614     0.23571     0.20297     0.01349    -0.14817    -0.20014
        26   0.02804     0.08301     0.16816    -0.20247     0.19087     0.23990
        27   0.17974    -0.09174     0.02615     0.00213    -0.04926    -0.14503
        28   0.01783    -0.21168    -0.19318    -0.04891     0.11901     0.14219
        29  -0.09232    -0.00569    -0.15617     0.18363    -0.09177    -0.03527
        30   0.22805    -0.23252    -0.11615     0.08565    -0.11078    -0.26297
        31  -0.12327     0.34893     0.33401    -0.12898    -0.08098    -0.08534
        32  -0.14817     0.05973    -0.07029     0.21005    -0.15226    -0.18799
        33  -0.16647     0.00225    -0.09849    -0.00610     0.04890     0.11520
        34   0.20624    -0.24014    -0.12484    -0.08546     0.12850     0.16757
        35   0.15097     0.07993     0.22767    -0.10335     0.03085    -0.07323
        36  -0.07543     0.18463     0.22359    -0.18965     0.12335     0.15270
        37  -0.06919    -0.22303     0.21886    -0.01652    -0.19454     0.15488
        38   0.08917    -0.07224     0.17733     0.19582     0.24562    -0.18344
        39   0.31260     0.09830     0.02124     0.00308    -0.08666     0.12908
        40  -0.06664     0.19557    -0.20619     0.04932     0.15222    -0.10829
        41  -0.19378    -0.00620    -0.16173    -0.18185    -0.10003     0.01064
        42   0.34782     0.23119    -0.13215    -0.07510    -0.17670     0.22812
        43   0.28919     0.23231    -0.13830     0.08830     0.16727    -0.12718
        44   0.32452    -0.05876     0.23607     0.10309     0.00813     0.07971
        45  -0.05943    -0.17211     0.23853     0.18120     0.15794    -0.11693
        46  -0.11127    -0.32956     0.35961     0.11977    -0.09898     0.06028
        47  -0.23384    -0.06484    -0.07044    -0.20730    -0.19610     0.14300
        48  -0.33684    -0.01427    -0.10004     0.00067     0.08156    -0.10174




    ROOT NO.   25          26          27          28          29          30

             3.26740     3.37943     4.57492     5.35573     5.40173     7.84659
  
         1  -0.23272    -0.13574     0.00467     0.01549    -0.00361     0.04440
         2   0.19143    -0.18360     0.24978    -0.03206    -0.11118     0.38805
         3   0.06912    -0.08361     0.01513     0.06470     0.02780     0.00521
         4  -0.23283    -0.13526    -0.00366     0.01500     0.00464    -0.04618
         5   0.19034    -0.18284    -0.25251    -0.04205     0.10794    -0.38616
         6   0.06976    -0.07678    -0.01433     0.06559    -0.02225    -0.00541
         7   0.02137     0.48534    -0.44814     0.02147     0.16422    -0.00577
         8   0.26564     0.29947     0.08990    -0.02028    -0.03766    -0.24071
         9  -0.12699     0.16858    -0.17398    -0.05855    -0.01239    -0.07672
        10   0.02204     0.48161     0.45019     0.03349    -0.16180     0.00741
        11   0.26493     0.29728    -0.08918    -0.02464     0.03576     0.24050
        12  -0.12630     0.16415     0.17279    -0.06082     0.00783     0.07602
        13   0.06104    -0.18225    -0.05080     0.02425    -0.00553    -0.09741
        14  -0.21645    -0.07215    -0.02065    -0.01085     0.01219     0.01404
        15   0.09908    -0.07018    -0.18775    -0.08270     0.13540     0.16164
        16   0.06361    -0.18534     0.05123     0.02767     0.00695     0.09762
        17  -0.21364    -0.07274     0.02023    -0.00569    -0.01287    -0.01502
        18   0.09958    -0.06996     0.18692    -0.06980    -0.14253    -0.16340
        19   0.10714    -0.17191    -0.05100    -0.22210     0.22478     0.13765
        20  -0.12693    -0.07650    -0.09624     0.24282    -0.19554    -0.12490
        21  -0.26473     0.04129     0.16980     0.09361    -0.15974    -0.21550
        22   0.10529    -0.16949     0.04901    -0.20254    -0.24319    -0.14012
        23  -0.12738    -0.08393     0.09859     0.22282     0.21500     0.12621
        24  -0.26536     0.03974    -0.16806     0.07902     0.16647     0.21740
        25   0.11194    -0.01070     0.03181    -0.10167    -0.10962     0.09515
        26  -0.16169     0.04264    -0.04964     0.12906     0.14197    -0.23633
        27   0.10596    -0.02176     0.01388    -0.01479    -0.00815     0.23719
        28  -0.04635     0.00375    -0.02249    -0.03509    -0.03397     0.01913
        29  -0.05904     0.01488    -0.06561    -0.05300    -0.03531     0.05829
        30   0.27661    -0.07379     0.24862     0.23603     0.20127    -0.20819
        31   0.04698     0.00983     0.14822     0.34684     0.35299     0.01566
        32   0.09209    -0.02427     0.05036     0.06523     0.06318     0.01076
        33  -0.06549     0.01381    -0.03480    -0.04458    -0.04657    -0.01002
        34  -0.07090     0.00438    -0.04483    -0.07307    -0.07650     0.00200
        35   0.01399     0.00512    -0.10813    -0.30050    -0.31312     0.01505
        36  -0.09338     0.02579    -0.09107    -0.19012    -0.19255    -0.00559
        37   0.11320    -0.01682    -0.03482    -0.11063     0.10095    -0.09196
        38  -0.16155     0.04711     0.05095     0.14103    -0.12959     0.23474
        39   0.10476    -0.02173    -0.01425    -0.01566     0.00721    -0.23193
        40  -0.04453     0.00560     0.02261    -0.03468     0.03084    -0.01878
        41  -0.05682     0.01195     0.06504    -0.05316     0.03077    -0.05749
        42   0.27349    -0.07239    -0.24643     0.25482    -0.18049     0.20428
        43  -0.07297     0.01193     0.04771    -0.08117     0.06889    -0.00247
        44   0.01161     0.00707     0.10966    -0.32734     0.28463    -0.01655
        45  -0.09252     0.02722     0.09218    -0.20381     0.17482     0.00432
        46   0.04769     0.00506    -0.14970     0.37674    -0.32004    -0.01633
        47   0.09346    -0.02952    -0.05255     0.06860    -0.05615    -0.01050
        48  -0.06358     0.00963     0.03134    -0.05293     0.04388     0.01069




    ROOT NO.   31          32          33          34          35          36

             8.10778     8.88712     8.99573     9.03127     9.46554     9.58952
  
         1  -0.15211     0.04316     0.00771    -0.02224     0.16938     0.00996
         2   0.20080     0.27447    -0.00228    -0.17774    -0.23987     0.06305
         3   0.03809    -0.01812     0.00255     0.00803    -0.00933    -0.01589
         4  -0.15193    -0.03875     0.00812     0.02474     0.17037    -0.00644
         5   0.20394    -0.27995    -0.00099     0.17498    -0.23330    -0.06710
         6   0.03886     0.01772     0.00225    -0.00710    -0.01018     0.01387
         7   0.08700     0.04787    -0.00994    -0.01687    -0.12559     0.00464
         8  -0.10495    -0.24829     0.00051     0.14593     0.17041    -0.09062
         9  -0.08188     0.07180    -0.00471    -0.02651     0.01731     0.10815
        10   0.08789    -0.05040    -0.00778     0.01437    -0.12464    -0.00753
        11  -0.10622     0.25337    -0.00078    -0.14315     0.16368     0.09067
        12  -0.08316    -0.07244    -0.00384     0.02407     0.02269    -0.10125
        13   0.08723    -0.04279     0.00053     0.02980    -0.08499     0.02611
        14  -0.05769     0.00126     0.00020    -0.00193     0.05821    -0.02025
        15  -0.16723     0.05785     0.00025    -0.04101     0.16182    -0.06819
        16   0.08529     0.04080     0.00030    -0.02985    -0.08403    -0.03001
        17  -0.05790    -0.00041     0.00035     0.00218     0.05708     0.02310
        18  -0.16521    -0.05614     0.00250     0.04012     0.16002     0.07785
        19  -0.19394    -0.14978    -0.02243     0.03972     0.03944    -0.17693
        20   0.17625     0.17420    -0.01183    -0.09958     0.04106     0.15226
        21   0.17358    -0.08843    -0.00490     0.06075    -0.25137     0.17101
        22  -0.19112     0.14800    -0.02615    -0.04407     0.02863     0.18623
        23   0.17318    -0.17403    -0.01060     0.10066     0.05222    -0.15674
        24   0.17002     0.08668    -0.00871    -0.06014    -0.24578    -0.18799
        25   0.14102    -0.29622     0.45347    -0.31461    -0.11036    -0.28404
        26  -0.27711     0.06805     0.36878    -0.39733    -0.00781     0.23581
        27   0.32521    -0.33388     0.12856     0.05637     0.41139     0.40430
        28   0.02896    -0.02133    -0.02270     0.03672     0.05683     0.05924
        29   0.06229    -0.01766    -0.01905     0.02722     0.01732     0.01477
        30  -0.25020     0.16145     0.00357    -0.09117    -0.21784    -0.22141
        31   0.00611     0.11474    -0.29863     0.24685     0.09046     0.12449
        32   0.00861     0.03921    -0.11101     0.09259     0.02884     0.03796
        33  -0.01314    -0.00656     0.04570    -0.04472    -0.03508    -0.04364
        34  -0.00591     0.04951    -0.10499     0.07839    -0.02646    -0.04339
        35  -0.00524     0.10930    -0.22644     0.16600    -0.07840    -0.12110
        36  -0.02296     0.09467    -0.16984     0.11784    -0.08123    -0.11739
        37   0.14131     0.32157     0.40528     0.35577    -0.13093     0.26737
        38  -0.28357    -0.04807     0.33252     0.42651     0.00236    -0.22862
        39   0.32635     0.34625     0.11182    -0.04203     0.42742    -0.38052
        40   0.02875     0.02062    -0.02094    -0.03845     0.05932    -0.05542
        41   0.06249     0.01697    -0.01730    -0.02843     0.01801    -0.01406
        42  -0.25214    -0.16442     0.00516     0.08977    -0.22790     0.20820
        43  -0.00467    -0.05599    -0.09397    -0.08752    -0.02776     0.04160
        44  -0.00313    -0.12335    -0.20255    -0.18565    -0.08231     0.11610
        45  -0.02210    -0.10553    -0.15169    -0.13270    -0.08539     0.11194
        46   0.00613    -0.13102    -0.26787    -0.27274     0.10033    -0.11588
        47   0.00824    -0.04507    -0.09954    -0.10227     0.03248    -0.03520
        48  -0.01410     0.00911     0.04135     0.04842    -0.03654     0.04097




    ROOT NO.   37          38          39          40          41          42

             9.79798    11.62761    11.66450    25.82630    25.84643    29.50481
  
         1  -0.17150     0.07036     0.00331     0.04932     0.01254    -0.70170
         2   0.24659    -0.08905    -0.05193    -0.01448    -0.02134     0.06352
         3  -0.03918     0.01320    -0.00514     0.00129    -0.00477    -0.00075
         4  -0.17110     0.06958     0.00913    -0.04570     0.02324     0.70176
         5   0.24795    -0.09660     0.03498     0.00998    -0.02408    -0.06338
         6  -0.03985     0.01216     0.00736    -0.00219    -0.00424     0.00113
         7   0.11964    -0.13569    -0.12871    -0.27889    -0.22107    -0.00279
         8  -0.19658     0.28087     0.30953     0.20505     0.15890    -0.00845
         9   0.09384    -0.29445    -0.34098     0.44424     0.37938     0.02891
        10   0.12090    -0.15799     0.10261     0.22954    -0.27098     0.00281
        11  -0.19812     0.33194    -0.25453    -0.16985     0.19579     0.00805
        12   0.09535    -0.35133     0.28258    -0.36150     0.45941    -0.03012
        13   0.02887     0.06103    -0.04630    -0.21091     0.25104    -0.02252
        14  -0.02200    -0.04832     0.04036     0.15472    -0.18373     0.02512
        15  -0.04966    -0.10952     0.08099     0.34368    -0.41822     0.03638
        16   0.02981     0.05229     0.05647     0.25662     0.20557     0.02229
        17  -0.02185    -0.03944    -0.04814    -0.18769    -0.14961    -0.02479
        18  -0.05019    -0.09265    -0.09881    -0.41867    -0.34228    -0.03583
        19   0.21517     0.08648    -0.10523    -0.00823     0.00673    -0.00224
        20  -0.27236    -0.26205     0.26092     0.00020     0.00626     0.01020
        21   0.02813     0.45774    -0.38447     0.02860    -0.04387    -0.00691
        22   0.21026     0.06680     0.12018     0.00960     0.00512     0.00216
        23  -0.26678    -0.21175    -0.30434     0.00103     0.00606    -0.01022
        24   0.03093     0.37973     0.45919    -0.03662    -0.03731     0.00701
        25  -0.27157    -0.04600    -0.09016    -0.01093    -0.00792    -0.00289
        26   0.27843     0.03999     0.08199     0.01216     0.00894     0.00167
        27   0.17258     0.04628     0.06805     0.00550     0.00270    -0.00084
        28   0.02616    -0.00603    -0.00384     0.00251     0.00191     0.00000
        29   0.00946     0.02000     0.02415    -0.00267    -0.00213     0.00012
        30  -0.10701    -0.03508    -0.05101    -0.00143    -0.00012    -0.00003
        31   0.08551     0.00966     0.01736    -0.00036    -0.00002     0.00007
        32   0.02802     0.00841     0.01339    -0.00109    -0.00102     0.00022
        33  -0.02661    -0.00542    -0.00874     0.00147     0.00130    -0.00008
        34  -0.02892    -0.00800    -0.01155     0.00050     0.00059     0.00002
        35  -0.07714    -0.00950    -0.01408    -0.00054    -0.00069     0.00004
        36  -0.07411    -0.01215    -0.01880     0.00148     0.00151     0.00013
        37  -0.27679    -0.06023     0.07979     0.00940    -0.01008     0.00304
        38   0.28852     0.04947    -0.07093    -0.00988     0.01064    -0.00170
        39   0.18652     0.05203    -0.05555    -0.00462     0.00319     0.00093
        40   0.02789    -0.00675     0.00327    -0.00213     0.00256     0.00004
        41   0.01021     0.02426    -0.01999     0.00217    -0.00243    -0.00012
        42  -0.11381    -0.04201     0.04332     0.00126    -0.00024     0.00007
        43  -0.03109    -0.01008     0.00991    -0.00041     0.00048    -0.00003
        44  -0.08243    -0.00981     0.01092     0.00034    -0.00072    -0.00004
        45  -0.07860    -0.01311     0.01551    -0.00121     0.00199    -0.00010
        46   0.08676     0.01458    -0.01623     0.00007     0.00031    -0.00004
        47   0.02807     0.01159    -0.01229     0.00057    -0.00083    -0.00024
        48  -0.02833    -0.00540     0.00650    -0.00128     0.00159     0.00011

          ZERO POINT ENERGY      64.734 KCAL/MOL


           FREQUENCIES, REDUCED MASSES AND VIBRATIONAL DIPOLES



   I         1         2         3         4         5         6
 FREQ(I)   16.2633   31.7649   54.1527   66.6527  102.1828  109.5730

 MASS(I)   0.51040   1.53160   0.17807   0.99507   1.43636   0.75613

 DIPX(I)  -0.14571  -0.35683  -0.00012  -0.23062   0.00009   0.32826
 DIPY(I)   0.08322  -0.26875   0.00000   0.28721  -0.00001  -0.02643
 DIPZ(I)  -0.05025  -0.14011  -0.00001   0.10497   0.00000  -0.01665

 DIPT(I)   0.17516   0.46817   0.00012   0.38301   0.00009   0.32974


   I         7         8         9        10        11        12
 FREQ(I)  134.9435  208.1438  223.9945  255.3705  298.8495  394.0111

 MASS(I)   1.85879   2.31406   2.38095   1.68411   1.35818   2.30607

 DIPX(I)  -0.00001   0.80049   0.00003  -0.24439   0.00000   0.00000
 DIPY(I)  -0.00001   0.55812  -0.00001   0.76399  -0.00002  -0.00001
 DIPZ(I)   0.00001   0.35125   0.00003  -0.65095   0.00002  -0.00000

 DIPT(I)   0.00002   1.03714   0.00004   1.03302   0.00003   0.00001


   I        13        14        15        16        17        18
 FREQ(I)  499.1661  515.9858  579.0496  671.5040  746.6111  928.4291

 MASS(I)   2.38393   1.73201   1.51489   3.81471   1.93139   1.20278

 DIPX(I)  -0.04417   0.00003   1.20804   2.92900   0.00001   0.00120
 DIPY(I)   0.54484  -0.00005  -1.46369   0.43771  -0.00001  -0.00088
 DIPZ(I)  -1.16848   0.00003   0.25409   0.64100   0.00002  -0.00186

 DIPT(I)   1.29001   0.00007   1.91476   3.03010   0.00002   0.00238


   I        19        20        21        22        23        24
 FREQ(I)  929.3115 1047.6859 1053.0393 1061.3809 1077.4643 1101.4519

 MASS(I)   0.92484   0.56428   0.29172   0.79488   2.47201   0.60114

 DIPX(I)  -0.69834   0.00003   0.11038   0.00001   1.32522   0.00004
 DIPY(I)   0.51779  -0.00000   0.08005  -0.00006  -2.18029  -0.00007
 DIPZ(I)   1.07034   0.00001   0.03869   0.00002   1.96901   0.00006

 DIPT(I)   1.37892   0.00004   0.14173   0.00007   3.22287   0.00010


   I        25        26        27        28        29        30
 FREQ(I) 1102.0634 1188.6705 1204.7760 1300.3914 1300.4762 1312.3699

 MASS(I)   0.43844   2.71087   2.67268   0.21913   0.21920   0.21341

 DIPX(I)   0.54125  -0.00004  -2.92373   0.00145   0.29412   0.00033
 DIPY(I)  -1.02213   0.00007   4.90270   0.00235   0.47873   0.00017
 DIPZ(I)   0.62595  -0.00005  -4.08383   0.00194   0.39236  -0.00044

 DIPT(I)   1.31511   0.00010   7.01871   0.00337   0.68530   0.00057


   I        31        32        33        34        35        36
 FREQ(I) 1312.4920 1364.8553 1364.8895 1798.6505 1802.3617 1890.6860

 MASS(I)   0.21261   0.18225   0.18247   3.39635   3.40294   6.93586

 DIPX(I)   0.54157  -0.52640  -0.02156  -0.00011  -4.86882   0.00000
 DIPY(I)   0.25941   0.68288   0.02798   0.00007   3.21707  -0.00000
 DIPZ(I)  -0.72739  -0.20323  -0.00834   0.00021   9.43788  -0.00001

 DIPT(I)   0.94324   0.88585   0.03630   0.00024  11.09633   0.00001


   I        37        38        39        40        41        42
 FREQ(I) 2648.0581 2648.1480 2654.3746 2654.4015 2813.3933 2813.7872

 MASS(I)   0.25764   0.25769   0.24682   0.24695   0.16603   0.16603

 DIPX(I)   0.00014   0.51033  -0.00344  -0.43307   0.20541   0.00628
 DIPY(I)   0.00021   0.70121  -0.00244  -0.30837  -0.53082  -0.01622
 DIPZ(I)   0.00020   0.68058   0.00833   1.06011   0.42731   0.01306

 DIPT(I)   0.00032   1.10242   0.00934   1.18594   0.71173   0.02175


   I        43        44        45        46        47        48
 FREQ(I)  -23.4412  -15.7196  -22.4519    6.4674   12.2243  -29.3033

 MASS(I)   1.34992   1.34992   1.34992   3.27618   1.60290   1.61796

 DIPX(I)  -0.15809   0.00261  -0.00525   0.00040   0.00067   0.00018
 DIPY(I)   0.00199  -0.01004   0.00428  -0.00101  -0.00089   0.00021
 DIPZ(I)   0.00229  -0.00548   0.01797   0.00282   0.00100   0.00054

 DIPT(I)   0.15812   0.01173   0.01921   0.00303   0.00150   0.00061


           NORMAL COORDINATE ANALYSIS (Total motion = 1 Angstrom)


   Root No.       1         2         3         4         5         6         7         8

                 1 Au      2 Au      1 Ag      3 Au      2 Ag      4 Au      3 Ag      5 Au  

                  16.3      31.8      54.2      66.7     102.2     109.6     134.9     208.1
  
           1   -0.0178    0.0097   -0.0001   -0.0103   -0.0001   -0.0324   -0.0005    0.0740
           2   -0.0058    0.0132   -0.0047   -0.0186   -0.0001   -0.0189   -0.0141    0.0518
           3    0.0156    0.0197    0.0058   -0.0339    0.0711    0.0128    0.0152    0.0281
           4   -0.0178    0.0097    0.0001   -0.0103    0.0001   -0.0324    0.0006    0.0740
           5   -0.0058    0.0132    0.0047   -0.0187    0.0001   -0.0189    0.0141    0.0518
           6    0.0156    0.0197   -0.0058   -0.0339   -0.0711    0.0127   -0.0152    0.0282
           7   -0.0125    0.0103   -0.0066    0.0005   -0.0010   -0.0109   -0.0155    0.0033
           8   -0.0012    0.0139   -0.0077   -0.0107   -0.0008   -0.0036   -0.0219   -0.0003
           9    0.0055    0.0083    0.0048   -0.0124    0.0424    0.0026   -0.0011   -0.0008
          10   -0.0126    0.0104    0.0067    0.0005    0.0010   -0.0109    0.0155    0.0033
          11   -0.0012    0.0140    0.0077   -0.0107    0.0008   -0.0036    0.0219   -0.0002
          12    0.0055    0.0083   -0.0048   -0.0124   -0.0424    0.0026    0.0011   -0.0008
          13   -0.0231    0.0389    0.0111    0.0404    0.0264    0.0139   -0.0035   -0.0389
          14    0.0040    0.0477    0.0117   -0.0065   -0.0062    0.0341    0.0002   -0.0143
          15   -0.0037    0.0104   -0.0036    0.0104   -0.0228    0.0006   -0.0007   -0.0196
          16   -0.0231    0.0388   -0.0111    0.0405   -0.0264    0.0140    0.0035   -0.0390
          17    0.0041    0.0476   -0.0116   -0.0064    0.0062    0.0341   -0.0002   -0.0143
          18   -0.0037    0.0103    0.0036    0.0104    0.0228    0.0006    0.0007   -0.0196
          19    0.0111   -0.0263    0.0024   -0.0369   -0.0401   -0.0110    0.0405   -0.0535
          20   -0.0068   -0.0318    0.0103   -0.0054    0.0133   -0.0249    0.0490   -0.0506
          21    0.0032   -0.0079   -0.0042   -0.0084   -0.0367   -0.0056    0.0104   -0.0207
          22    0.0111   -0.0263   -0.0025   -0.0369    0.0401   -0.0111   -0.0405   -0.0535
          23   -0.0068   -0.0317   -0.0104   -0.0054   -0.0133   -0.0250   -0.0490   -0.0506
          24    0.0032   -0.0079    0.0042   -0.0085    0.0367   -0.0056   -0.0104   -0.0207
          25    0.0381   -0.0304    0.0195    0.0038    0.0271    0.0339    0.0417    0.0236
          26    0.0089   -0.0397    0.0046    0.0369   -0.0384    0.0092    0.0198    0.0180
          27   -0.0178   -0.0267   -0.0021    0.0375   -0.0213   -0.0086    0.0120    0.0157
          28   -0.0305   -0.0847   -0.0740   -0.0588    0.0841    0.1267    0.1118    0.0515
          29   -0.0803   -0.1056   -0.0912    0.0135   -0.0393    0.0758    0.0797    0.0554
          30   -0.0449   -0.0476   -0.0351    0.0219   -0.0107    0.0197    0.0350    0.0271
          31    0.0365   -0.0239    0.0216   -0.0004    0.0246    0.0146    0.0148    0.0013
          32    0.0734   -0.0167    0.0726    0.0956   -0.0655    0.0075    0.0603    0.0724
          33    0.0831    0.0479    0.1250    0.1130   -0.0807   -0.1177   -0.0674   -0.0141
          34    0.1271    0.0137    0.1258    0.0943   -0.0340   -0.0132    0.0480    0.0649
          35    0.0395   -0.0062    0.0379    0.0267   -0.0255   -0.0333   -0.0367   -0.0293
          36   -0.1026   -0.0931   -0.0991    0.0063   -0.0082    0.0713    0.0839    0.0582
          37    0.0381   -0.0304   -0.0195    0.0039   -0.0271    0.0340   -0.0417    0.0236
          38    0.0090   -0.0397   -0.0046    0.0369    0.0384    0.0093   -0.0198    0.0180
          39   -0.0177   -0.0267    0.0021    0.0375    0.0213   -0.0086   -0.0120    0.0157
          40   -0.0304   -0.0849    0.0739   -0.0588   -0.0840    0.1268   -0.1118    0.0514
          41   -0.0803   -0.1058    0.0911    0.0135    0.0393    0.0759   -0.0797    0.0554
          42   -0.0449   -0.0477    0.0351    0.0219    0.0108    0.0198   -0.0350    0.0271
          43    0.1271    0.0140   -0.1258    0.0944    0.0340   -0.0132   -0.0480    0.0649
          44    0.0395   -0.0061   -0.0378    0.0267    0.0255   -0.0333    0.0367   -0.0293
          45   -0.1025   -0.0933    0.0991    0.0063    0.0082    0.0714   -0.0839    0.0582
          46    0.0365   -0.0239   -0.0217   -0.0004   -0.0246    0.0146   -0.0148    0.0013
          47    0.0734   -0.0165   -0.0726    0.0956    0.0655    0.0075   -0.0603    0.0724
          48    0.0831    0.0481   -0.1249    0.1130    0.0807   -0.1177    0.0674   -0.0140


   Root No.       9        10        11        12        13        14        15        16

                 4 Ag      6 Au      5 Ag      6 Ag      7 Au      7 Ag      8 Au      9 Au  

                 224.0     255.4     298.8     394.0     499.2     516.0     579.0     671.5
  
           1    0.0000    0.0074   -0.0006   -0.0009   -0.0045   -0.0068    0.0411   -0.0694
           2   -0.0185    0.0176   -0.0272    0.0075   -0.0323   -0.0775   -0.0485   -0.0486
           3   -0.0675   -0.0249   -0.0022   -0.1086    0.1105    0.0081   -0.0152   -0.0221
           4   -0.0000    0.0074    0.0006    0.0009   -0.0045    0.0068    0.0411   -0.0694
           5    0.0185    0.0176    0.0272   -0.0075   -0.0324    0.0775   -0.0486   -0.0486
           6    0.0675   -0.0249    0.0022    0.1086    0.1105   -0.0081   -0.0153   -0.0221
           7    0.0033   -0.0120    0.0146   -0.0133    0.0196   -0.0733    0.0228    0.2029
           8   -0.0177    0.0090   -0.0318    0.0106   -0.0088   -0.0803   -0.0417    0.1498
           9    0.0124    0.0146   -0.0153    0.0564   -0.0337   -0.0124    0.0207    0.0544
          10   -0.0033   -0.0120   -0.0146    0.0133    0.0196    0.0733    0.0228    0.2029
          11    0.0177    0.0090    0.0318   -0.0106   -0.0088    0.0803   -0.0417    0.1498
          12   -0.0124    0.0146    0.0153   -0.0564   -0.0336    0.0124    0.0207    0.0544
          13   -0.0547    0.0147   -0.0263    0.0640    0.0319   -0.0180   -0.0149   -0.0514
          14    0.0453   -0.0384    0.0022   -0.0872   -0.0413   -0.0491    0.0346   -0.0383
          15   -0.0538    0.0507    0.0222    0.0082   -0.0135    0.0151   -0.0358   -0.0164
          16    0.0547    0.0146    0.0263   -0.0640    0.0320    0.0180   -0.0148   -0.0514
          17   -0.0453   -0.0384   -0.0022    0.0872   -0.0413    0.0491    0.0347   -0.0383
          18    0.0538    0.0507   -0.0222   -0.0082   -0.0135   -0.0151   -0.0358   -0.0164
          19   -0.0112   -0.0253   -0.0492    0.0017   -0.0152   -0.0035   -0.0280   -0.0421
          20    0.0118    0.0052    0.0232    0.0335    0.0326   -0.0418    0.0198   -0.0303
          21   -0.0186    0.0184    0.0138   -0.0379   -0.0276   -0.0356    0.0529   -0.0038
          22    0.0112   -0.0252    0.0492   -0.0017   -0.0152    0.0035   -0.0280   -0.0421
          23   -0.0118    0.0052   -0.0232   -0.0335    0.0326    0.0418    0.0197   -0.0303
          24    0.0186    0.0184   -0.0138    0.0379   -0.0276    0.0356    0.0529   -0.0038
          25    0.0246    0.0120    0.0117    0.0196   -0.0304   -0.0181   -0.0136    0.0017
          26   -0.0232    0.0117   -0.0385   -0.0326    0.0476    0.0257    0.0223   -0.0017
          27   -0.0434   -0.0582    0.0530    0.0249   -0.0315   -0.0181   -0.0155   -0.0006
          28    0.0749    0.0804   -0.0481    0.0269   -0.0155    0.0144    0.0537    0.0162
          29   -0.0487   -0.0263    0.0047   -0.0381    0.0303   -0.0314   -0.0599   -0.0038
          30   -0.0393   -0.0531    0.0502    0.0256   -0.0321   -0.0225   -0.0189    0.0013
          31    0.0165   -0.0046    0.0280    0.0132   -0.0287   -0.0183   -0.0261   -0.0046
          32   -0.0214    0.0358   -0.0696   -0.0185    0.0455    0.0245    0.0486    0.0054
          33   -0.0864   -0.1118    0.0949    0.0188   -0.0369   -0.0324   -0.0517   -0.0114
[...]
 EFFECTIVE MASS      6.6156
 FORCE CONSTANT      0.3137

 VIBRATION         26   13Ag          ATOM PAIR      ENERGY CONTRIBUTION    RADIAL
 FREQUENCY          1188.67         C  3 -- O  8         +20.5% ( 65.6%)     86.1%
 TRANSITION DIPOLE   0.0001         C  4 -- O  7         +20.5% ( 65.6%)     86.2%
 TRAVEL (Ang.)       0.1447         N  1 -- C  3         +11.8% ( 49.7%)     66.3%
 REDUCED MASS        2.7109         N  2 -- C  4         +11.8% ( 49.7%)     66.1%
 EFFECTIVE MASS     12.7401         C  3 -- O  6         +10.2% ( 46.2%)      0.3%
 FORCE CONSTANT      2.2567         C  4 -- O  5         +10.2% ( 46.2%)      0.3%

 VIBRATION         27   14Au          ATOM PAIR      ENERGY CONTRIBUTION    RADIAL
 FREQUENCY          1204.78         C  4 -- O  7         +17.8% ( 61.2%)     86.3%
 TRANSITION DIPOLE   7.0187         C  3 -- O  8         +17.8% ( 61.2%)     86.1%
 TRAVEL (Ang.)       0.1447         N  2 -- C  4         +16.0% ( 58.0%)     78.6%
 REDUCED MASS        2.6727         N  1 -- C  3         +16.0% ( 58.0%)     78.7%
 EFFECTIVE MASS     12.3639         C  4 -- O  5         +10.7% ( 47.5%)      0.4%
 FORCE CONSTANT      2.2856         C  3 -- O  6         +10.7% ( 47.5%)      0.4%

 VIBRATION         28   14Ag          ATOM PAIR      ENERGY CONTRIBUTION    RADIAL
 FREQUENCY          1300.39         C 13 -- H 14         +26.9% ( 45.8%)      0.4%
 TRANSITION DIPOLE   0.0034         C  9 -- H 10         +26.4% ( 45.3%)      0.1%
 TRAVEL (Ang.)       0.4864         C 13 -- H 16         +13.9% ( 33.0%)      5.8%
 REDUCED MASS        0.2191         C  9 -- H 11         +13.7% ( 32.7%)      7.0%
 EFFECTIVE MASS      1.5967
 FORCE CONSTANT      0.2183

 VIBRATION         29   15Au          ATOM PAIR      ENERGY CONTRIBUTION    RADIAL
 FREQUENCY          1300.48         C  9 -- H 10         +26.9% ( 45.8%)      0.1%
 TRANSITION DIPOLE   0.6853         C 13 -- H 14         +26.4% ( 45.4%)      0.4%
 TRAVEL (Ang.)       0.4864         C  9 -- H 11         +13.8% ( 32.9%)      7.2%
 REDUCED MASS        0.2192         C 13 -- H 16         +13.6% ( 32.6%)      5.9%
 EFFECTIVE MASS      1.5992
 FORCE CONSTANT      0.2184

 VIBRATION         30   15Ag          ATOM PAIR      ENERGY CONTRIBUTION    RADIAL
 FREQUENCY          1312.37         C 13 -- H 15         +24.8% ( 44.1%)      0.3%
 TRANSITION DIPOLE   0.0006         C  9 -- H 12         +24.7% ( 44.1%)      0.6%
 TRAVEL (Ang.)       0.4907         C 13 -- H 16         +16.1% ( 35.6%)      5.8%
 REDUCED MASS        0.2134         C  9 -- H 11         +16.1% ( 35.6%)      4.7%
 EFFECTIVE MASS      1.7073
 FORCE CONSTANT      0.2166

 VIBRATION         31   16Au          ATOM PAIR      ENERGY CONTRIBUTION    RADIAL
 FREQUENCY          1312.49         C  9 -- H 12         +24.7% ( 44.0%)      0.6%
 TRANSITION DIPOLE   0.9432         C 13 -- H 15         +24.7% ( 44.0%)      0.3%
 TRAVEL (Ang.)       0.4916         C  9 -- H 11         +16.2% ( 35.6%)      4.6%
 REDUCED MASS        0.2126         C 13 -- H 16         +16.1% ( 35.6%)      5.7%
 EFFECTIVE MASS      1.7077
 FORCE CONSTANT      0.2158

 VIBRATION         32   17Au          ATOM PAIR      ENERGY CONTRIBUTION    RADIAL
 FREQUENCY          1364.86         C 13 -- H 16         +17.0% ( 38.6%)      1.4%
 TRANSITION DIPOLE   0.8858         C 13 -- H 15         +16.5% ( 38.1%)      0.7%
 TRAVEL (Ang.)       0.5207         C 13 -- H 14         +14.8% ( 36.1%)      0.2%
 REDUCED MASS        0.1822         C  9 -- H 11         +14.4% ( 35.6%)      1.3%
 EFFECTIVE MASS      2.2536         C  9 -- H 12         +14.0% ( 35.1%)      0.8%
 FORCE CONSTANT      0.2000         C  9 -- H 10         +12.6% ( 33.3%)      0.2%

 VIBRATION         33   16Ag          ATOM PAIR      ENERGY CONTRIBUTION    RADIAL
 FREQUENCY          1364.89         C  9 -- H 11         +17.1% ( 38.6%)      1.3%
 TRANSITION DIPOLE   0.0363         C  9 -- H 12         +16.6% ( 38.1%)      0.8%
 TRAVEL (Ang.)       0.5203         C  9 -- H 10         +14.7% ( 35.9%)      0.2%
 REDUCED MASS        0.1825         C 13 -- H 16         +14.5% ( 35.6%)      1.4%
 EFFECTIVE MASS      2.2422         C 13 -- H 15         +14.1% ( 35.1%)      0.6%
 FORCE CONSTANT      0.2003         C 13 -- H 14         +12.5% ( 33.1%)      0.3%

 VIBRATION         34   17Ag          ATOM PAIR      ENERGY CONTRIBUTION    RADIAL
 FREQUENCY          1798.65         C  4 -- O  5         +27.1% ( 70.2%)    100.0%
 TRANSITION DIPOLE   0.0002         C  3 -- O  6         +27.1% ( 70.2%)    100.0%
 TRAVEL (Ang.)       0.1051         C  4 -- O  7         +11.5% ( 45.7%)     40.4%
 REDUCED MASS        3.3963         C  3 -- O  8         +11.5% ( 45.7%)     40.7%
 EFFECTIVE MASS     13.4279         N  2 -- C  4         +11.3% ( 45.3%)     35.6%
 FORCE CONSTANT      6.4738         N  1 -- C  3         +11.3% ( 45.3%)     35.5%

 VIBRATION         35   18Au          ATOM PAIR      ENERGY CONTRIBUTION    RADIAL
 FREQUENCY          1802.36         C  3 -- O  6         +26.8% ( 69.9%)    100.0%
 TRANSITION DIPOLE  11.0963         C  4 -- O  5         +26.8% ( 69.9%)    100.0%
 TRAVEL (Ang.)       0.1049         C  3 -- O  8         +11.7% ( 46.1%)     45.8%
 REDUCED MASS        3.4029         C  4 -- O  7         +11.7% ( 46.1%)     45.5%
 EFFECTIVE MASS     13.3809         N  1 -- C  3         +11.4% ( 45.7%)     32.7%
 FORCE CONSTANT      6.5131         N  2 -- C  4         +11.4% ( 45.7%)     32.9%

 VIBRATION         36   18Ag          ATOM PAIR      ENERGY CONTRIBUTION    RADIAL
 FREQUENCY          1890.69         N  1 -- N  2         +64.4% ( 99.6%)     99.2%
 TRANSITION DIPOLE   0.0000         N  1 -- C  3         +17.7% ( 52.2%)     35.6%
 TRAVEL (Ang.)       0.0717         N  2 -- C  4         +17.7% ( 52.2%)     35.6%
 REDUCED MASS        6.9359
 EFFECTIVE MASS     14.0090
 FORCE CONSTANT     14.6080

 VIBRATION         37   19Ag          ATOM PAIR      ENERGY CONTRIBUTION    RADIAL
 FREQUENCY          2648.06         C  9 -- H 12         +32.2% ( 59.0%)     99.6%
 TRANSITION DIPOLE   0.0003         C 13 -- H 15         +32.2% ( 59.0%)     99.7%
 TRAVEL (Ang.)       0.3144         C  9 -- H 11         +13.6% ( 38.4%)     93.3%
 REDUCED MASS        0.2576         C 13 -- H 16         +13.6% ( 38.4%)     92.0%
 EFFECTIVE MASS      1.4750
 FORCE CONSTANT      1.0644

 VIBRATION         38   19Au          ATOM PAIR      ENERGY CONTRIBUTION    RADIAL
 FREQUENCY          2648.15         C 13 -- H 15         +32.2% ( 59.0%)     99.7%
 TRANSITION DIPOLE   1.1024         C  9 -- H 12         +32.2% ( 59.0%)     99.6%
 TRAVEL (Ang.)       0.3143         C 13 -- H 16         +13.7% ( 38.4%)     92.0%
 REDUCED MASS        0.2577         C  9 -- H 11         +13.7% ( 38.4%)     93.3%
 EFFECTIVE MASS      1.4753
 FORCE CONSTANT      1.0647

 VIBRATION         39   20Ag          ATOM PAIR      ENERGY CONTRIBUTION    RADIAL
 FREQUENCY          2654.37         C 13 -- H 14         +28.9% ( 55.9%)     98.8%
 TRANSITION DIPOLE   0.0093         C  9 -- H 10         +28.0% ( 55.0%)     99.2%
 TRAVEL (Ang.)       0.3208         C 13 -- H 16         +19.7% ( 46.0%)     97.6%
 REDUCED MASS        0.2468         C  9 -- H 11         +19.1% ( 45.3%)     96.8%
 EFFECTIVE MASS      1.4680
 FORCE CONSTANT      1.0246

 VIBRATION         40   20Au          ATOM PAIR      ENERGY CONTRIBUTION    RADIAL
 FREQUENCY          2654.40         C  9 -- H 10         +29.0% ( 55.9%)     99.3%
 TRANSITION DIPOLE   1.1859         C 13 -- H 14         +28.1% ( 55.0%)     98.8%
 TRAVEL (Ang.)       0.3207         C  9 -- H 11         +19.6% ( 46.0%)     96.8%
 REDUCED MASS        0.2469         C 13 -- H 16         +19.0% ( 45.2%)     97.6%
 EFFECTIVE MASS      1.4675
 FORCE CONSTANT      1.0251

 VIBRATION         41   21Au          ATOM PAIR      ENERGY CONTRIBUTION    RADIAL
 FREQUENCY          2813.39         C 13 -- H 14         +18.8% ( 40.7%)     97.9%
 TRANSITION DIPOLE   0.7117         C 13 -- H 16         +17.7% ( 39.6%)     98.1%
 TRAVEL (Ang.)       0.3799         C  9 -- H 10         +16.6% ( 38.3%)     97.9%
 REDUCED MASS        0.1660         C 13 -- H 15         +16.5% ( 38.2%)     97.8%
 EFFECTIVE MASS      1.0649         C  9 -- H 11         +15.7% ( 37.2%)     98.2%
 FORCE CONSTANT      0.7743         C  9 -- H 12         +14.6% ( 35.9%)     97.9%

 VIBRATION         42   21Ag          ATOM PAIR      ENERGY CONTRIBUTION    RADIAL
 FREQUENCY          2813.79         C  9 -- H 10         +18.8% ( 40.7%)     97.9%
 TRANSITION DIPOLE   0.0217         C  9 -- H 11         +17.7% ( 39.5%)     98.2%
 TRAVEL (Ang.)       0.3799         C 13 -- H 14         +16.6% ( 38.3%)     98.0%
 REDUCED MASS        0.1660         C  9 -- H 12         +16.5% ( 38.2%)     97.9%
 EFFECTIVE MASS      1.0651         C 13 -- H 16         +15.7% ( 37.2%)     98.1%
 FORCE CONSTANT      0.7745         C 13 -- H 15         +14.6% ( 35.9%)     97.8%

      SYMMETRY NUMBER FOR POINT-GROUP Ci  =  1


          SYSTEM IS A GROUND STATE



 Cycloaddition_SM1_PM6_D3H4_THERMO


          MOLECULE IS NOT LINEAR

          THERE ARE 42 GENUINE VIBRATIONS IN THIS SYSTEM
          THIS THERMODYNAMICS CALCULATION IS LIMITED TO
          MOLECULES WHICH HAVE NO INTERNAL ROTATIONS




                    CALCULATED THERMODYNAMIC PROPERTIES
                                          *
   TEMP. (K)   PARTITION FUNCTION   H.O.F.    ENTHALPY  HEAT CAPACITY ENTROPY
                                   KCAL/MOL   CAL/MOLE    CAL/K/MOL  CAL/K/MOL


 298.00  VIB.     0.1462D+06                  5645.1099    31.4783    42.5770
         ROT.     0.8428D+06                   888.2813     2.9808    30.0953
         INT.     0.1232D+12                  6533.3912    34.4591    72.6723
         TRA.     0.1707D+28                  1480.4688     4.9680    40.8459
         TOT.                     -107.719    8013.8600    39.4272   113.5182

 200.00  VIB.     0.5137D+04                  2928.0012    24.0255    31.6192
         ROT.     0.4634D+06                   596.1620     2.9808    28.9066
         INT.     0.2381D+10                  3524.1631    27.0063    60.5258
         TRA.     0.9387D+27                   993.6033     4.9680    38.8648
         TOT.                     -111.215    4517.7664    31.9743    99.3906

 210.00  VIB.     0.7401D+04                  3171.9806    24.7707    32.8095
         ROT.     0.4986D+06                   625.9700     2.9808    29.0520
         INT.     0.3690D+10                  3797.9506    27.7516    61.8615
         TRA.     0.1010D+28                  1043.2834     4.9680    39.1072
         TOT.                     -110.892    4841.2340    32.7196   100.9687

 220.00  VIB.     0.1060D+05                  3423.4252    25.5187    33.9791
         ROT.     0.5346D+06                   655.7781     2.9808    29.1907
         INT.     0.5665D+10                  4079.2034    28.4996    63.1698
         TRA.     0.1083D+28                  1092.9636     4.9680    39.3383
         TOT.                     -110.561    5172.1669    33.4676   102.5080

 230.00  VIB.     0.1508D+05                  3682.3683    26.2706    35.1300
         ROT.     0.5715D+06                   685.5862     2.9808    29.3232
         INT.     0.8620D+10                  4367.9545    29.2514    64.4532
         TRA.     0.1158D+28                  1142.6437     4.9680    39.5591
         TOT.                     -110.222    5510.5983    34.2194   104.0123

 240.00  VIB.     0.2135D+05                  3948.8508    27.0267    36.2640
         ROT.     0.6092D+06                   715.3943     2.9808    29.4500
         INT.     0.1301D+11                  4664.2452    30.0075    65.7141
         TRA.     0.1234D+28                  1192.3239     4.9680    39.7706
         TOT.                     -109.876    5856.5691    34.9755   105.4846

 250.00  VIB.     0.3008D+05                  4222.9165    27.7872    37.3827
         ROT.     0.6476D+06                   745.2024     2.9808    29.5717
         INT.     0.1948D+11                  4968.1190    30.7680    66.9544
         TRA.     0.1312D+28                  1242.0041     4.9680    39.9734
         TOT.                     -109.523    6210.1230    35.7360   106.9278

 260.00  VIB.     0.4216D+05                  4504.6072    28.5516    38.4874
         ROT.     0.6869D+06                   775.0105     2.9808    29.6886
         INT.     0.2895D+11                  5279.6177    31.5324    68.1761
         TRA.     0.1391D+28                  1291.6842     4.9680    40.1682
         TOT.                     -109.162    6571.3019    36.5004   108.3443

 270.00  VIB.     0.5882D+05                  4793.9593    29.3193    39.5793
         ROT.     0.7269D+06                   804.8186     2.9808    29.8011
         INT.     0.4275D+11                  5598.7780    32.3001    69.3805
         TRA.     0.1472D+28                  1341.3644     4.9680    40.3557
         TOT.                     -108.793    6940.1423    37.2681   109.7362

 280.00  VIB.     0.8172D+05                  5091.0015    30.0894    40.6595
         ROT.     0.7676D+06                   834.6267     2.9808    29.9095
         INT.     0.6273D+11                  5925.6283    33.0703    70.5691
         TRA.     0.1555D+28                  1391.0445     4.9680    40.5364
         TOT.                     -108.416    7316.6728    38.0383   111.1055

 290.00  VIB.     0.1131D+06                  5395.7527    30.8609    41.7289
         ROT.     0.8091D+06                   864.4348     2.9808    30.0141
         INT.     0.9149D+11                  6260.1876    33.8417    71.7430
         TRA.     0.1639D+28                  1440.7247     4.9680    40.7107
         TOT.                     -108.032    7700.9123    38.8098   112.4537

 300.00  VIB.     0.1559D+06                  5708.2209    31.6326    42.7881
         ROT.     0.8513D+06                   894.2429     2.9808    30.1152
         INT.     0.1327D+12                  6602.4638    34.6134    72.9033
         TRA.     0.1725D+28                  1490.4049     4.9680    40.8791
         TOT.                     -107.640    8092.8687    39.5815   113.7825

 310.00  VIB.     0.2141D+06                  6028.4023    32.4034    43.8379
         ROT.     0.8942D+06                   924.0510     2.9808    30.2129
         INT.     0.1915D+12                  6952.4533    35.3842    74.0508
         TRA.     0.1811D+28                  1540.0850     4.9680    41.0420
         TOT.                     -107.240    8492.5384    40.3522   115.0929

 320.00  VIB.     0.2931D+06                  6356.2818    33.1721    44.8788
         ROT.     0.9379D+06                   953.8591     2.9808    30.3076
         INT.     0.2749D+12                  7310.1410    36.1529    75.1864
         TRA.     0.1900D+28                  1589.7652     4.9680    41.1998
         TOT.                     -106.833    8899.9062    41.1209   116.3862

 330.00  VIB.     0.3999D+06                  6691.8327    33.9375    45.9113
         ROT.     0.9822D+06                   983.6672     2.9808    30.3993
         INT.     0.3928D+12                  7675.4999    36.9183    76.3106
         TRA.     0.1990D+28                  1639.4454     4.9680    41.3526
         TOT.                     -106.418    9314.9452    41.8863   117.6633

 340.00  VIB.     0.5440D+06                  7035.0169    34.6986    46.9358
         ROT.     0.1027D+07                  1013.4753     2.9808    30.4883
         INT.     0.5588D+12                  8048.4923    37.6794    77.4240
         TRA.     0.2081D+28                  1689.1255     4.9680    41.5010
         TOT.                     -105.995    9737.6178    42.6474   118.9250

 350.00  VIB.     0.7379D+06                  7385.7865    35.4544    47.9525
         ROT.     0.1073D+07                  1043.2834     2.9808    30.5747
         INT.     0.7916D+12                  8429.0699    38.4352    78.5272
         TRA.     0.2173D+28                  1738.8057     4.9680    41.6450
         TOT.                     -105.565   10167.8756    43.4032   120.1722

 360.00  VIB.     0.9981D+06                  7744.0836    36.2039    48.9618
         ROT.     0.1119D+07                  1073.0915     2.9808    30.6587
         INT.     0.1117D+13                  8817.1751    39.1847    79.6205
         TRA.     0.2267D+28                  1788.4859     4.9680    41.7849
         TOT.                     -105.127   10605.6610    44.1528   121.4054

 370.00  VIB.     0.1346D+07                  8109.8418    36.9465    49.9639
         ROT.     0.1166D+07                  1102.8996     2.9808    30.7403
         INT.     0.1570D+13                  9212.7414    39.9273    80.7042
         TRA.     0.2362D+28                  1838.1660     4.9680    41.9210
         TOT.                     -104.682   11050.9074    44.8953   122.6253

 380.00  VIB.     0.1812D+07                  8482.9868    37.6812    50.9590
         ROT.     0.1214D+07                  1132.7077     2.9808    30.8198
         INT.     0.2199D+13                  9615.6945    40.6620    81.7788
         TRA.     0.2458D+28                  1887.8462     4.9680    42.0535
         TOT.                     -104.229   11503.5407    45.6300   123.8323

 390.00  VIB.     0.2432D+07                  8863.4375    38.4075    51.9472
         ROT.     0.1262D+07                  1162.5158     2.9808    30.8973
         INT.     0.3069D+13                 10025.9533    41.3883    82.8444
         TRA.     0.2556D+28                  1937.5263     4.9680    42.1826
         TOT.                     -103.769   11963.4797    46.3563   125.0270

 400.00  VIB.     0.3257D+07                  9251.1069    39.1248    52.9286
         ROT.     0.1311D+07                  1192.3239     2.9808    30.9727
         INT.     0.4269D+13                 10443.4308    42.1056    83.9013
         TRA.     0.2655D+28                  1987.2065     4.9680    42.3084
         TOT.                     -103.302   12430.6373    47.0737   126.2097

   *: NOTE: HEATS OF FORMATION ARE RELATIVE TO THE
            ELEMENTS IN THEIR STANDARD STATE AT 298K
              (=  Standard Enthalpy of Formation).

            Hvib:  Zero-point energy is not included.
                   frequencies of less than zero cm-1 are not included.
            Hrot = (3/2)RT
            Htra = (3/2)RT + pV = (5/2)RT

            Heat capacity is Cp, not Cv

          For more information, see: HTTP://OpenMOPAC.net/Manual/thermochemistry.html


           FORCE CONSTANT IN CARTESIAN COORDINATES (Millidynes/A)

    ATOM   CHEMICAL       X               Y               Z
   NUMBER   SYMBOL  FORCE CONSTANT  FORCE CONSTANT  FORCE CONSTANT

      1       N       15.779044        4.846685        0.907813
      2       N       15.779044        4.846685        0.907813
      3       C        6.268688        6.713727       12.139977
      4       C        6.268688        6.713727       12.139977
      5       O        3.522909        2.321794        9.156499
      6       O        3.522909        2.321794        9.156499
      7       O        2.799168        4.399372        6.542190
      8       O        2.799168        4.399372        6.542190
      9       C        6.017515        5.883271        6.314302
     10       H        0.752607        0.772188        3.903259
     11       H        3.741428        0.990319        0.697534
     12       H        0.931993        2.729535        1.757364
     13       C        6.017515        5.883271        6.314302
     14       H        0.752607        0.772188        3.903259
     15       H        0.931993        2.729535        1.757364
     16       H        3.741428        0.990319        0.697534

 **********************
 *                    *
 * JOB ENDED NORMALLY *
 *                    *
 **********************



 TOTAL JOB TIME:             0.57 SECONDS

 == MOPAC DONE ==
