 *******************************************************************************
 ** Site#: 37381        For non-commercial use only           Version 21.125L **
 *******************************************************************************
 ** Cite this program as: MOPAC2016, Version: 21.125L, James J. P. Stewart,   **
 ** Stewart Computational Chemistry, web: HTTP://OpenMOPAC.net. Days left: 191**
 *******************************************************************************
 **                                                                           **
 **                                MOPAC2016                                  **
 **                                                                           **
 *******************************************************************************

                              PM6-D3H4 CALCULATION RESULTS

 *******************************************************************************
 *  CALCULATION DONE:                                Tue Oct 26 16:24:34 2021  *
 *  PM6-D3H4   - CORRECT DISPERSION AND HYDROGEN BOND TERMS USING THE D3H4 METHOD
 *  EPS=2.38   - USE ANDREAS KLAMT'S COSMO IMPLICIT SOLVATION MODEL
 *  RSOLV=  3.480
 *  FORCE      - FORCE CALCULATION SPECIFIED
 *  T=         - A TIME OF 172800.0 SECONDS REQUESTED
 *  DUMP=N     - RESTART FILE WRITTEN EVERY 7200.0 SECONDS REQUESTED
 *  AUX        - OUTPUT AUXILIARY INFORMATION
 *  LARGE      - EXPANDED OUTPUT TO BE PRINTED
 *  THERMO     - THERMODYNAMIC QUANTITIES TO BE CALCULATED
 *******************************************************************************
 AUX LARGE FORCE THERMO PM6-D3H4 EPS=2.38 RSOLV=3.48
 Cycloaddition_SM2_PM6_D3H4_THERMO

   ATOM   CHEMICAL          X               Y               Z
  NUMBER   SYMBOL      (ANGSTROMS)     (ANGSTROMS)     (ANGSTROMS)
 
     1       C          0.77207000  *   0.77432000  *  -0.71628000  *
     2       C         -0.00008000  *   1.17255000  *   0.55611000  *
     3       C          0.00017000  *  -1.17254000  *   0.55615000  *
     4       C          0.77213000  *  -0.77409000  *  -0.71628000  *
     5       H          1.47774000  *   1.37303000  *  -1.24897000  *
     6       H          1.47755000  *  -1.37305000  *  -1.24905000  *
     7       C          0.00001000  *   0.00001000  *   1.54241000  *
     8       H         -0.91267000  *  -0.00006000  *   2.17364000  *
     9       H          0.91235000  *   0.00006000  *   2.17414000  *
    10       C         -0.77213000  *   0.77413000  *  -0.71622000  *
    11       H         -1.47801000  *   1.37287000  *  -1.24855000  *
    12       C         -0.77197000  *  -0.77428000  *  -0.71615000  *
    13       H         -1.47734000  *  -1.37322000  *  -1.24889000  *
    14       H         -0.00076000  *   2.18407000  *   0.93814000  *
    15       H          0.00045000  *  -2.18403000  *   0.93811000  *
 


          CARTESIAN COORDINATES 

    NO.       ATOM           X           Y           Z

     1         C          0.7721      0.7743     -0.7163
     2         C         -0.0001      1.1725      0.5561
     3         C          0.0002     -1.1725      0.5562
     4         C          0.7721     -0.7741     -0.7163
     5         H          1.4777      1.3730     -1.2490
     6         H          1.4775     -1.3731     -1.2490
     7         C          0.0000      0.0000      1.5424
     8         H         -0.9127     -0.0001      2.1736
     9         H          0.9123      0.0001      2.1741
    10         C         -0.7721      0.7741     -0.7162
    11         H         -1.4780      1.3729     -1.2486
    12         C         -0.7720     -0.7743     -0.7162
    13         H         -1.4773     -1.3732     -1.2489
    14         H         -0.0008      2.1841      0.9381
    15         H          0.0005     -2.1840      0.9381

 General Reference for PM6:
 "Optimization of Parameters for Semiempirical Methods V: Modification of NDDO Approximations
 and Application to 70 Elements", J. J. P. Stewart, J. Mol. Mod., 13, 1173-1213 (2007)
 URL: https://link.springer.com/article/10.1007/s00894-007-0233-4

           Empirical Formula: C7 H8  =    15 atoms



      MOLECULAR POINT GROUP   :   Cs  


      RHF CALCULATION, NO. OF DOUBLY OCCUPIED LEVELS = 18



          HEAT OF FORMATION =      75.667816 KCALS/MOLE


          CARTESIAN COORDINATE DERIVATIVES

   NUMBER  ATOM         X            Y            Z

     1       C      0.020080     0.012053     0.024557
     2       C     -0.008527     0.009461    -0.026996
     3       C      0.001995     0.002900     0.021640
     4       C     -0.014725    -0.013059    -0.004773
     5       H     -0.020502    -0.006459    -0.014777
     6       H      0.005577     0.006590    -0.021965
     7       C     -0.000108     0.002486     0.014301
     8       H      0.001695     0.004022    -0.025643
     9       H     -0.005992    -0.002299     0.018045
    10       C      0.023708    -0.022119     0.016298
    11       H     -0.007701     0.017396    -0.003032
    12       C     -0.012660     0.020070     0.004058
    13       H      0.009947    -0.014737     0.015099
    14       H      0.014072    -0.006204     0.006157
    15       H     -0.006860    -0.010102    -0.022970
 
 DIPOLE           X         Y         Z       TOTAL
 POINT-CHG.     0.394     0.103     0.247     0.476
 HYBRID        -0.129    -0.033    -0.082     0.157
 SUM            0.265     0.069     0.165     0.319


          GRADIENT NORM =   0.09585


          TIME FOR SCF CALCULATION =    0.02

          TIME FOR DERIVATIVES     =    0.00

          MOLECULAR WEIGHT =   92.14



          ROTATIONAL CONSTANTS IN CM(-1)

          A =    0.14366383   B =    0.14266699   C =    0.10719549



           PRINCIPAL MOMENTS OF INERTIA IN UNITS OF 10**(-40)*GRAM-CM**2

          A =      194.8491   B =      196.2106   C =      261.1376


          ORIENTATION OF MOLECULE IN FORCE CALCULATION

    NO.       ATOM         X         Y         Z

     1          C      -0.7668   -1.0067    0.2958
     2          C       0.7739   -1.0067    0.2958
     3          C       0.1677    1.2587    0.2958
     4          C      -1.1670    0.4891    0.2957
     5          H      -1.4056   -1.7973    0.6228
     6          H      -2.1154    0.8554    0.6223
     7          C       1.2853    0.3440    0.8074
     8          H       2.2640    0.6059    0.3546
     9          H       1.3498    0.3613    1.9151
    10          C       0.0071   -0.7996   -1.0244
    11          H       0.0760   -1.4010   -1.9039
    12          C      -0.3931    0.6962   -1.0243
    13          H      -0.6344    1.2516   -1.9038
    14          H       1.3512   -1.8993    0.4935
    15          H       0.2215    2.3202    0.4941


    FIRST DERIVATIVES WILL BE USED IN THE CALCULATION OF SECOND DERIVATIVES

          ESTIMATED TIME TO COMPLETE CALCULATION =        1.76 SECONDS

    FOR POINT-GROUP Cs   THERE ARE   2 UNIQUE SYMMETRY FUNCTIONS.

 STEP:   1 TIME =     0.02 SECS, INTEGRAL =      0.02 TIME LEFT: 172799.96
 STEP:   2 TIME =     0.01 SECS, INTEGRAL =      0.03 TIME LEFT: 172799.95
 STEP:   3 TIME =     0.02 SECS, INTEGRAL =      0.04 TIME LEFT: 172799.94
 STEP:   4 TIME =     0.01 SECS, INTEGRAL =      0.05 TIME LEFT: 172799.93
 STEP:   5 TIME =     0.02 SECS, INTEGRAL =      0.07 TIME LEFT: 172799.91
 STEP:   6 TIME =     0.02 SECS, INTEGRAL =      0.09 TIME LEFT: 172799.89
 STEP:   7 TIME =     0.01 SECS, INTEGRAL =      0.10 TIME LEFT: 172799.88
 STEP:   8 TIME =     0.01 SECS, INTEGRAL =      0.11 TIME LEFT: 172799.87
 STEP:   9 TIME =     0.01 SECS, INTEGRAL =      0.12 TIME LEFT: 172799.86
 STEP:  10 TIME =     0.02 SECS, INTEGRAL =      0.14 TIME LEFT: 172799.84
 STEP:  11 TIME =     0.02 SECS, INTEGRAL =      0.15 TIME LEFT: 172799.83
 STEP:  12 TIME =     0.01 SECS, INTEGRAL =      0.16 TIME LEFT: 172799.82
 STEP:  13 TIME =     0.02 SECS, INTEGRAL =      0.18 TIME LEFT: 172799.80
 STEP:  14 TIME =     0.02 SECS, INTEGRAL =      0.20 TIME LEFT: 172799.79
 STEP:  15 TIME =     0.01 SECS, INTEGRAL =      0.21 TIME LEFT: 172799.77
 STEP:  16 TIME =     0.01 SECS, INTEGRAL =      0.22 TIME LEFT: 172799.76
 STEP:  17 TIME =     0.01 SECS, INTEGRAL =      0.23 TIME LEFT: 172799.75
 STEP:  18 TIME =     0.02 SECS, INTEGRAL =      0.25 TIME LEFT: 172799.73
 STEP:  19 TIME =     0.02 SECS, INTEGRAL =      0.26 TIME LEFT: 172799.72
 STEP:  20 TIME =     0.01 SECS, INTEGRAL =      0.27 TIME LEFT: 172799.71
 STEP:  21 TIME =     0.02 SECS, INTEGRAL =      0.29 TIME LEFT: 172799.69
 STEP:  22 TIME =     0.02 SECS, INTEGRAL =      0.30 TIME LEFT: 172799.68
 STEP:  23 TIME =     0.01 SECS, INTEGRAL =      0.32 TIME LEFT: 172799.66
 STEP:  24 TIME =     0.02 SECS, INTEGRAL =      0.33 TIME LEFT: 172799.65
 STEP:  25                       INTEGRAL =      0.33 TIME LEFT: 172799.65
 STEP:  26                       INTEGRAL =      0.33 TIME LEFT: 172799.65
 STEP:  27                       INTEGRAL =      0.33 TIME LEFT: 172799.65
 STEP:  28                       INTEGRAL =      0.33 TIME LEFT: 172799.65
 STEP:  29                       INTEGRAL =      0.33 TIME LEFT: 172799.65
 STEP:  30                       INTEGRAL =      0.33 TIME LEFT: 172799.65
 STEP:  31                       INTEGRAL =      0.33 TIME LEFT: 172799.65
 STEP:  32                       INTEGRAL =      0.33 TIME LEFT: 172799.65
 STEP:  33                       INTEGRAL =      0.33 TIME LEFT: 172799.65
 STEP:  34                       INTEGRAL =      0.33 TIME LEFT: 172799.65
 STEP:  35                       INTEGRAL =      0.33 TIME LEFT: 172799.65
 STEP:  36                       INTEGRAL =      0.33 TIME LEFT: 172799.65
 STEP:  37                       INTEGRAL =      0.33 TIME LEFT: 172799.65
 STEP:  38                       INTEGRAL =      0.33 TIME LEFT: 172799.65
 STEP:  39                       INTEGRAL =      0.33 TIME LEFT: 172799.65
 STEP:  40 TIME =     0.02 SECS, INTEGRAL =      0.35 TIME LEFT: 172799.63
 STEP:  41 TIME =     0.01 SECS, INTEGRAL =      0.36 TIME LEFT: 172799.62
 STEP:  42 TIME =     0.01 SECS, INTEGRAL =      0.37 TIME LEFT: 172799.61
 STEP:  43 TIME =     0.02 SECS, INTEGRAL =      0.39 TIME LEFT: 172799.59
 STEP:  44 TIME =     0.01 SECS, INTEGRAL =      0.40 TIME LEFT: 172799.58
 STEP:  45 TIME =     0.01 SECS, INTEGRAL =      0.41 TIME LEFT: 172799.57

(To convert to Hartree/Bohr^2, multiply by (10^(-21) x N x a0^2)/(4.184 x 627.51) =  0.0642)


           FORCE MATRIX IN MILLIDYNES/ANGSTROM


                  C  1       C  2       C  3       C  4       H  5       H  6
 ------------------------------------------------------------------------------
     C    1  12.604932
     C    2   3.551149  12.729018
     C    3   0.760718   0.903404  12.737264
     C    4   3.080329   0.760035   3.544264  12.575804
     H    5   3.663604   0.446922   0.029510   0.442286   4.412062
     H    6   0.459842   0.029420   0.448764   3.650508   0.021393   4.407724
     C    7   0.676432   3.269305   3.271855   0.676107   0.037091   0.037684
     H    8   0.051255   0.582586   0.582869   0.051379   0.006413   0.006721
     H    9   0.016039   0.582968   0.584095   0.015012   0.007042   0.004649
     C   10   3.662791   3.553347   0.757853   1.423734   0.391497   0.032141
     H   11   0.392702   0.450616   0.030281   0.030350   0.020144   0.004762
     C   12   1.426074   0.758119   3.544978   3.660988   0.033319   0.395340
     H   13   0.031292   0.030380   0.448680   0.393452   0.005370   0.014945
     H   14   0.453636   3.570311   0.041746   0.043517   0.030934   0.006108
     H   15   0.042095   0.044265   3.570049   0.472039   0.006347   0.015485


                  C  7       H  8       H  9       C 10       H 11       C 12
 ------------------------------------------------------------------------------
     C    7  12.099082
     H    8   3.346408   4.265525
     H    9   3.348680   0.566745   4.265525
     C   10   0.672316   0.013841   0.051255  12.604932
     H   11   0.042401   0.004645   0.006413   3.663604   4.412062
     C   12   0.678512   0.013714   0.051379   3.080329   0.442286  12.575804
     H   13   0.037564   0.004777   0.006721   0.459842   0.021393   3.650508
     H   14   0.505348   0.016885   0.016784   0.453696   0.028452   0.041906
     H   15   0.507911   0.016583   0.016754   0.042063   0.006355   0.471864


                  H 13       H 14       H 15
 ------------------------------------------
     H   13   4.407724
     H   14   0.006020   4.371751
     H   15   0.015500   0.007501   4.371938


          HEAT OF FORMATION =      75.667816 KCALS/MOLE


          TRIVIAL VIBRATIONS, SHOULD BE ZERO

 -30.4761=TX -28.3895=TY -41.1389=TZ  -0.0056=RX  21.6189=RY -21.6162=RZ


      MOLECULAR POINT GROUP   :   Cs  


           EIGENVECTORS  


   Root No.       1         2         3         4         5         6         7         8

                 1 A"      2 A"      1 A'      2 A'      3 A"      4 A"      5 A"      3 A'  

                   0.1       0.2       0.4       0.5       0.5       0.6       0.6       0.7
  
           1    0.0741    0.0270    0.0004   -0.0519   -0.0179    0.0105    0.0512   -0.0301
           2    0.0111    0.0191    0.0287   -0.0164    0.0440   -0.0184    0.0245   -0.0063
           3    0.0262    0.0823    0.0319   -0.0176   -0.0126   -0.0000   -0.0757   -0.0106
           4    0.0776    0.0502   -0.0157   -0.0638    0.0271   -0.0161    0.0406   -0.0240
           5    0.0208    0.0135   -0.0146   -0.0191    0.0064   -0.0040    0.0112    0.0186
           6   -0.1312   -0.0835   -0.0072   -0.0326   -0.0421    0.0337   -0.0807   -0.0039
           7    0.0761   -0.0520    0.0160   -0.0658    0.0028    0.0399    0.0362   -0.0146
           8    0.0198   -0.0133   -0.0027   -0.0177    0.0020    0.0124    0.0112   -0.0254
           9   -0.1299    0.0893    0.0096   -0.0396   -0.0001   -0.0635   -0.0669   -0.0086
          10    0.0694   -0.0346   -0.0163   -0.0516    0.0297    0.0280    0.0454   -0.0380
          11    0.0263    0.0033    0.0245   -0.0146    0.0452   -0.0222   -0.0092    0.0007
          12    0.0258   -0.0828   -0.0288   -0.0184   -0.0286   -0.0340   -0.0682   -0.0149
          13    0.1273    0.1567    0.1079    0.0484   -0.2294    0.0784    0.3298    0.3798
          14    0.0245    0.0509    0.1279    0.0804    0.2027   -0.0574   -0.1158   -0.3660
          15    0.1511    0.3987    0.4621    0.4167   -0.0664    0.0450    0.1018   -0.0646
          16    0.1173   -0.1655   -0.1542    0.1021    0.1953    0.0531    0.1523    0.1164
          17    0.0361   -0.0362    0.0402   -0.0360    0.3702    0.0307    0.1259    0.4621
          18    0.1437   -0.4044   -0.4292    0.4550    0.0943   -0.0368    0.0661   -0.0581
          19   -0.0291   -0.0002    0.0122   -0.0741    0.0179    0.0157    0.0529   -0.0141
          20   -0.0074    0.0004   -0.0560   -0.0171    0.0047    0.0052    0.0137   -0.0022
          21    0.0500    0.0011    0.0006   -0.0407   -0.0261   -0.0225   -0.1014   -0.0026
          22    0.1495   -0.0472    0.0293   -0.1088   -0.0098    0.1911    0.0981   -0.0378
          23    0.0395    0.1649   -0.1269   -0.0290    0.1968   -0.5808    0.1141    0.0445
          24    0.5098   -0.0054   -0.0022   -0.1013    0.0258    0.0176    0.0578   -0.0223
          25   -0.5052    0.0508    0.0283   -0.1368    0.0155   -0.1844   -0.0966   -0.0331
          26   -0.1345   -0.1640   -0.1175   -0.0080   -0.1912    0.5890   -0.1516    0.0183
          27    0.0989    0.0005   -0.0000   -0.0462   -0.0221   -0.0195   -0.0907   -0.0033
          28   -0.0573   -0.0793    0.0227   -0.0415    0.0271   -0.0042    0.0411   -0.0242
          29   -0.0076   -0.0343    0.0348   -0.0128   -0.0410    0.0213   -0.0023   -0.0021
          30   -0.0536    0.0118   -0.0037   -0.0302    0.0010   -0.0015   -0.0885   -0.0135
          31   -0.1935   -0.4174    0.4347    0.3855    0.1874   -0.1057   -0.2391    0.1472
          32   -0.0408   -0.1180    0.2166    0.1605   -0.2179    0.0362    0.1889   -0.3471
          33   -0.0456    0.0383   -0.0873   -0.1152    0.1243   -0.0170   -0.2497    0.2333
          34   -0.0527    0.0901   -0.0362   -0.0410    0.0191    0.0155    0.0303   -0.0318
          35   -0.0226    0.0107    0.0183   -0.0136   -0.0321    0.0347    0.0286   -0.0012
          36   -0.0536   -0.0086    0.0066   -0.0353   -0.0466   -0.0321   -0.0699   -0.0181
          37   -0.1754    0.4226   -0.4463    0.4536   -0.1414   -0.0062   -0.0896   -0.0449
          38   -0.0524    0.1023   -0.0400    0.0474   -0.3561   -0.0138   -0.1330    0.3544
          39   -0.0426   -0.0365    0.0762   -0.1331   -0.2048   -0.0628   -0.1474    0.2024
          40    0.1606    0.1271   -0.1125   -0.1524    0.1335    0.0855   -0.2946   -0.2165
          41    0.0445    0.0341   -0.1084   -0.1063    0.0335    0.0198   -0.0663   -0.1433
          42   -0.2731   -0.2189   -0.0972   -0.1471   -0.2358   -0.1560    0.5599   -0.1300
          43    0.1612   -0.1282    0.1298   -0.2020   -0.2569   -0.2010   -0.1581   -0.1346
          44    0.0425   -0.0333   -0.0248    0.0023   -0.0671   -0.0528   -0.0400   -0.0051
          45   -0.2759    0.2181    0.0687   -0.1144    0.4398    0.3492    0.2534   -0.0851


   Root No.       9        10        11        12        13        14        15        16

                 6 A"      4 A'      5 A'      6 A'      7 A'      7 A"      8 A'      8 A"  

                   0.7       0.7       0.8       0.9       1.1       1.3       1.9       1.9
  
           1    0.0655    0.0239   -0.0367    0.0176   -0.1704   -0.0446   -0.1424    0.1473
           2    0.0408    0.0523   -0.0336   -0.1692   -0.0469   -0.0224   -0.1277    0.1606
           3   -0.0871   -0.0099   -0.0246   -0.0073   -0.1198    0.2234   -0.1272   -0.1532
           4    0.0498    0.0201   -0.0380    0.0628   -0.1366    0.0231   -0.1711    0.1747
           5    0.0117    0.0165   -0.0237   -0.1571    0.1027    0.0069    0.1266    0.0132
           6   -0.0991   -0.0065   -0.0248    0.0106   -0.0665   -0.0406   -0.1442   -0.2184
           7    0.0523    0.0063   -0.0478    0.0209   -0.0735    0.0218    0.0814   -0.1571
           8    0.0092    0.0208   -0.0061   -0.1833   -0.1418    0.0049    0.1949   -0.0753
           9   -0.0933   -0.0192   -0.0226   -0.0145   -0.0632   -0.0408    0.1392    0.2159
          10    0.0824    0.0040   -0.0515    0.0547   -0.1827   -0.0517    0.1861   -0.2040
          11   -0.0201    0.0299    0.0085   -0.1602   -0.0298   -0.0015   -0.0365    0.0677
          12   -0.0854   -0.0140   -0.0269   -0.0024   -0.1236    0.2214    0.1331    0.1582
          13   -0.1821    0.0822    0.0715   -0.2941   -0.0088   -0.1436   -0.1016    0.2020
          14    0.3432   -0.0026   -0.0940    0.1006   -0.1133   -0.1453   -0.1731    0.3582
          15    0.1080   -0.0468    0.0570    0.1046    0.1166   -0.1385    0.1060   -0.0963
          16    0.0271   -0.0834    0.0088    0.1985   -0.0923   -0.1989    0.1746   -0.3497
          17   -0.3550   -0.2830    0.1135    0.2452    0.0728    0.0574   -0.0878    0.2111
          18    0.0714    0.0727    0.0503   -0.1059    0.1201   -0.1380   -0.1026    0.0935
          19    0.0700    0.0227   -0.1231    0.0235   -0.0146    0.1911   -0.0292    0.0052
          20    0.0157    0.0197   -0.0342   -0.0735   -0.0004    0.0516    0.1004   -0.0207
          21   -0.1334   -0.0198   -0.0694    0.0018   -0.0036   -0.3273   -0.0012    0.0017
          22    0.1655   -0.0399   -0.2621   -0.0819    0.1923    0.4253   -0.0019    0.0292
          23   -0.0236    0.3613   -0.0362    0.3727    0.0310    0.1134    0.0052   -0.1165
          24    0.0347    0.0369   -0.3281    0.0284    0.4205    0.0608    0.0038   -0.0009
          25   -0.1250   -0.0829   -0.3984   -0.0671    0.4556   -0.2399   -0.0108   -0.0283
          26   -0.0785    0.3333   -0.0642    0.3799    0.1078   -0.0661    0.0497    0.1085
          27   -0.1289   -0.0189   -0.0705    0.0021   -0.0154   -0.3633   -0.0030    0.0020
          28    0.0391    0.0154   -0.0385    0.0237   -0.1778   -0.1739   -0.1262    0.1328
          29   -0.0283    0.0380   -0.0318   -0.1667   -0.0482   -0.0350   -0.1582   -0.0420
          30   -0.1166   -0.0050   -0.0204   -0.0216   -0.1051    0.1455   -0.1726   -0.1834
          31    0.0857    0.0020    0.1031   -0.0725    0.1071    0.1719    0.0726    0.0090
          32   -0.4029   -0.1400   -0.0776    0.1641   -0.0874    0.1516   -0.2268   -0.2307
          33    0.1214    0.1153    0.0169   -0.2819   -0.0872    0.0926   -0.2717   -0.2085
          34    0.0245   -0.0007   -0.0529    0.0449   -0.1912   -0.1704    0.1817   -0.0959
          35    0.0383    0.0428    0.0052   -0.1625   -0.0314   -0.0566   -0.0760   -0.1046
          36   -0.1085   -0.0259   -0.0215    0.0131   -0.1083    0.1436    0.1697    0.1833
          37   -0.1339    0.0062    0.0433   -0.0228    0.0456    0.2258    0.0581    0.1088
          38    0.4523   -0.1157    0.0970    0.1796    0.1086   -0.0466   -0.2217   -0.2061
          39    0.1736   -0.1332    0.0048    0.2728   -0.1213    0.0891    0.2706    0.2061
          40   -0.0506   -0.4024    0.3269    0.1032    0.0434   -0.0168   -0.2111   -0.0034
          41    0.0176   -0.3134    0.2749   -0.1575    0.3068   -0.0036    0.2809   -0.0687
          42    0.2208   -0.2107    0.2103    0.0386    0.0699    0.0342   -0.0605    0.0774
          43   -0.1704    0.4265    0.4955   -0.0114    0.2038   -0.0192    0.0397    0.0294
          44   -0.0204   -0.0598   -0.0975   -0.2122   -0.2304   -0.0086    0.3502   -0.0547
          45    0.1224    0.2850    0.2696   -0.0383    0.0868    0.0378    0.0607   -0.0776


   Root No.      17        18        19        20        21        22        23        24

                 9 A'      9 A"     19 ????   20 ????   10 A'     22 ????   23 ????   24 ????

                   2.3       2.7       2.8       2.8       3.3       4.3       4.3       4.3
  
           1    0.0230   -0.2299   -0.0082    0.2543   -0.0524    0.1147    0.0291    0.0697
           2   -0.0367   -0.0240   -0.2435   -0.1984   -0.0995   -0.0122    0.0467    0.0915
           3    0.0005   -0.2639   -0.2619    0.1520   -0.0780    0.3273    0.0512    0.3601
           4    0.0243   -0.0848    0.1079    0.1937    0.0864    0.0625   -0.2991    0.1640
           5   -0.2844   -0.0068   -0.0154    0.2276   -0.0594    0.0426   -0.0743    0.0435
           6   -0.0296    0.1755   -0.2781    0.0454    0.0431   -0.1243    0.5104   -0.2828
           7   -0.1184   -0.0654   -0.1108   -0.2776    0.0431    0.0518   -0.2319   -0.2590
           8    0.2524   -0.0026   -0.0764    0.1078    0.0957   -0.0112   -0.0703   -0.0706
           9   -0.0288    0.0690    0.3191   -0.0521    0.0399   -0.0937    0.3917    0.4384
          10    0.0028   -0.2515    0.0460   -0.1015   -0.0970    0.0814    0.0832   -0.0945
          11    0.0465   -0.0406   -0.2292   -0.2954    0.0584    0.0659   -0.0393    0.0294
          12    0.0036   -0.3434    0.1578   -0.1315   -0.0812    0.2897    0.1749   -0.3515
          13    0.0078   -0.0546   -0.1828   -0.1768   -0.1673   -0.2470    0.1335   -0.0186
          14   -0.0364   -0.1040   -0.0642    0.0349   -0.1969   -0.2697    0.1206   -0.0237
          15    0.0203    0.1495    0.1779    0.0045    0.0920    0.0959   -0.0438   -0.0875
          16   -0.0114   -0.1473    0.1451    0.1531   -0.2419   -0.3431    0.1508    0.1158
          17    0.0371    0.0575    0.0637    0.1096    0.0882    0.1118   -0.0289   -0.0312
          18    0.0212    0.2023   -0.1153   -0.0228    0.0921    0.1034   -0.0673    0.0608
          19   -0.2792    0.0493    0.0334   -0.0920    0.1990   -0.0234    0.0171    0.0039
          20   -0.0786    0.0429   -0.0788    0.3239    0.0558   -0.0040    0.0055   -0.0005
          21   -0.1753   -0.0996   -0.0151    0.0016    0.1254   -0.0026   -0.0394   -0.0052
          22   -0.2099    0.2110    0.0429    0.0373    0.3141   -0.1614    0.1563    0.0511
          23   -0.0546    0.0523   -0.0056   -0.1846    0.0833   -0.0468    0.0515   -0.0515
          24    0.3371   -0.0253   -0.0070    0.0036   -0.2249    0.0654   -0.0027   -0.0039
          25    0.1914   -0.0678   -0.0404    0.0448   -0.0480    0.0142   -0.0697   -0.0292
          26    0.0526   -0.0440    0.0959   -0.1492   -0.0139    0.0063   -0.0301    0.0582
          27   -0.3467   -0.2079   -0.0336    0.0045    0.3914   -0.0958   -0.2116   -0.0298
          28    0.0163    0.3819    0.0541    0.2897   -0.0786    0.3229    0.0974   -0.3367
          29   -0.0372    0.0315    0.3531   -0.0385   -0.1067    0.0651   -0.0277   -0.1642
          30    0.0109    0.0920   -0.0953    0.0480   -0.0316   -0.0429   -0.0347    0.0875
          31    0.0249   -0.1322   -0.0245   -0.0898    0.0201    0.0032   -0.0144    0.0830
          32   -0.0308    0.0669   -0.0262    0.0354   -0.1454   -0.1426   -0.1692    0.0442
          33   -0.0106    0.1220    0.3012   -0.0322   -0.2319   -0.2116   -0.2867   -0.0113
          34   -0.0015    0.3839   -0.0919   -0.2621   -0.1220    0.3440   -0.0421    0.3494
          35    0.0463    0.0419    0.3132   -0.1853    0.0507    0.1034    0.0620    0.0371
          36    0.0107    0.0557    0.1213   -0.0503   -0.0322   -0.0529   -0.0072   -0.0890
          37    0.0068   -0.0820    0.0071    0.0659   -0.0537   -0.0793   -0.0638   -0.1121
          38    0.0427   -0.1106   -0.0559    0.0806    0.1379    0.1304    0.1367    0.0300
          39   -0.0129    0.2276   -0.2420    0.0232   -0.2273   -0.2140   -0.2809   -0.0602
          40    0.2691    0.0395   -0.0086   -0.2267    0.1813   -0.1089    0.0238   -0.0254
          41   -0.3401    0.0198   -0.0215    0.0051   -0.2807    0.1120    0.0421   -0.0066
          42    0.1032   -0.1031    0.1283   -0.0862    0.0617   -0.0206   -0.0850    0.0395
          43    0.0541    0.0498    0.0308    0.1877    0.0169   -0.0316    0.0299    0.0387
          44    0.4212    0.0198   -0.0093    0.1264    0.3325   -0.1510   -0.0254    0.0144
          45    0.0963   -0.0503   -0.1573    0.0923    0.0616   -0.0235   -0.0691   -0.0650


   Root No.      25        26        27        28        29        30        31        32

                11 A'     10 A"     12 A'     13 A'     11 A"     14 A'     15 A'     12 A"  

                   5.2       5.6       5.7       6.4       6.7       8.4       8.7       9.3
  
           1   -0.0532   -0.3410    0.1008    0.1023    0.3786    0.2321   -0.0454   -0.0223
           2   -0.1217    0.2257   -0.2020   -0.1301   -0.2292   -0.2436   -0.1508   -0.0395
           3   -0.3668   -0.1606   -0.0895   -0.2204   -0.0763   -0.0883    0.1295    0.0285
           4    0.1567    0.1319   -0.0088    0.3035   -0.0921    0.0466   -0.3638    0.0615
           5    0.1263    0.0372   -0.1209    0.2213   -0.0234   -0.2629   -0.1678    0.0152
           6    0.1088   -0.2282   -0.0272    0.2065    0.1663   -0.0150   -0.2377   -0.1029
           7   -0.1974   -0.1354    0.0640    0.3706   -0.0910   -0.1027    0.3971    0.0619
           8    0.0292   -0.0356   -0.0964   -0.0417   -0.0267    0.2481    0.0474    0.0162
           9   -0.1145    0.2262    0.0215    0.2122    0.1637   -0.0198    0.2425   -0.1046
          10    0.1067    0.1849    0.0129    0.0250    0.2088    0.0747    0.1171   -0.0398
          11   -0.0780    0.3610   -0.2256    0.1643    0.3887    0.3327   -0.1005    0.0243
          12    0.3659    0.1626    0.0898   -0.2143   -0.0801   -0.0799   -0.1334    0.0290
          13    0.0586   -0.0464    0.1356   -0.0713   -0.1111    0.0045    0.1063    0.0188
          14    0.0979   -0.1440    0.2094   -0.0561   -0.1179    0.0028    0.1208    0.0246
          15   -0.0139    0.0491   -0.0719    0.0228    0.0674   -0.0025   -0.0537   -0.0107
          16   -0.1017    0.1103   -0.2215   -0.0907   -0.1523    0.0114   -0.1526    0.0291
          17    0.0564   -0.1017    0.1148    0.0133    0.0468   -0.0032    0.0499   -0.0124
          18    0.0145   -0.0483    0.0728    0.0230    0.0678   -0.0051    0.0530   -0.0112
          19   -0.1058   -0.0011    0.1002    0.1789   -0.0144   -0.3302   -0.1364   -0.4029
          20    0.3956    0.0046   -0.3780    0.0453   -0.0047   -0.0930    0.4895   -0.1061
          21    0.0003   -0.0009   -0.0005    0.1115    0.0304   -0.2043   -0.0039    0.6911
          22    0.0195    0.0077   -0.0111   -0.3109    0.0505    0.1977    0.0027    0.3324
          23   -0.0732   -0.0245    0.0537   -0.0830    0.0133    0.0530    0.0000    0.0889
          24   -0.0001   -0.0008   -0.0012    0.1089   -0.0118   -0.0629   -0.0007   -0.1786
          25    0.0205   -0.0061   -0.0138   -0.0502   -0.0145    0.0375    0.0008   -0.0008
          26   -0.0734    0.0243    0.0529   -0.0126   -0.0042    0.0102   -0.0003   -0.0003
          27    0.0019    0.0018    0.0031   -0.3347   -0.0596    0.2063    0.0029   -0.3898
          28   -0.3262    0.3386    0.0121   -0.1148   -0.1528    0.0749    0.1079   -0.0191
          29   -0.1915   -0.2164   -0.2327   -0.1992    0.2879   -0.2871   -0.1074    0.0328
          30    0.0927    0.1606    0.0850    0.1666   -0.3039    0.1831   -0.1316    0.0406
          31    0.0041   -0.0383   -0.0238   -0.0078   -0.0193   -0.0006   -0.0089    0.0030
          32    0.0863    0.1174    0.1717   -0.0399    0.0823    0.0030    0.0888   -0.0185
          33    0.0836    0.0911    0.2011   -0.0866    0.1508    0.0067    0.1425   -0.0268
          34    0.3780   -0.1821    0.1067   -0.1953    0.0081   -0.0771   -0.0411   -0.0018
          35   -0.0087   -0.3576   -0.2094    0.1099   -0.3263    0.2887   -0.1444   -0.0397
          36   -0.0975   -0.1661   -0.0870    0.1638   -0.3008    0.1786    0.1389    0.0404
          37   -0.0453   -0.0258   -0.0634   -0.0283    0.0243    0.0013   -0.0376   -0.0067
          38    0.0700    0.1199    0.1598    0.0337   -0.0813   -0.0043    0.0810    0.0187
          39   -0.0781   -0.0891   -0.1972   -0.0906    0.1502    0.0092   -0.1446   -0.0275
          40    0.0382    0.0110   -0.1964   -0.0654   -0.0113   -0.1436    0.0595   -0.0066
          41   -0.1589   -0.0044    0.3222    0.0213   -0.0021    0.1922   -0.0911   -0.0030
          42   -0.0011   -0.0106   -0.0637   -0.0338    0.0172   -0.0529    0.0188    0.0107
          43    0.0474   -0.0084    0.0064   -0.0455   -0.0115   -0.0265   -0.0056   -0.0068
          44   -0.1563   -0.0060    0.3805   -0.0465   -0.0032   -0.2365   -0.1152   -0.0012
          45    0.0043    0.0133    0.0650   -0.0350    0.0187   -0.0530   -0.0223    0.0120


   Root No.      33        34        35        36        37        38        39

                13 A"     16 A'     14 A"     17 A'     18 A'     19 A'     20 A'  

                  11.1      11.3      11.4      11.4      12.1      16.0      17.1
  
           1   -0.2897    0.0484    0.1829   -0.0222   -0.0562   -0.3571    0.2891
           2   -0.2357   -0.1652    0.4598   -0.1172    0.2732   -0.1063    0.2357
           3    0.1028    0.0038   -0.0617    0.0447   -0.0958    0.1918   -0.2009
           4    0.0378   -0.1912   -0.0359   -0.2401    0.2556    0.2989   -0.2921
           5    0.0063   -0.3656   -0.0824    0.4342   -0.4469   -0.0349    0.1082
           6   -0.0561   -0.1764    0.0615   -0.0629    0.0788    0.1691   -0.1536
           7   -0.0417   -0.3085   -0.0408   -0.1672   -0.0045   -0.2440   -0.1948
           8   -0.0133   -0.0088   -0.0615    0.5587    0.4973   -0.1834   -0.2372
           9    0.0758   -0.1886    0.0405   -0.0005    0.0776   -0.1729   -0.1524
          10    0.4530   -0.0740    0.2617    0.1295    0.0814    0.3684    0.3617
          11   -0.1330    0.2024   -0.2668   -0.0808   -0.2592    0.0862   -0.0612
          12   -0.1169    0.0220   -0.0255   -0.0519   -0.0920   -0.1961   -0.1971
          13    0.1266    0.0393   -0.1308    0.0306   -0.0421    0.0627   -0.0622
          14    0.1450    0.0369   -0.1745    0.0470   -0.0670    0.0631   -0.0818
          15   -0.0644   -0.0144    0.0632   -0.0245    0.0312   -0.0328    0.0335
          16   -0.2278    0.0713   -0.1382   -0.0635   -0.0658   -0.0870   -0.0928
          17    0.0808   -0.0233    0.0627    0.0340    0.0337    0.0236    0.0397
          18    0.0788   -0.0237    0.0403    0.0278    0.0286    0.0335    0.0324
          19   -0.0123    0.5539   -0.0371    0.2246    0.1135   -0.0023   -0.0173
          20   -0.0010    0.2389    0.0365   -0.3458    0.0349    0.0080   -0.0047
          21    0.0113    0.3502    0.1238    0.0923    0.0691   -0.0001   -0.0108
          22    0.0063   -0.1383    0.0308   -0.0303   -0.0196    0.0028    0.0105
          23    0.0015   -0.0407    0.0065    0.0088   -0.0057   -0.0099    0.0029
          24   -0.0033    0.0499   -0.0169    0.0085    0.0078    0.0000   -0.0017
          25    0.0002   -0.0206   -0.0015   -0.0094   -0.0024    0.0029    0.0034
          26   -0.0000   -0.0091   -0.0022    0.0147   -0.0009   -0.0101    0.0009
          27   -0.0052   -0.1434   -0.0531   -0.0380   -0.0199    0.0003    0.0105
          28    0.0214    0.0478    0.0238    0.0470   -0.1467    0.0003   -0.0596
          29    0.1677   -0.0980   -0.4008   -0.1726    0.2472   -0.0116    0.1421
          30    0.3527    0.0519   -0.2697   -0.1145    0.0561   -0.4191    0.3942
          31    0.0120    0.0038   -0.0100   -0.0134    0.0141   -0.0055    0.0086
          32   -0.1093    0.0049    0.1301    0.0585   -0.0506    0.0452   -0.0628
          33   -0.1734    0.0183    0.1751    0.0795   -0.0651    0.0833   -0.0872
          34   -0.1427   -0.0230   -0.1525    0.0014   -0.0019    0.0043    0.0194
          35    0.2151    0.1592    0.3423   -0.0444   -0.2831   -0.0102   -0.1529
          36   -0.4107   -0.0009   -0.1952    0.0764    0.0555    0.4263    0.3875
          37    0.0564    0.0117    0.0465   -0.0034   -0.0133   -0.0179   -0.0237
          38   -0.1267   -0.0231   -0.1003    0.0283    0.0489    0.0420    0.0581
          39    0.2125    0.0471    0.1400   -0.0328   -0.0633   -0.0842   -0.0856
          40   -0.0043   -0.0347   -0.0073    0.1269   -0.1105   -0.0326    0.0415
          41    0.0009    0.0745    0.0250   -0.1814    0.1834    0.0434   -0.0539
          42    0.0045   -0.0080   -0.0165    0.0427   -0.0345   -0.0115    0.0153
          43    0.0047    0.0140    0.0085   -0.0108   -0.0016    0.0060    0.0083
          44    0.0016    0.0169    0.0255   -0.2420   -0.2052    0.0547    0.0669
          45   -0.0083    0.0124   -0.0057   -0.0469   -0.0340    0.0126    0.0158


          FORCE CONSTANTS IN MILLIDYNES/ANGSTROM (= 10**5 DYNES/CM)

   0.13050   0.24665   0.44656   0.51693   0.54142   0.56627   0.59922   0.68789
   0.72745   0.74973   0.79589   0.94628   1.08641   1.26180   1.86609   1.88992
   2.28236   2.71209   2.78159   2.79448   3.33472   4.25170   4.25818   4.30735
   5.24661   5.64435   5.67732   6.39353   6.69024   8.42496   8.70290   9.33073
  11.08631  11.32426  11.35534  11.38884  12.12710  15.97285  17.09554


           ASSOCIATED EIGENVECTORS




    ROOT NO.    1           2           3           4           5           6

             0.13050     0.24665     0.44656     0.51693     0.54142     0.56627
  
         1   0.07414     0.02698     0.00041    -0.05187    -0.01788     0.01045
         2   0.01113     0.01912     0.02870    -0.01645     0.04396    -0.01837
         3   0.02616     0.08231     0.03194    -0.01756    -0.01258    -0.00003
         4   0.07762     0.05022    -0.01570    -0.06380     0.02705    -0.01608
         5   0.02077     0.01351    -0.01464    -0.01914     0.00638    -0.00405
         6  -0.13115    -0.08346    -0.00723    -0.03262    -0.04213     0.03371
         7   0.07605    -0.05196     0.01602    -0.06583     0.00278     0.03988
         8   0.01985    -0.01329    -0.00275    -0.01767     0.00197     0.01239
         9  -0.12992     0.08928     0.00956    -0.03960    -0.00014    -0.06347
        10   0.06937    -0.03464    -0.01633    -0.05161     0.02972     0.02797
        11   0.02633     0.00335     0.02454    -0.01456     0.04524    -0.02224
        12   0.02580    -0.08279    -0.02881    -0.01844    -0.02855    -0.03398
        13   0.12732     0.15667     0.10788     0.04839    -0.22935     0.07837
        14   0.02447     0.05085     0.12788     0.08043     0.20269    -0.05736
        15   0.15105     0.39871     0.46207     0.41675    -0.06640     0.04502
        16   0.11732    -0.16550    -0.15421     0.10210     0.19532     0.05310
        17   0.03614    -0.03619     0.04023    -0.03604     0.37020     0.03071
        18   0.14372    -0.40440    -0.42918     0.45496     0.09425    -0.03676
        19  -0.02909    -0.00017     0.01222    -0.07411     0.01788     0.01574
        20  -0.00736     0.00038    -0.05595    -0.01710     0.00473     0.00524
        21   0.04998     0.00111     0.00064    -0.04070    -0.02615    -0.02247
        22   0.14952    -0.04719     0.02933    -0.10880    -0.00981     0.19111
        23   0.03949     0.16487    -0.12691    -0.02897     0.19679    -0.58083
        24   0.50979    -0.00542    -0.00222    -0.10127     0.02575     0.01763
        25  -0.50519     0.05080     0.02829    -0.13680     0.01549    -0.18438
        26  -0.13449    -0.16405    -0.11754    -0.00803    -0.19121     0.58903
        27   0.09890     0.00053    -0.00000    -0.04617    -0.02207    -0.01946
        28  -0.05731    -0.07933     0.02269    -0.04150     0.02714    -0.00420
        29  -0.00755    -0.03427     0.03478    -0.01280    -0.04104     0.02129
        30  -0.05358     0.01180    -0.00374    -0.03024     0.00103    -0.00146
        31  -0.19348    -0.41742     0.43473     0.38553     0.18735    -0.10575
        32  -0.04085    -0.11797     0.21659     0.16048    -0.21791     0.03623
        33  -0.04557     0.03828    -0.08734    -0.11522     0.12434    -0.01700
        34  -0.05269     0.09008    -0.03624    -0.04097     0.01907     0.01553
        35  -0.02255     0.01065     0.01826    -0.01360    -0.03207     0.03473
        36  -0.05355    -0.00859     0.00657    -0.03530    -0.04658    -0.03208
        37  -0.17543     0.42258    -0.44634     0.45361    -0.14139    -0.00620
        38  -0.05239     0.10226    -0.03998     0.04737    -0.35613    -0.01378
        39  -0.04259    -0.03654     0.07622    -0.13311    -0.20483    -0.06277
        40   0.16060     0.12710    -0.11253    -0.15238     0.13355     0.08548
        41   0.04449     0.03409    -0.10839    -0.10626     0.03347     0.01979
        42  -0.27310    -0.21894    -0.09719    -0.14710    -0.23577    -0.15604
        43   0.16124    -0.12821     0.12979    -0.20197    -0.25692    -0.20101
        44   0.04252    -0.03332    -0.02481     0.00234    -0.06706    -0.05278
        45  -0.27592     0.21813     0.06871    -0.11438     0.43983     0.34917




    ROOT NO.    7           8           9          10          11          12

             0.59922     0.68789     0.72745     0.74973     0.79589     0.94628
  
         1   0.05123    -0.03010     0.06553     0.02389    -0.03672     0.01761
         2   0.02448    -0.00632     0.04076     0.05231    -0.03356    -0.16921
         3  -0.07567    -0.01063    -0.08708    -0.00990    -0.02462    -0.00735
         4   0.04056    -0.02398     0.04982     0.02011    -0.03795     0.06281
         5   0.01117     0.01863     0.01172     0.01649    -0.02369    -0.15705
         6  -0.08065    -0.00386    -0.09913    -0.00649    -0.02477     0.01062
         7   0.03618    -0.01463     0.05231     0.00630    -0.04785     0.02087
         8   0.01122    -0.02542     0.00919     0.02076    -0.00613    -0.18333
         9  -0.06692    -0.00856    -0.09333    -0.01922    -0.02259    -0.01453
        10   0.04537    -0.03796     0.08245     0.00404    -0.05146     0.05473
        11  -0.00919     0.00072    -0.02015     0.02993     0.00846    -0.16015
        12  -0.06819    -0.01492    -0.08542    -0.01399    -0.02690    -0.00236
        13   0.32980     0.37982    -0.18213     0.08215     0.07148    -0.29412
        14  -0.11580    -0.36603     0.34324    -0.00262    -0.09403     0.10063
        15   0.10183    -0.06461     0.10803    -0.04682     0.05697     0.10464
        16   0.15232     0.11636     0.02708    -0.08344     0.00879     0.19848
        17   0.12589     0.46211    -0.35502    -0.28302     0.11346     0.24522
        18   0.06614    -0.05814     0.07144     0.07272     0.05026    -0.10593
        19   0.05293    -0.01406     0.07000     0.02267    -0.12313     0.02353
        20   0.01367    -0.00216     0.01567     0.01969    -0.03422    -0.07351
        21  -0.10143    -0.00261    -0.13345    -0.01982    -0.06945     0.00180
        22   0.09809    -0.03775     0.16553    -0.03986    -0.26206    -0.08187
        23   0.11414     0.04450    -0.02361     0.36131    -0.03615     0.37267
        24   0.05783    -0.02230     0.03467     0.03685    -0.32809     0.02845
        25  -0.09662    -0.03306    -0.12498    -0.08290    -0.39844    -0.06706
        26  -0.15155     0.01835    -0.07853     0.33328    -0.06419     0.37992
        27  -0.09074    -0.00331    -0.12888    -0.01888    -0.07046     0.00205
        28   0.04113    -0.02418     0.03912     0.01541    -0.03850     0.02369
        29  -0.00227    -0.00207    -0.02828     0.03798    -0.03184    -0.16666
        30  -0.08850    -0.01350    -0.11662    -0.00505    -0.02045    -0.02163
        31  -0.23909     0.14723     0.08575     0.00204     0.10308    -0.07251
        32   0.18893    -0.34714    -0.40290    -0.13996    -0.07763     0.16408
        33  -0.24969     0.23326     0.12140     0.11532     0.01694    -0.28190
        34   0.03034    -0.03176     0.02447    -0.00069    -0.05293     0.04493
        35   0.02861    -0.00121     0.03834     0.04281     0.00521    -0.16252
        36  -0.06994    -0.01815    -0.10846    -0.02585    -0.02148     0.01308
        37  -0.08961    -0.04488    -0.13388     0.00622     0.04334    -0.02281
        38  -0.13302     0.35441     0.45235    -0.11574     0.09700     0.17963
        39  -0.14741     0.20242     0.17356    -0.13322     0.00480     0.27284
        40  -0.29458    -0.21647    -0.05063    -0.40243     0.32687     0.10317
        41  -0.06631    -0.14330     0.01763    -0.31341     0.27486    -0.15751
        42   0.55989    -0.12999     0.22082    -0.21067     0.21029     0.03856
        43  -0.15806    -0.13458    -0.17045     0.42648     0.49547    -0.01144
        44  -0.03997    -0.00506    -0.02041    -0.05982    -0.09754    -0.21219
        45   0.25345    -0.08511     0.12244     0.28502     0.26956    -0.03833




    ROOT NO.   13          14          15          16          17          18

             1.08641     1.26180     1.86609     1.88992     2.28236     2.71209
  
         1  -0.17036    -0.04461    -0.14236     0.14730     0.02299    -0.22987
         2  -0.04694    -0.02239    -0.12772     0.16062    -0.03666    -0.02397
         3  -0.11980     0.22336    -0.12723    -0.15318     0.00048    -0.26390
         4  -0.13661     0.02312    -0.17111     0.17474     0.02425    -0.08480
         5   0.10268     0.00690     0.12656     0.01316    -0.28440    -0.00682
         6  -0.06646    -0.04058    -0.14425    -0.21837    -0.02958     0.17549
         7  -0.07349     0.02178     0.08142    -0.15712    -0.11844    -0.06535
         8  -0.14181     0.00488     0.19490    -0.07531     0.25244    -0.00259
         9  -0.06318    -0.04077     0.13916     0.21591    -0.02875     0.06900
        10  -0.18268    -0.05173     0.18605    -0.20396     0.00275    -0.25149
        11  -0.02982    -0.00153    -0.03649     0.06769     0.04653    -0.04056
        12  -0.12363     0.22145     0.13311     0.15824     0.00362    -0.34342
        13  -0.00881    -0.14362    -0.10161     0.20202     0.00778    -0.05464
        14  -0.11325    -0.14535    -0.17314     0.35820    -0.03639    -0.10398
        15   0.11655    -0.13848     0.10598    -0.09628     0.02027     0.14953
        16  -0.09229    -0.19888     0.17456    -0.34970    -0.01139    -0.14727
        17   0.07279     0.05739    -0.08781     0.21112     0.03706     0.05745
        18   0.12006    -0.13804    -0.10259     0.09350     0.02123     0.20230
        19  -0.01455     0.19110    -0.02916     0.00519    -0.27917     0.04929
        20  -0.00036     0.05160     0.10035    -0.02066    -0.07862     0.04287
        21  -0.00355    -0.32732    -0.00124     0.00166    -0.17532    -0.09962
        22   0.19232     0.42532    -0.00188     0.02924    -0.20991     0.21104
        23   0.03095     0.11335     0.00521    -0.11647    -0.05464     0.05233
        24   0.42048     0.06079     0.00385    -0.00091     0.33709    -0.02525
        25   0.45558    -0.23991    -0.01077    -0.02832     0.19142    -0.06784
        26   0.10780    -0.06609     0.04969     0.10852     0.05263    -0.04404
        27  -0.01536    -0.36331    -0.00295     0.00203    -0.34673    -0.20794
        28  -0.17780    -0.17386    -0.12618     0.13279     0.01632     0.38188
        29  -0.04823    -0.03502    -0.15822    -0.04198    -0.03723     0.03149
        30  -0.10507     0.14549    -0.17264    -0.18342     0.01093     0.09202
        31   0.10708     0.17189     0.07263     0.00900     0.02491    -0.13216
        32  -0.08741     0.15157    -0.22678    -0.23071    -0.03085     0.06691
        33  -0.08723     0.09264    -0.27167    -0.20847    -0.01058     0.12197
        34  -0.19125    -0.17036     0.18169    -0.09594    -0.00150     0.38388
        35  -0.03142    -0.05655    -0.07596    -0.10460     0.04627     0.04189
        36  -0.10830     0.14364     0.16967     0.18335     0.01068     0.05566
        37   0.04565     0.22578     0.05813     0.10884     0.00683    -0.08200
        38   0.10862    -0.04660    -0.22172    -0.20614     0.04275    -0.11063
        39  -0.12127     0.08910     0.27065     0.20614    -0.01286     0.22759
        40   0.04340    -0.01682    -0.21113    -0.00345     0.26907     0.03953
        41   0.30680    -0.00361     0.28092    -0.06871    -0.34011     0.01983
        42   0.06992     0.03425    -0.06053     0.07739     0.10320    -0.10307
        43   0.20383    -0.01921     0.03971     0.02937     0.05408     0.04980
        44  -0.23041    -0.00857     0.35020    -0.05474     0.42121     0.01983
        45   0.08682     0.03779     0.06070    -0.07760     0.09632    -0.05034




    ROOT NO.   19          20          21          22          23          24

             2.78159     2.79448     3.33472     4.25170     4.25818     4.30735
  
         1  -0.00817     0.25427    -0.05236     0.11473     0.02907     0.06973
         2  -0.24348    -0.19838    -0.09947    -0.01217     0.04673     0.09147
         3  -0.26186     0.15204    -0.07798     0.32729     0.05125     0.36010
         4   0.10787     0.19372     0.08639     0.06247    -0.29913     0.16399
         5  -0.01539     0.22765    -0.05943     0.04262    -0.07431     0.04348
         6  -0.27808     0.04538     0.04307    -0.12434     0.51043    -0.28284
         7  -0.11076    -0.27759     0.04307     0.05179    -0.23186    -0.25897
         8  -0.07642     0.10781     0.09572    -0.01121    -0.07031    -0.07064
         9   0.31906    -0.05214     0.03989    -0.09368     0.39174     0.43836
        10   0.04600    -0.10153    -0.09705     0.08141     0.08317    -0.09455
        11  -0.22915    -0.29542     0.05838     0.06586    -0.03925     0.02939
        12   0.15780    -0.13151    -0.08121     0.28970     0.17492    -0.35153
        13  -0.18275    -0.17678    -0.16728    -0.24704     0.13347    -0.01859
        14  -0.06416     0.03489    -0.19690    -0.26969     0.12061    -0.02370
        15   0.17791     0.00453     0.09203     0.09594    -0.04377    -0.08749
        16   0.14513     0.15313    -0.24188    -0.34309     0.15085     0.11575
        17   0.06375     0.10965     0.08821     0.11176    -0.02891    -0.03116
        18  -0.11527    -0.02284     0.09213     0.10345    -0.06728     0.06081
        19   0.03336    -0.09196     0.19897    -0.02341     0.01709     0.00393
        20  -0.07875     0.32390     0.05583    -0.00399     0.00547    -0.00051
        21  -0.01513     0.00159     0.12538    -0.00259    -0.03940    -0.00523
        22   0.04287     0.03725     0.31412    -0.16141     0.15634     0.05107
        23  -0.00562    -0.18463     0.08325    -0.04678     0.05155    -0.05155
        24  -0.00700     0.00364    -0.22492     0.06538    -0.00267    -0.00387
        25  -0.04042     0.04485    -0.04804     0.01424    -0.06971    -0.02921
        26   0.09588    -0.14921    -0.01392     0.00631    -0.03014     0.05819
        27  -0.03357     0.00451     0.39140    -0.09577    -0.21162    -0.02978
        28   0.05407     0.28967    -0.07861     0.32291     0.09743    -0.33672
        29   0.35305    -0.03850    -0.10671     0.06515    -0.02772    -0.16417
        30  -0.09532     0.04799    -0.03161    -0.04294    -0.03474     0.08752
        31  -0.02455    -0.08981     0.02012     0.00317    -0.01441     0.08303
        32  -0.02624     0.03544    -0.14540    -0.14264    -0.16917     0.04417
        33   0.30121    -0.03224    -0.23193    -0.21155    -0.28666    -0.01132
        34  -0.09194    -0.26206    -0.12200     0.34400    -0.04213     0.34942
        35   0.31320    -0.18531     0.05070     0.10342     0.06197     0.03712
        36   0.12127    -0.05031    -0.03219    -0.05288    -0.00723    -0.08904
        37   0.00706     0.06589    -0.05367    -0.07926    -0.06382    -0.11214
        38  -0.05585     0.08065     0.13786     0.13040     0.13674     0.03005
        39  -0.24199     0.02323    -0.22734    -0.21398    -0.28086    -0.06020
        40  -0.00856    -0.22671     0.18133    -0.10894     0.02378    -0.02545
        41  -0.02154     0.00508    -0.28067     0.11197     0.04210    -0.00657
        42   0.12830    -0.08617     0.06170    -0.02055    -0.08497     0.03952
        43   0.03079     0.18766     0.01690    -0.03157     0.02986     0.03870
        44  -0.00928     0.12640     0.33254    -0.15100    -0.02535     0.01445
        45  -0.15733     0.09229     0.06160    -0.02346    -0.06915    -0.06501




    ROOT NO.   25          26          27          28          29          30

             5.24661     5.64435     5.67732     6.39353     6.69024     8.42496
  
         1  -0.05315    -0.34097     0.10079     0.10229     0.37855     0.23210
         2  -0.12168     0.22571    -0.20202    -0.13012    -0.22919    -0.24356
         3  -0.36676    -0.16063    -0.08951    -0.22045    -0.07625    -0.08832
         4   0.15667     0.13191    -0.00879     0.30351    -0.09210     0.04661
         5   0.12631     0.03722    -0.12089     0.22134    -0.02345    -0.26295
         6   0.10876    -0.22819    -0.02724     0.20649     0.16630    -0.01503
         7  -0.19743    -0.13540     0.06401     0.37057    -0.09100    -0.10271
         8   0.02922    -0.03557    -0.09637    -0.04170    -0.02669     0.24813
         9  -0.11455     0.22616     0.02146     0.21220     0.16372    -0.01985
        10   0.10666     0.18491     0.01290     0.02502     0.20884     0.07473
        11  -0.07802     0.36104    -0.22560     0.16434     0.38867     0.33272
        12   0.36587     0.16263     0.08981    -0.21426    -0.08008    -0.07995
        13   0.05862    -0.04644     0.13560    -0.07135    -0.11112     0.00448
        14   0.09792    -0.14399     0.20938    -0.05613    -0.11790     0.00277
        15  -0.01394     0.04914    -0.07185     0.02279     0.06744    -0.00248
        16  -0.10170     0.11026    -0.22150    -0.09071    -0.15226     0.01141
        17   0.05637    -0.10171     0.11481     0.01325     0.04685    -0.00323
        18   0.01450    -0.04831     0.07280     0.02304     0.06778    -0.00513
        19  -0.10580    -0.00106     0.10021     0.17894    -0.01441    -0.33023
        20   0.39563     0.00464    -0.37804     0.04533    -0.00470    -0.09303
        21   0.00029    -0.00086    -0.00048     0.11154     0.03037    -0.20430
        22   0.01947     0.00772    -0.01107    -0.31087     0.05048     0.19774
        23  -0.07321    -0.02451     0.05370    -0.08296     0.01329     0.05302
        24  -0.00006    -0.00083    -0.00121     0.10891    -0.01176    -0.06288
        25   0.02049    -0.00607    -0.01378    -0.05017    -0.01446     0.03749
        26  -0.07337     0.02426     0.05294    -0.01264    -0.00415     0.01017
        27   0.00194     0.00177     0.00308    -0.33471    -0.05959     0.20627
        28  -0.32618     0.33864     0.01211    -0.11482    -0.15280     0.07492
        29  -0.19149    -0.21640    -0.23266    -0.19922     0.28793    -0.28712
        30   0.09274     0.16056     0.08496     0.16660    -0.30395     0.18312
        31   0.00410    -0.03826    -0.02377    -0.00784    -0.01926    -0.00061
        32   0.08628     0.11736     0.17168    -0.03988     0.08227     0.00298
        33   0.08362     0.09110     0.20107    -0.08658     0.15081     0.00669
        34   0.37801    -0.18208     0.10670    -0.19530     0.00806    -0.07713
        35  -0.00875    -0.35757    -0.20942     0.10990    -0.32630     0.28867
        36  -0.09753    -0.16612    -0.08696     0.16382    -0.30082     0.17860
        37  -0.04531    -0.02582    -0.06336    -0.02835     0.02432     0.00126
        38   0.06998     0.11991     0.15982     0.03368    -0.08126    -0.00428
        39  -0.07808    -0.08908    -0.19719    -0.09063     0.15018     0.00918
        40   0.03820     0.01104    -0.19644    -0.06545    -0.01132    -0.14362
        41  -0.15891    -0.00441     0.32215     0.02133    -0.00213     0.19218
        42  -0.00111    -0.01063    -0.06374    -0.03381     0.01719    -0.05291
        43   0.04737    -0.00836     0.00639    -0.04547    -0.01151    -0.02646
        44  -0.15627    -0.00598     0.38053    -0.04652    -0.00323    -0.23648
        45   0.00433     0.01327     0.06501    -0.03496     0.01866    -0.05300




    ROOT NO.   31          32          33          34          35          36

             8.70290     9.33073    11.08631    11.32426    11.35534    11.38884
  
         1  -0.04536    -0.02231    -0.28966     0.04839     0.18286    -0.02215
         2  -0.15075    -0.03950    -0.23566    -0.16521     0.45983    -0.11717
         3   0.12945     0.02850     0.10276     0.00376    -0.06173     0.04468
         4  -0.36381     0.06151     0.03782    -0.19119    -0.03591    -0.24007
         5  -0.16777     0.01518     0.00631    -0.36556    -0.08236     0.43420
         6  -0.23769    -0.10290    -0.05613    -0.17644     0.06147    -0.06288
         7   0.39710     0.06186    -0.04168    -0.30849    -0.04083    -0.16715
         8   0.04740     0.01615    -0.01328    -0.00880    -0.06148     0.55871
         9   0.24246    -0.10463     0.07576    -0.18858     0.04051    -0.00054
        10   0.11715    -0.03981     0.45298    -0.07398     0.26168     0.12952
        11  -0.10055     0.02432    -0.13305     0.20239    -0.26685    -0.08076
        12  -0.13337     0.02897    -0.11687     0.02197    -0.02554    -0.05193
        13   0.10626     0.01879     0.12659     0.03929    -0.13085     0.03061
        14   0.12078     0.02459     0.14504     0.03690    -0.17453     0.04702
        15  -0.05371    -0.01073    -0.06437    -0.01436     0.06320    -0.02446
        16  -0.15262     0.02912    -0.22781     0.07134    -0.13818    -0.06351
        17   0.04995    -0.01236     0.08084    -0.02330     0.06270     0.03401
        18   0.05298    -0.01124     0.07878    -0.02366     0.04028     0.02783
        19  -0.13641    -0.40289    -0.01235     0.55389    -0.03708     0.22461
        20   0.48953    -0.10615    -0.00100     0.23892     0.03651    -0.34582
        21  -0.00390     0.69108     0.01130     0.35018     0.12381     0.09227
        22   0.00267     0.33238     0.00633    -0.13829     0.03076    -0.03029
        23   0.00002     0.08893     0.00154    -0.04070     0.00649     0.00881
        24  -0.00072    -0.17864    -0.00327     0.04985    -0.01694     0.00855
        25   0.00077    -0.00085     0.00018    -0.02058    -0.00148    -0.00943
        26  -0.00027    -0.00031    -0.00003    -0.00914    -0.00219     0.01469
        27   0.00287    -0.38978    -0.00525    -0.14343    -0.05306    -0.03801
        28   0.10792    -0.01907     0.02145     0.04776     0.02381     0.04700
        29  -0.10739     0.03280     0.16765    -0.09798    -0.40080    -0.17264
        30  -0.13161     0.04059     0.35273     0.05185    -0.26968    -0.11446
        31  -0.00892     0.00301     0.01202     0.00385    -0.01003    -0.01339
        32   0.08877    -0.01848    -0.10927     0.00494     0.13010     0.05848
        33   0.14246    -0.02681    -0.17339     0.01828     0.17506     0.07947
        34  -0.04108    -0.00175    -0.14267    -0.02295    -0.15254     0.00145
        35  -0.14444    -0.03970     0.21509     0.15918     0.34229    -0.04436
        36   0.13893     0.04036    -0.41074    -0.00091    -0.19521     0.07642
        37  -0.03756    -0.00666     0.05641     0.01169     0.04655    -0.00340
        38   0.08101     0.01870    -0.12667    -0.02308    -0.10026     0.02831
        39  -0.14459    -0.02747     0.21248     0.04711     0.14004    -0.03277
        40   0.05945    -0.00656    -0.00429    -0.03468    -0.00728     0.12695
        41  -0.09111    -0.00295     0.00092     0.07453     0.02501    -0.18143
        42   0.01878     0.01066     0.00447    -0.00798    -0.01649     0.04274
        43  -0.00556    -0.00679     0.00469     0.01396     0.00853    -0.01075
        44  -0.11517    -0.00123     0.00157     0.01692     0.02555    -0.24204
        45  -0.02233     0.01204    -0.00826     0.01235    -0.00572    -0.04691




    ROOT NO.   37          38          39

            12.12710    15.97285    17.09554
  
         1  -0.05623    -0.35705     0.28908
         2   0.27320    -0.10630     0.23570
         3  -0.09579     0.19176    -0.20087
         4   0.25559     0.29895    -0.29208
         5  -0.44691    -0.03488     0.10821
         6   0.07879     0.16905    -0.15357
         7  -0.00455    -0.24398    -0.19477
         8   0.49727    -0.18341    -0.23719
         9   0.07759    -0.17293    -0.15236
        10   0.08145     0.36841     0.36167
        11  -0.25920     0.08625    -0.06118
        12  -0.09202    -0.19608    -0.19711
        13  -0.04205     0.06269    -0.06220
        14  -0.06697     0.06313    -0.08178
        15   0.03124    -0.03282     0.03346
        16  -0.06580    -0.08703    -0.09280
        17   0.03375     0.02359     0.03970
        18   0.02856     0.03350     0.03244
        19   0.11349    -0.00227    -0.01728
        20   0.03487     0.00796    -0.00474
        21   0.06908    -0.00013    -0.01081
        22  -0.01962     0.00277     0.01053
        23  -0.00567    -0.00992     0.00288
        24   0.00785     0.00005    -0.00166
        25  -0.00245     0.00287     0.00343
        26  -0.00093    -0.01008     0.00091
        27  -0.01990     0.00029     0.01053
        28  -0.14674     0.00033    -0.05964
        29   0.24725    -0.01160     0.14206
        30   0.05605    -0.41912     0.39415
        31   0.01415    -0.00550     0.00857
        32  -0.05063     0.04525    -0.06276
        33  -0.06509     0.08329    -0.08717
        34  -0.00187     0.00429     0.01936
        35  -0.28306    -0.01019    -0.15289
        36   0.05548     0.42625     0.38750
        37  -0.01328    -0.01786    -0.02366
        38   0.04887     0.04202     0.05811
        39  -0.06331    -0.08423    -0.08560
        40  -0.11045    -0.03257     0.04152
        41   0.18341     0.04345    -0.05392
        42  -0.03454    -0.01148     0.01527
        43  -0.00164     0.00595     0.00827
        44  -0.20525     0.05473     0.06688
        45  -0.03400     0.01261     0.01580

          ZERO POINT ENERGY      75.940 KCAL/MOL


           FREQUENCIES, REDUCED MASSES AND VIBRATIONAL DIPOLES



   I         1         2         3         4         5         6
 FREQ(I)  359.0937  473.6926  653.2345  687.5291  690.8955  821.9425

 MASS(I)   0.71320   0.80090   1.53828   2.11244   1.55455   1.18665

 DIPX(I)  -0.08450  -0.01376  -0.07710   0.16713  -0.00666  -0.11388
 DIPY(I)  -0.02262  -0.00368   0.24689  -0.01511  -0.00178  -0.03048
 DIPZ(I)   0.14418   0.02348  -0.00646   0.09558   0.01136   0.19431

 DIPT(I)   0.16864   0.02746   0.25872   0.19312   0.01329   0.22727


   I         7         8         9        10        11        12
 FREQ(I)  846.4923  869.8560  874.6967  903.1433  905.0429  955.3826

 MASS(I)   0.62383   0.29313   0.71033   0.50410   0.58373   0.36227

 DIPX(I)   0.17861  -0.30965   0.39449   0.45136  -0.06520  -0.06964
 DIPY(I)  -0.17218  -0.08288   0.01147   0.01538  -0.01746  -0.01864
 DIPZ(I)   0.07766   0.52837   0.23299   0.26693   0.11129   0.11883

 DIPT(I)   0.25996   0.61800   0.45830   0.52461   0.13016   0.13899


   I        13        14        15        16        17        18
 FREQ(I)  963.0152  990.2662 1030.8123 1032.4904 1036.9337 1039.3409

 MASS(I)   0.66615   0.25968   0.39973   0.50901   0.35098   0.47568

 DIPX(I)  -0.06270  -0.01082  -0.23202  -0.00240   0.11803  -0.17608
 DIPY(I)  -0.05575  -0.00290   0.53580  -0.00064   0.03159  -0.05541
 DIPZ(I)  -0.04549   0.01847  -0.05193   0.00410  -0.20140  -0.11188

 DIPT(I)   0.09544   0.02160   0.58618   0.00479   0.23556   0.21586


   I        19        20        21        22        23        24
 FREQ(I) 1057.6482 1089.0135 1096.0583 1128.7641 1174.7207 1176.6783

 MASS(I)   0.40458   0.45085   0.17906   0.22452   1.56216   0.66013

 DIPX(I)   0.06735   0.00880   0.12009   0.11298  -0.15393   0.07402
 DIPY(I)   0.01803   0.00236  -0.18685  -0.12626   0.11743   0.01982
 DIPZ(I)  -0.11492  -0.01502   0.04107   0.04641  -0.07177  -0.12631

 DIPT(I)   0.13442   0.01756   0.22588   0.17567   0.20648   0.14773


   I        25        26        27        28        29        30
 FREQ(I) 1188.3481 1198.9321 1249.3636 1263.8599 1363.9403 1415.6569

 MASS(I)   0.96138   1.00425   0.71900   1.23502   0.56700   1.62648

 DIPX(I)  -0.14146  -0.09544   0.28133   0.11684   0.41735  -0.04799
 DIPY(I)  -0.03786   0.27415   0.13150  -0.39273   0.09453  -0.05216
 DIPZ(I)   0.24138  -0.01293   0.18550   0.00687   0.25942  -0.03631

 DIPT(I)   0.28233   0.29058   0.36173   0.40980   0.50042   0.07964


   I        31        32        33        34        35        36
 FREQ(I) 1432.8129 2660.1087 2771.7261 2776.8533 2779.6354 2782.4182

 MASS(I)   1.59950   0.50460   0.86321   0.60209   0.44250   0.36249

 DIPX(I)  -0.29810  -0.34355  -0.48015   0.36579   0.51437   0.76754
 DIPY(I)   0.74694  -0.09196   0.68879   0.49580   0.13768  -0.03888
 DIPZ(I)  -0.05753   0.58620  -0.17335   0.29216  -0.87767   0.44373

 DIPT(I)   0.80628   0.68565   0.85733   0.68189   1.02657   0.88743


   I        37        38        39        40        41        42
 FREQ(I) 2789.1734 2789.3778 2801.5020    6.6803    9.1494    2.5288

 MASS(I)   0.18458   0.44248   0.27722   1.42965   1.42965   1.42965

 DIPX(I)   0.13352  -0.36751   0.31688   0.00441  -0.02611  -0.01928
 DIPY(I)  -0.93853  -0.09835   0.43043   0.02321   0.14068   0.03091
 DIPZ(I)  -0.06896   0.62707   0.25324  -0.01155   0.00201   0.02387

 DIPT(I)   0.95049   0.73345   0.59145   0.02629   0.14310   0.04356


   I        43        44        45
 FREQ(I)   22.4096  -15.1248   18.3363

 MASS(I)   1.37118   1.18696   1.15706

 DIPX(I)  -0.01652   0.00406  -0.03084
 DIPY(I)  -0.00442   0.00116  -0.01384
 DIPZ(I)   0.02830  -0.00705  -0.02022

 DIPT(I)   0.03306   0.00822   0.03939


           NORMAL COORDINATE ANALYSIS (Total motion = 1 Angstrom)


   Root No.       1         2         3         4         5         6         7         8

                 1 A"      2 A"      1 A'      2 A'      3 A"      4 A"      3 A'      5 A"  

                 359.1     473.7     653.2     687.5     690.9     821.9     846.5     869.9
  
           1    0.0201    0.0098   -0.0342   -0.0311    0.0131    0.0651   -0.0118    0.0002
           2    0.0023    0.0122   -0.0437   -0.0045   -0.0579    0.0073   -0.0161    0.0209
           3    0.0139    0.0355   -0.0439   -0.0377    0.0361   -0.0025    0.0229   -0.0038
           4    0.0203    0.0220   -0.0259   -0.0005   -0.0244   -0.0239   -0.0410   -0.0021
           5    0.0054    0.0059    0.0275    0.0835   -0.0065   -0.0064    0.0219   -0.0006
           6   -0.0346   -0.0375   -0.0109    0.0128    0.0416    0.0407   -0.0206    0.0036
           7    0.0189   -0.0234    0.0084    0.0411    0.0243   -0.0236    0.0218   -0.0042
           8    0.0051   -0.0063    0.0375   -0.0731    0.0065   -0.0063    0.0315   -0.0011
           9   -0.0322    0.0400    0.0108    0.0126   -0.0415    0.0403    0.0177    0.0071
          10    0.0177   -0.0160    0.0519   -0.0293    0.0172    0.0593    0.0161    0.0214
          11    0.0084    0.0051   -0.0207   -0.0121   -0.0567    0.0256   -0.0100   -0.0172
          12    0.0120   -0.0371    0.0447   -0.0379   -0.0366   -0.0014   -0.0193   -0.0077
          13    0.0309    0.0420   -0.0490    0.0154    0.0376    0.0264    0.0366   -0.0024
          14    0.0077    0.0206   -0.0410   -0.0272   -0.0757    0.0473    0.0145    0.0438
          15    0.0455    0.1155   -0.0655   -0.0033    0.0455    0.0279    0.1831    0.0513
          16    0.0269   -0.0472    0.0588    0.0044    0.0065    0.0443   -0.0197    0.0478
          17    0.0082   -0.0049   -0.0133    0.0359   -0.0839   -0.0294   -0.0100   -0.0095
          18    0.0365   -0.1122    0.0549    0.0054   -0.0419    0.0241   -0.1166    0.0678
          19   -0.0280    0.0008   -0.0151    0.0930   -0.0001   -0.0278   -0.0003    0.0110
          20   -0.0075    0.0002    0.0561    0.0255   -0.0000   -0.0075   -0.0000    0.0030
          21    0.0478   -0.0013   -0.0000    0.0585    0.0001    0.0475   -0.0002   -0.0188
          22    0.0323   -0.0162   -0.0113    0.0979    0.0207   -0.0957    0.0115    0.0436
          23    0.0113    0.0549    0.0422    0.0274   -0.0777   -0.0265   -0.0454    0.0157
          24    0.2002   -0.0068    0.0001    0.0699   -0.0001   -0.1383   -0.0006    0.0797
          25   -0.1861    0.0213   -0.0112    0.1050   -0.0207    0.1626    0.0113   -0.0879
          26   -0.0524   -0.0536    0.0422    0.0293    0.0777    0.0444   -0.0454   -0.0276
          27    0.0622   -0.0018   -0.0000    0.0578    0.0000    0.0242   -0.0003   -0.0041
          28   -0.0216   -0.0336   -0.0488   -0.0472   -0.0452   -0.0293    0.0159    0.0060
          29   -0.0027   -0.0186   -0.0476   -0.0088    0.0493    0.0023   -0.0087   -0.0192
          30   -0.0114    0.0052   -0.0191   -0.0103    0.0188   -0.0586   -0.0244   -0.0067
          31   -0.0534   -0.1171   -0.0750    0.0085   -0.0679   -0.0307    0.1732   -0.0368
          32   -0.0137   -0.0407   -0.0480   -0.0290    0.0676   -0.0485    0.0510   -0.0543
          33   -0.0072    0.0127   -0.0211    0.0085    0.0062   -0.0206   -0.0499    0.0157
          34   -0.0180    0.0404    0.0669   -0.0454    0.0152   -0.0249   -0.0072   -0.0064
          35   -0.0085    0.0014   -0.0167   -0.0164    0.0654   -0.0164   -0.0163    0.0212
          36   -0.0116   -0.0047    0.0191   -0.0103   -0.0186   -0.0573    0.0204   -0.0180
          37   -0.0436    0.1190    0.0781    0.0020    0.0214   -0.0466   -0.1083   -0.0832
          38   -0.0126    0.0241   -0.0081    0.0353    0.0914    0.0288   -0.0338    0.0000
          39   -0.0081   -0.0103    0.0220    0.0095   -0.0057   -0.0201    0.0347   -0.0074
          40    0.0412    0.0348    0.0195   -0.0180    0.0216   -0.0023   -0.0431   -0.0795
          41    0.0110    0.0093    0.0680    0.0667    0.0058   -0.0006    0.0133   -0.0213
          42   -0.0702   -0.0593    0.0221   -0.0001   -0.0369    0.0040   -0.0232    0.1357
          43    0.0397   -0.0357   -0.0473    0.0165   -0.0202    0.0027    0.0164   -0.1107
          44    0.0106   -0.0096    0.0485   -0.0671   -0.0054    0.0007    0.0283   -0.0296
          45   -0.0677    0.0609   -0.0201   -0.0008    0.0344   -0.0047    0.0140    0.1889


   Root No.       9        10        11        12        13        14        15        16

                 4 A'      5 A'      6 A"      7 A"      6 A'      8 A"      7 A'      9 A"  

                 874.7     903.1     905.0     955.4     963.0     990.3    1030.8    1032.5
  
           1   -0.0104    0.0058    0.0348    0.0193    0.0071    0.0189   -0.0058   -0.0256
           2    0.0153   -0.0220    0.0197   -0.0103   -0.0087    0.0151   -0.0052   -0.0038
           3    0.0266   -0.0328   -0.0108    0.0197    0.0437   -0.0034    0.0113   -0.0248
           4   -0.0267    0.0240   -0.0085   -0.0071   -0.0313   -0.0104    0.0076    0.0017
           5    0.0214   -0.0132   -0.0023   -0.0019    0.0108   -0.0028   -0.0325    0.0005
           6   -0.0123    0.0120    0.0146    0.0122   -0.0167    0.0177   -0.0007   -0.0030
           7   -0.0215    0.0101    0.0063   -0.0108    0.0220    0.0061    0.0105   -0.0071
           8   -0.0457    0.0153    0.0017   -0.0029    0.0196    0.0016   -0.0346   -0.0019
           9   -0.0198    0.0083   -0.0108    0.0185    0.0159   -0.0105    0.0007    0.0121
          10   -0.0051   -0.0067   -0.0327    0.0182   -0.0024   -0.0220    0.0082    0.0288
          11   -0.0158    0.0226   -0.0074    0.0161   -0.0103    0.0152   -0.0024   -0.0041
          12    0.0369   -0.0274    0.0098    0.0125   -0.0408    0.0068   -0.0091    0.0228
          13    0.0409    0.0583    0.0903   -0.0616   -0.0527    0.0130   -0.1063   -0.0174
          14    0.0150    0.0068   -0.0066   -0.0097   -0.0326    0.0096    0.0880    0.0549
          15    0.1241    0.1344    0.0466   -0.1330   -0.1317   -0.0224    0.0349    0.1245
          16    0.0517    0.0614   -0.0721   -0.0422    0.0751   -0.0170    0.0402   -0.0460
          17    0.0200    0.0397   -0.0775   -0.0210    0.0292    0.0370    0.1276   -0.0638
          18    0.1586    0.1459   -0.0342   -0.1159    0.1397   -0.0079   -0.0565   -0.1143
          19   -0.0045   -0.0201    0.0038    0.0185   -0.0074    0.0028   -0.0105    0.0034
          20    0.0002   -0.0034    0.0010    0.0049    0.0100    0.0008    0.0329    0.0009
          21   -0.0026   -0.0123   -0.0065   -0.0315   -0.0028   -0.0048   -0.0010   -0.0058
          22   -0.0094   -0.0189    0.0233    0.0545    0.0059    0.0519   -0.0245    0.0336
          23    0.0101    0.0037   -0.0313    0.0377   -0.0382   -0.1570    0.0874   -0.0869
          24   -0.0049   -0.0119    0.0231    0.0937   -0.0034    0.0140   -0.0004    0.0133
          25   -0.0103   -0.0201   -0.0357   -0.1023    0.0052   -0.0590   -0.0243   -0.0398
          26    0.0099    0.0034    0.0280   -0.0505   -0.0384    0.1551    0.0875    0.0852
          27   -0.0034   -0.0099   -0.0021   -0.0120   -0.0021   -0.0019   -0.0007   -0.0028
          28    0.0155   -0.0223   -0.0054   -0.0279    0.0422   -0.0044    0.0075    0.0335
          29    0.0222   -0.0295   -0.0119    0.0080    0.0007   -0.0112   -0.0016    0.0059
          30   -0.0177    0.0151   -0.0393   -0.0051   -0.0161   -0.0212   -0.0114    0.0114
          31    0.1247    0.1432   -0.0858    0.1433   -0.1346    0.0140   -0.0349   -0.0906
          32    0.0374    0.0295    0.0078    0.0315   -0.0546   -0.0024    0.1071   -0.0838
          33   -0.0188   -0.0106   -0.0543   -0.0064    0.0082   -0.0237   -0.0870    0.0598
          34    0.0312   -0.0299    0.0068   -0.0176   -0.0347    0.0072   -0.0034   -0.0345
          35   -0.0061    0.0164    0.0005   -0.0159   -0.0190   -0.0192   -0.0055    0.0026
          36   -0.0251    0.0121    0.0343   -0.0135    0.0145    0.0186    0.0107   -0.0132
          37    0.1590    0.1502    0.0548    0.1175    0.1532    0.0202   -0.0456    0.1123
          38    0.0487    0.0635    0.0729    0.0412    0.0501   -0.0361    0.1046    0.0815
          39   -0.0244   -0.0057    0.0638   -0.0126    0.0065    0.0025    0.0898    0.0013
          40   -0.0509    0.0492   -0.0914   -0.0190   -0.0048    0.0962    0.0453    0.0246
          41   -0.0018    0.0077   -0.0245   -0.0051    0.0292    0.0258    0.0063    0.0066
          42   -0.0301    0.0300    0.1559    0.0324    0.0018   -0.1641    0.0275   -0.0420
          43   -0.0490    0.0423    0.0554   -0.0012    0.0075   -0.0978   -0.0172    0.0204
          44   -0.0375    0.0098    0.0148   -0.0003    0.0183   -0.0262   -0.0249    0.0055
          45   -0.0346    0.0263   -0.0946    0.0020    0.0072    0.1668   -0.0140   -0.0349


   Root No.      17        18        19        20        21        22        23        24

                10 A"      8 A'     11 A"     12 A"      9 A'     10 A'     11 A'     13 A"  

                1036.9    1039.3    1057.6    1089.0    1096.1    1128.8    1174.7    1176.7
  
           1    0.0020   -0.0021   -0.0040    0.0008   -0.0021   -0.0022    0.0073   -0.0313
           2    0.0313    0.0087   -0.0047    0.0047   -0.0011    0.0013   -0.0692    0.0415
           3    0.0155   -0.0069    0.0070   -0.0136   -0.0007    0.0033    0.0289    0.0109
           4    0.0106    0.0047    0.0198   -0.0177    0.0030   -0.0060   -0.0396   -0.0035
           5    0.0028   -0.0335    0.0053   -0.0047   -0.0199   -0.0073   -0.0348   -0.0009
           6   -0.0180   -0.0025   -0.0337    0.0302   -0.0014   -0.0047   -0.0287    0.0060
           7    0.0126   -0.0096    0.0134    0.0216   -0.0040    0.0145   -0.0430   -0.0052
           8    0.0034    0.0286    0.0036    0.0058    0.0145   -0.0123    0.0041   -0.0014
           9   -0.0215   -0.0011   -0.0229   -0.0368   -0.0001    0.0066   -0.0245    0.0088
          10   -0.0016    0.0023    0.0084   -0.0009   -0.0002    0.0031   -0.0280    0.0254
          11   -0.0264   -0.0098    0.0019    0.0017   -0.0002    0.0014    0.0669    0.0039
          12    0.0004   -0.0124    0.0172    0.0178   -0.0015   -0.0041    0.0269   -0.0047
          13   -0.1328   -0.0771    0.0359    0.0289    0.1056    0.0244   -0.0321    0.1586
          14    0.0976    0.0869   -0.0527    0.0024   -0.0987   -0.0262   -0.0446   -0.1560
          15   -0.0787    0.0399   -0.0366    0.0403   -0.0231   -0.0088    0.0096   -0.0822
          16   -0.0433   -0.0067   -0.0108   -0.0351    0.0382   -0.0218   -0.0582   -0.0162
          17   -0.1337   -0.1001    0.0602   -0.0132    0.1295   -0.0847   -0.0019   -0.1166
          18   -0.0007    0.0638   -0.0995   -0.0668   -0.0293    0.0153    0.0132    0.0200
          19   -0.0113    0.0347   -0.0155   -0.0016    0.0105   -0.0108    0.0562    0.0001
          20   -0.0030    0.0126   -0.0041   -0.0004    0.0086    0.0213    0.0191    0.0000
          21    0.0192    0.0223    0.0264    0.0027    0.0075   -0.0030    0.0359   -0.0002
          22   -0.0324    0.0291   -0.0334   -0.0548    0.0013   -0.0399    0.0502    0.0039
          23   -0.0114    0.0139   -0.0515    0.1849    0.0289    0.1363    0.0249   -0.0113
          24   -0.0486    0.0254   -0.0624   -0.0069    0.0067   -0.0014    0.0524    0.0038
          25    0.0562    0.0343    0.0631    0.0581    0.0025   -0.0394    0.0665   -0.0067
          26    0.0178    0.0153    0.0594   -0.1841    0.0292    0.1365    0.0293    0.0105
          27    0.0079    0.0164    0.0116    0.0014    0.0047   -0.0023    0.0245    0.0010
          28   -0.0101   -0.0082   -0.0047    0.0118   -0.0015    0.0016    0.0377    0.0118
          29   -0.0334    0.0071    0.0023   -0.0013   -0.0010    0.0023   -0.0611   -0.0468
          30   -0.0017    0.0034    0.0078   -0.0081   -0.0018   -0.0031   -0.0230    0.0223
          31    0.1467   -0.0158    0.0064   -0.0486    0.0460    0.0082   -0.0018   -0.0295
          32   -0.0939    0.1033    0.0640   -0.0077   -0.1146   -0.0305   -0.0365    0.1906
          33    0.0550   -0.0645   -0.0356   -0.0067    0.0785    0.0189   -0.0421   -0.1381
          34   -0.0031   -0.0082   -0.0186   -0.0146   -0.0014   -0.0022    0.0001   -0.0081
          35    0.0251   -0.0126   -0.0046   -0.0058   -0.0005   -0.0000    0.0744    0.0007
          36    0.0076    0.0054    0.0003    0.0087    0.0005    0.0049   -0.0211   -0.0248
          37    0.0042    0.0648    0.0987    0.0729   -0.0235    0.0136   -0.0174   -0.0248
          38    0.1232   -0.0810   -0.0366    0.0233    0.1130   -0.0752    0.0090    0.1057
          39    0.0674   -0.0582   -0.0505    0.0023    0.0759   -0.0452   -0.0564    0.0499
          40    0.0167   -0.0769   -0.0812    0.0467   -0.1209   -0.1132    0.0493    0.0371
          41    0.0045   -0.0963   -0.0217    0.0125   -0.1235   -0.0944    0.0333    0.0099
          42   -0.0285   -0.0602    0.1385   -0.0797   -0.0902   -0.0811    0.0341   -0.0633
          43   -0.0050   -0.1139   -0.0643   -0.0612   -0.1002    0.1917    0.0542    0.0058
          44   -0.0013    0.0430   -0.0172   -0.0164    0.0306   -0.0397   -0.0057    0.0015
          45    0.0086   -0.0600    0.1097    0.1044   -0.0539    0.1061    0.0309   -0.0098


   Root No.      25        26        27        28        29        30        31        32

                14 A"     12 A'     13 A'     14 A'     15 A'     16 A'     17 A'     15 A"  

                1188.3    1198.9    1249.4    1263.9    1363.9    1415.7    1432.8    2660.1
  
           1   -0.0085    0.0078   -0.0299    0.0141   -0.0055   -0.0479    0.0634   -0.0002
           2   -0.0388   -0.0173    0.0259    0.0002   -0.0037   -0.0232    0.0023   -0.0001
           3   -0.0019   -0.0015    0.0048   -0.0102    0.0058    0.0335   -0.0324   -0.0001
           4    0.0092    0.0181    0.0031    0.0060    0.0115    0.0662   -0.0620    0.0012
           5    0.0025    0.0471   -0.0474   -0.0123    0.0034    0.0076   -0.0046    0.0003
           6   -0.0157    0.0180   -0.0056    0.0016    0.0073    0.0400   -0.0371   -0.0021
           7    0.0091   -0.0430   -0.0198   -0.0013    0.0128    0.0610    0.0559    0.0012
           8    0.0024    0.0330    0.0439   -0.0103    0.0028    0.0265    0.0270    0.0003
           9   -0.0155   -0.0200   -0.0047   -0.0024    0.0080    0.0399    0.0370   -0.0020
          10   -0.0085   -0.0001   -0.0121   -0.0138   -0.0083   -0.0530   -0.0558   -0.0003
          11    0.0622   -0.0144   -0.0363   -0.0086   -0.0003   -0.0037   -0.0297   -0.0000
          12   -0.0107    0.0040    0.0046    0.0112    0.0068    0.0330    0.0325   -0.0001
          13   -0.0233   -0.0944    0.0504   -0.0140   -0.0111   -0.0613   -0.0086   -0.0008
          14   -0.0050    0.0674   -0.0378    0.0280    0.0000   -0.0204    0.0693   -0.0006
          15    0.0335   -0.0006    0.0167    0.0056    0.0020    0.0169    0.0027    0.0003
          16   -0.0648    0.0399    0.0191   -0.0037   -0.0104   -0.0622   -0.0273   -0.0005
          17   -0.1994    0.0995    0.0457    0.0311   -0.0034   -0.0123    0.0652   -0.0000
          18    0.0959   -0.0039    0.0144   -0.0068    0.0020    0.0195   -0.0039    0.0002
          19   -0.0007    0.0138    0.0276   -0.0173   -0.0525   -0.0082    0.0037    0.0285
          20   -0.0002   -0.0432    0.0044    0.0732   -0.0126   -0.0026   -0.0120    0.0076
          21    0.0012    0.0013    0.0169    0.0014   -0.0327   -0.0052    0.0003   -0.0487
          22   -0.0011   -0.0020    0.0262    0.0564    0.1415   -0.0353   -0.0264   -0.4216
          23   -0.0058    0.0183    0.0190   -0.2118    0.0315   -0.0084    0.0925   -0.1133
          24   -0.0080    0.0035    0.0364   -0.0033    0.3555   -0.0831   -0.0037    0.1641
[...]
 TRANSITION DIPOLE   0.2259         C  1 -- H  5         +12.1% ( 37.4%)      0.1%
 TRAVEL (Ang.)       0.5862         C 10 -- H 11         +12.1% ( 37.4%)      0.1%
 REDUCED MASS        0.1791         C 12 -- H 13         +10.8% ( 35.3%)      0.0%
 EFFECTIVE MASS      1.9350         C  4 -- H  6         +10.8% ( 35.3%)      0.0%
 FORCE CONSTANT      0.1267

 VIBRATION         22   10A'          ATOM PAIR      ENERGY CONTRIBUTION    RADIAL
 FREQUENCY          1128.76         C  3 -- H 15         +29.3% ( 55.9%)      2.3%
 TRANSITION DIPOLE   0.1757         C  2 -- H 14         +16.2% ( 41.6%)      0.1%
 TRAVEL (Ang.)       0.5158         C  7 -- H  8         +11.4% ( 34.8%)      2.0%
 REDUCED MASS        0.2245         C  7 -- H  9         +11.4% ( 34.8%)      2.0%
 EFFECTIVE MASS      2.0640
 FORCE CONSTANT      0.1685

 VIBRATION         23   11A'          ATOM PAIR      ENERGY CONTRIBUTION    RADIAL
 FREQUENCY          1174.72         C  1 -- C  4          +9.0% ( 57.6%)    100.0%
 TRANSITION DIPOLE   0.2065         C 10 -- C 12          +9.0% ( 57.6%)    100.0%
 TRAVEL (Ang.)       0.1917         C  4 -- C 10          +7.9% ( 53.9%)     85.6%
 REDUCED MASS        1.5622         C  1 -- C 12          +7.9% ( 53.9%)     85.6%
 EFFECTIVE MASS     11.9938
 FORCE CONSTANT      1.2701

 VIBRATION         24   13A"          ATOM PAIR      ENERGY CONTRIBUTION    RADIAL
 FREQUENCY          1176.68         C 10 -- H 11         +18.8% ( 59.6%)      0.4%
 TRANSITION DIPOLE   0.1477         C  1 -- H  5         +18.8% ( 59.6%)      0.4%
 TRAVEL (Ang.)       0.2946         C  1 -- C 10          +8.8% ( 40.7%)      0.0%
 REDUCED MASS        0.6601         C 10 -- C 12          +7.2% ( 36.8%)     53.3%
 EFFECTIVE MASS      4.3026
 FORCE CONSTANT      0.5385

 VIBRATION         25   14A"          ATOM PAIR      ENERGY CONTRIBUTION    RADIAL
 FREQUENCY          1188.35         C 12 -- H 13         +14.1% ( 57.1%)      2.6%
 TRANSITION DIPOLE   0.2823         C  4 -- H  6         +14.1% ( 57.1%)      2.6%
 TRAVEL (Ang.)       0.2429         C 10 -- C 12          +9.9% ( 47.7%)     92.6%
 REDUCED MASS        0.9614         C  1 -- C  4          +9.9% ( 47.7%)     92.6%
 EFFECTIVE MASS      6.3382
 FORCE CONSTANT      0.7999

 VIBRATION         26   12A'          ATOM PAIR      ENERGY CONTRIBUTION    RADIAL
 FREQUENCY          1198.93         C  3 -- C  7         +13.3% ( 53.4%)     93.3%
 TRANSITION DIPOLE   0.2906         C  3 -- H 15         +12.9% ( 52.7%)      4.7%
 TRAVEL (Ang.)       0.2367         C  2 -- C  7         +11.8% ( 50.5%)     88.8%
 REDUCED MASS        1.0042         C  2 -- H 14         +10.6% ( 47.8%)      5.3%
 EFFECTIVE MASS      6.6017
 FORCE CONSTANT      0.8505

 VIBRATION         27   13A'          ATOM PAIR      ENERGY CONTRIBUTION    RADIAL
 FREQUENCY          1249.36         C  3 -- H 15          +9.8% ( 46.7%)     13.6%
 TRANSITION DIPOLE   0.3617         C  2 -- H 14          +9.6% ( 46.4%)     12.3%
 TRAVEL (Ang.)       0.2740         C  3 -- C  7          +6.9% ( 39.3%)    100.0%
 REDUCED MASS        0.7190         C  2 -- C  7          +6.5% ( 38.2%)     99.3%
 EFFECTIVE MASS      7.4625
 FORCE CONSTANT      0.6612

 VIBRATION         28   14A'          ATOM PAIR      ENERGY CONTRIBUTION    RADIAL
 FREQUENCY          1263.86         C  7 -- H  9         +24.8% ( 64.2%)      0.0%
 TRANSITION DIPOLE   0.4098         C  7 -- H  8         +24.8% ( 64.2%)      0.0%
 TRAVEL (Ang.)       0.2078         C  2 -- C  7         +11.7% ( 44.1%)     58.0%
 REDUCED MASS        1.2350         C  3 -- C  7         +11.1% ( 42.9%)     50.2%
 EFFECTIVE MASS      4.5992
 FORCE CONSTANT      1.1623

 VIBRATION         29   15A'          ATOM PAIR      ENERGY CONTRIBUTION    RADIAL
 FREQUENCY          1363.94         C  7 -- H  8         +36.7% ( 62.0%)      3.7%
 TRANSITION DIPOLE   0.5004         C  7 -- H  9         +36.7% ( 62.0%)      3.8%
 TRAVEL (Ang.)       0.2953         C  3 -- C  7          +9.2% ( 31.0%)     43.9%
 REDUCED MASS        0.5670         C  2 -- C  7          +9.0% ( 30.7%)     40.1%
 EFFECTIVE MASS      2.5624
 FORCE CONSTANT      0.6215

 VIBRATION         30   16A'          ATOM PAIR      ENERGY CONTRIBUTION    RADIAL
 FREQUENCY          1415.66         C  2 -- C 10          +8.8% ( 51.7%)     92.9%
 TRANSITION DIPOLE   0.0796         C  1 -- C  2          +8.8% ( 51.7%)     92.9%
 TRAVEL (Ang.)       0.1711         C  3 -- C 12          +8.7% ( 51.5%)     92.9%
 REDUCED MASS        1.6265         C  3 -- C  4          +8.7% ( 51.5%)     92.9%
 EFFECTIVE MASS     11.3030
 FORCE CONSTANT      1.9205

 VIBRATION         31   17A'          ATOM PAIR      ENERGY CONTRIBUTION    RADIAL
 FREQUENCY          1432.81         C  1 -- C  2          +8.4% ( 49.6%)     99.6%
 TRANSITION DIPOLE   0.8063         C  2 -- C 10          +8.4% ( 49.6%)     99.6%
 TRAVEL (Ang.)       0.1715         C  3 -- C 12          +8.3% ( 49.4%)     99.6%
 REDUCED MASS        1.5995         C  3 -- C  4          +8.3% ( 49.4%)     99.6%
 EFFECTIVE MASS     11.0729
 FORCE CONSTANT      1.9347

 VIBRATION         32   15A"          ATOM PAIR      ENERGY CONTRIBUTION    RADIAL
 FREQUENCY          2660.11         C  7 -- H  8         +49.0% ( 73.1%)     98.3%
 TRANSITION DIPOLE   0.6857         C  7 -- H  9         +49.0% ( 73.1%)     98.2%
 TRAVEL (Ang.)       0.2241         C  3 -- C  7          +1.0% ( 10.2%)      0.0%
 REDUCED MASS        0.5046         C  2 -- C  7          +1.0% ( 10.2%)      0.0%
 EFFECTIVE MASS      1.4752
 FORCE CONSTANT      2.1038

 VIBRATION         33   18A'          ATOM PAIR      ENERGY CONTRIBUTION    RADIAL
 FREQUENCY          2771.73         C  2 -- H 14         +93.2% ( 98.1%)    100.0%
 TRANSITION DIPOLE   0.8573         C  3 -- H 15          +1.2% ( 11.1%)     99.9%
 TRAVEL (Ang.)       0.1679         C  1 -- C  2          +1.1% ( 10.5%)     24.6%
 REDUCED MASS        0.8632         C  2 -- C 10          +1.1% ( 10.5%)     24.6%
 EFFECTIVE MASS      1.3987
 FORCE CONSTANT      3.9072

 VIBRATION         34   19A'          ATOM PAIR      ENERGY CONTRIBUTION    RADIAL
 FREQUENCY          2776.85         C  3 -- H 15         +76.5% ( 89.1%)    100.0%
 TRANSITION DIPOLE   0.6819         C 12 -- H 13          +9.3% ( 31.1%)     99.9%
 TRAVEL (Ang.)       0.2008         C  4 -- H  6          +9.3% ( 31.1%)     99.9%
 REDUCED MASS        0.6021         C  3 -- C 12          +0.9% (  9.7%)      6.4%
 EFFECTIVE MASS      1.3981
 FORCE CONSTANT      2.7354

 VIBRATION         35   16A"          ATOM PAIR      ENERGY CONTRIBUTION    RADIAL
 FREQUENCY          2779.64         C 12 -- H 13         +46.5% ( 69.9%)    100.0%
 TRANSITION DIPOLE   1.0266         C  4 -- H  6         +46.5% ( 69.9%)    100.0%
 TRAVEL (Ang.)       0.2341         C 10 -- H 11          +1.2% ( 11.3%)     99.5%
 REDUCED MASS        0.4425         C  1 -- H  5          +1.2% ( 11.3%)     99.5%
 EFFECTIVE MASS      1.4039
 FORCE CONSTANT      2.0144

 VIBRATION         36   20A'          ATOM PAIR      ENERGY CONTRIBUTION    RADIAL
 FREQUENCY          2782.42         C  7 -- H  8         +41.7% ( 63.4%)     97.6%
 TRANSITION DIPOLE   0.8874         C  7 -- H  9         +41.7% ( 63.4%)     97.6%
 TRAVEL (Ang.)       0.2586         C  4 -- H  6          +6.6% ( 25.3%)    100.0%
 REDUCED MASS        0.3625         C 12 -- H 13          +6.6% ( 25.3%)    100.0%
 EFFECTIVE MASS      1.2368
 FORCE CONSTANT      1.6534

 VIBRATION         37   21A'          ATOM PAIR      ENERGY CONTRIBUTION    RADIAL
 FREQUENCY          2789.17         C  4 -- H  6         +26.1% ( 52.1%)    100.0%
 TRANSITION DIPOLE   0.9505         C 12 -- H 13         +26.1% ( 52.1%)    100.0%
 TRAVEL (Ang.)       0.3619         C  3 -- H 15         +13.4% ( 37.3%)    100.0%
 REDUCED MASS        0.1846         C  1 -- H  5         +11.2% ( 34.1%)    100.0%
 EFFECTIVE MASS      1.4272         C 10 -- H 11         +11.2% ( 34.1%)    100.0%
 FORCE CONSTANT      0.8460

 VIBRATION         38   17A"          ATOM PAIR      ENERGY CONTRIBUTION    RADIAL
 FREQUENCY          2789.38         C 10 -- H 11         +46.5% ( 69.9%)    100.0%
 TRANSITION DIPOLE   0.7335         C  1 -- H  5         +46.5% ( 69.9%)    100.0%
 TRAVEL (Ang.)       0.2337         C 12 -- H 13          +1.2% ( 11.2%)     99.9%
 REDUCED MASS        0.4425         C  4 -- H  6          +1.2% ( 11.2%)     99.9%
 EFFECTIVE MASS      1.4094
 FORCE CONSTANT      2.0284

 VIBRATION         39   22A'          ATOM PAIR      ENERGY CONTRIBUTION    RADIAL
 FREQUENCY          2801.50         C 10 -- H 11         +35.9% ( 61.3%)    100.0%
 TRANSITION DIPOLE   0.5915         C  1 -- H  5         +35.9% ( 61.3%)    100.0%
 TRAVEL (Ang.)       0.2947         C  4 -- H  6          +5.9% ( 24.9%)    100.0%
 REDUCED MASS        0.2772         C 12 -- H 13          +5.9% ( 24.9%)    100.0%
 EFFECTIVE MASS      1.5018
 FORCE CONSTANT      1.2819

      SYMMETRY NUMBER FOR POINT-GROUP Cs  =  1


          SYSTEM IS A GROUND STATE



 Cycloaddition_SM2_PM6_D3H4_THERMO


          MOLECULE IS NOT LINEAR

          THERE ARE 39 GENUINE VIBRATIONS IN THIS SYSTEM
          THIS THERMODYNAMICS CALCULATION IS LIMITED TO
          MOLECULES WHICH HAVE NO INTERNAL ROTATIONS




                    CALCULATED THERMODYNAMIC PROPERTIES
                                          *
   TEMP. (K)   PARTITION FUNCTION   H.O.F.    ENTHALPY  HEAT CAPACITY ENTROPY
                                   KCAL/MOL   CAL/MOLE    CAL/K/MOL  CAL/K/MOL


 298.00  VIB.     0.1834D+01                  1129.7766    13.9972     4.9968
         ROT.     0.1127D+06                   888.2813     2.9808    26.0972
         INT.     0.2068D+06                  2018.0579    16.9780    31.0941
         TRA.     0.8551D+27                  1480.4688     4.9680    39.4718
         TOT.                       75.668    3498.5268    21.9460    70.5658

 200.00  VIB.     0.1168D+01                   228.0141     4.8976     1.4483
         ROT.     0.6197D+05                   596.1620     2.9808    24.9086
         INT.     0.7237D+05                   824.1760     7.8784    26.3568
         TRA.     0.4701D+27                   993.6033     4.9680    37.4906
         TOT.                       73.987    1817.7793    12.8464    63.8475

 210.00  VIB.     0.1204D+01                   280.7600     5.6605     1.7055
         ROT.     0.6668D+05                   625.9700     2.9808    25.0540
         INT.     0.8026D+05                   906.7301     8.6413    26.7595
         TRA.     0.5058D+27                  1043.2834     4.9680    37.7330
         TOT.                       74.119    1950.0135    13.6093    64.4925

 220.00  VIB.     0.1245D+01                   341.3948     6.4746     1.9874
         ROT.     0.7150D+05                   655.7781     2.9808    25.1927
         INT.     0.8902D+05                   997.1729     9.4554    27.1801
         TRA.     0.5424D+27                  1092.9636     4.9680    37.9641
         TOT.                       74.259    2090.1365    14.4234    65.1442

 230.00  VIB.     0.1292D+01                   410.4072     7.3352     2.2940
         ROT.     0.7643D+05                   685.5862     2.9808    25.3252
         INT.     0.9877D+05                  1095.9935    10.3160    27.6192
         TRA.     0.5798D+27                  1142.6437     4.9680    38.1850
         TOT.                       74.408    2238.6372    15.2840    65.8042

 240.00  VIB.     0.1346D+01                   488.2354     8.2369     2.6251
         ROT.     0.8147D+05                   715.3943     2.9808    25.4520
         INT.     0.1097D+06                  1203.6298    11.2177    28.0771
         TRA.     0.6180D+27                  1192.3239     4.9680    38.3964
         TOT.                       74.565    2395.9537    16.1857    66.4736

 250.00  VIB.     0.1407D+01                   575.2632     9.1742     2.9802
         ROT.     0.8661D+05                   745.2024     2.9808    25.5737
         INT.     0.1219D+06                  1320.4657    12.1550    28.5540
         TRA.     0.6570D+27                  1242.0041     4.9680    38.5992
         TOT.                       74.732    2562.4697    17.1230    67.1532

 260.00  VIB.     0.1477D+01                   671.8189    10.1415     3.3588
         ROT.     0.9186D+05                   775.0105     2.9808    25.6906
         INT.     0.1357D+06                  1446.8294    13.1223    29.0494
         TRA.     0.6968D+27                  1291.6842     4.9680    38.7941
         TOT.                       74.908    2738.5137    18.0903    67.8435

 270.00  VIB.     0.1556D+01                   778.1751    11.1334     3.7601
         ROT.     0.9721D+05                   804.8186     2.9808    25.8031
         INT.     0.1512D+06                  1582.9938    14.1142    29.5632
         TRA.     0.7374D+27                  1341.3644     4.9680    38.9816
         TOT.                       75.094    2924.3581    19.0822    68.5448

 280.00  VIB.     0.1644D+01                   894.5505    12.1445     4.1832
         ROT.     0.1027D+06                   834.6267     2.9808    25.9115
         INT.     0.1688D+06                  1729.1773    15.1253    30.0947
         TRA.     0.7788D+27                  1391.0445     4.9680    39.1622
         TOT.                       75.290    3120.2218    20.0933    69.2570

 290.00  VIB.     0.1745D+01                  1021.1121    13.1698     4.6272
         ROT.     0.1082D+06                   864.4348     2.9808    26.0161
         INT.     0.1888D+06                  1885.5469    16.1506    30.6434
         TRA.     0.8209D+27                  1440.7247     4.9680    39.3366
         TOT.                       75.496    3326.2716    21.1186    69.9799

 300.00  VIB.     0.1858D+01                  1157.9784    14.2047     5.0911
         ROT.     0.1139D+06                   894.2429     2.9808    26.1172
         INT.     0.2116D+06                  2052.2214    17.1855    31.2083
         TRA.     0.8637D+27                  1490.4049     4.9680    39.5050
         TOT.                       75.712    3542.6262    22.1535    70.7133

 310.00  VIB.     0.1986D+01                  1305.2234    15.2449     5.5739
         ROT.     0.1196D+06                   924.0510     2.9808    26.2149
         INT.     0.2375D+06                  2229.2744    18.2257    31.7888
         TRA.     0.9072D+27                  1540.0850     4.9680    39.6679
         TOT.                       75.939    3769.3595    23.1937    71.4567

 320.00  VIB.     0.2130D+01                  1462.8802    16.2864     6.0743
         ROT.     0.1254D+06                   953.8591     2.9808    26.3096
         INT.     0.2672D+06                  2416.7393    19.2672    32.3839
         TRA.     0.9515D+27                  1589.7652     4.9680    39.8256
         TOT.                       76.176    4006.5045    24.2353    72.2095

 330.00  VIB.     0.2293D+01                  1630.9452    17.3260     6.5914
         ROT.     0.1314D+06                   983.6672     2.9808    26.4013
         INT.     0.3012D+06                  2614.6124    20.3068    32.9927
         TRA.     0.9964D+27                  1639.4454     4.9680    39.9785
         TOT.                       76.423    4254.0577    25.2748    72.9712

 340.00  VIB.     0.2477D+01                  1809.3823    18.3604     7.1240
         ROT.     0.1374D+06                  1013.4753     2.9808    26.4903
         INT.     0.3402D+06                  2822.8577    21.3412    33.6143
         TRA.     0.1042D+28                  1689.1255     4.9680    40.1268
         TOT.                       76.681    4511.9832    26.3092    73.7411

 350.00  VIB.     0.2684D+01                  1998.1271    19.3871     7.6710
         ROT.     0.1435D+06                  1043.2834     2.9808    26.5767
         INT.     0.3851D+06                  3041.4105    22.3679    34.2477
         TRA.     0.1088D+28                  1738.8057     4.9680    40.2708
         TOT.                       76.950    4780.2162    27.3359    74.5185

 360.00  VIB.     0.2919D+01                  2197.0900    20.4037     8.2315
         ROT.     0.1497D+06                  1073.0915     2.9808    26.6606
         INT.     0.4368D+06                  3270.1815    23.3845    34.8921
         TRA.     0.1135D+28                  1788.4859     4.9680    40.4108
         TOT.                       77.228    5058.6673    28.3525    75.3029

 370.00  VIB.     0.3183D+01                  2406.1604    21.4083     8.8042
         ROT.     0.1559D+06                  1102.8996     2.9808    26.7423
         INT.     0.4964D+06                  3509.0600    24.3891    35.5466
         TRA.     0.1183D+28                  1838.1660     4.9680    40.5469
         TOT.                       77.517    5347.2260    29.3571    76.0935

 380.00  VIB.     0.3483D+01                  2625.2100    22.3992     9.3884
         ROT.     0.1623D+06                  1132.7077     2.9808    26.8218
         INT.     0.5653D+06                  3757.9177    25.3801    36.2102
         TRA.     0.1231D+28                  1887.8462     4.9680    40.6794
         TOT.                       77.815    5645.7639    30.3481    76.8895

 390.00  VIB.     0.3822D+01                  2854.0955    23.3752     9.9828
         ROT.     0.1688D+06                  1162.5158     2.9808    26.8992
         INT.     0.6451D+06                  4016.6113    26.3561    36.8821
         TRA.     0.1280D+28                  1937.5263     4.9680    40.8084
         TOT.                       78.123    5954.1376    31.3241    77.6905

 400.00  VIB.     0.4207D+01                  3092.6614    24.3352    10.5868
         ROT.     0.1753D+06                  1192.3239     2.9808    26.9747
         INT.     0.7374D+06                  4284.9853    27.3160    37.5615
         TRA.     0.1330D+28                  1987.2065     4.9680    40.9342
         TOT.                       78.441    6272.1918    32.2840    78.4957

   *: NOTE: HEATS OF FORMATION ARE RELATIVE TO THE
            ELEMENTS IN THEIR STANDARD STATE AT 298K
              (=  Standard Enthalpy of Formation).

            Hvib:  Zero-point energy is not included.
                   frequencies of less than zero cm-1 are not included.
            Hrot = (3/2)RT
            Htra = (3/2)RT + pV = (5/2)RT

            Heat capacity is Cp, not Cv

          For more information, see: HTTP://OpenMOPAC.net/Manual/thermochemistry.html


           FORCE CONSTANT IN CARTESIAN COORDINATES (Millidynes/A)

    ATOM   CHEMICAL       X               Y               Z
   NUMBER   SYMBOL  FORCE CONSTANT  FORCE CONSTANT  FORCE CONSTANT

      1       C        7.602980        7.738365        4.699686
      2       C        7.698063        8.136530        4.829728
      3       C        6.698705        9.102541        4.827731
      4       C        9.076391        6.289383        4.666635
      5       H        1.971535        2.655425        0.843160
      6       H        3.514494        1.078479        0.865377
      7       C        7.559495        6.316263        6.931242
      8       H        3.415535        0.885203        1.218735
      9       H        0.699351        0.687922        4.132200
     10       C        3.761051        6.648121        9.631859
     11       H        0.486919        1.791747        3.191454
     12       C        3.676030        6.712717        9.643662
     13       H        0.660659        1.617924        3.179767
     14       H        1.737275        3.095565        0.701577
     15       H        0.702633        4.170914        0.699316

 **********************
 *                    *
 * JOB ENDED NORMALLY *
 *                    *
 **********************



 TOTAL JOB TIME:             0.50 SECONDS

 == MOPAC DONE ==
