 *******************************************************************************
 ** Site#: 37381        For non-commercial use only           Version 21.125L **
 *******************************************************************************
 ** Cite this program as: MOPAC2016, Version: 21.125L, James J. P. Stewart,   **
 ** Stewart Computational Chemistry, web: HTTP://OpenMOPAC.net. Days left: 191**
 *******************************************************************************
 **                                                                           **
 **                                MOPAC2016                                  **
 **                                                                           **
 *******************************************************************************

                              PM6-D3H4 CALCULATION RESULTS

 *******************************************************************************
 *  CALCULATION DONE:                                Tue Oct 26 19:55:26 2021  *
 *  PM6-D3H4   - CORRECT DISPERSION AND HYDROGEN BOND TERMS USING THE D3H4 METHOD
 *  EPS=2.38   - USE ANDREAS KLAMT'S COSMO IMPLICIT SOLVATION MODEL
 *  RSOLV=  3.480
 *  FORCE      - FORCE CALCULATION SPECIFIED
 *  T=         - A TIME OF 172800.0 SECONDS REQUESTED
 *  DUMP=N     - RESTART FILE WRITTEN EVERY 7200.0 SECONDS REQUESTED
 *  AUX        - OUTPUT AUXILIARY INFORMATION
 *  LARGE      - EXPANDED OUTPUT TO BE PRINTED
 *  THERMO     - THERMODYNAMIC QUANTITIES TO BE CALCULATED
 *******************************************************************************
 AUX LARGE FORCE THERMO PM6-D3H4 EPS=2.38 RSOLV=3.48
 Cycloaddition_TS_PM6_D3H4_THERMO

   ATOM   CHEMICAL          X               Y               Z
  NUMBER   SYMBOL      (ANGSTROMS)     (ANGSTROMS)     (ANGSTROMS)
 
     1       C          0.45816000  *   0.72949000  *  -0.80082000  *
     2       C          1.59145000  *   1.34012000  *   0.15988000  *
     3       C         -0.41347000  *   2.36181000  *   0.83034000  *
     4       C         -0.76676000  *   1.61209000  *  -0.46385000  *
     5       H          0.60360000  *   0.32710000  *  -1.80869000  *
     6       H         -1.75429000  *   1.37078000  *  -0.81980000  *
     7       C          0.84788000  *   1.74346000  *   1.44748000  *
     8       H          1.43263000  *   2.48357000  *   2.03327000  *
     9       H          0.59897000  *   0.86097000  *   2.08398000  *
    10       C          1.29370000  *   2.33070000  *  -0.88736000  *
    11       H          1.90318000  *   2.59698000  *  -1.73197000  *
    12       C         -0.03557000  *   2.96815000  *  -0.53998000  *
    13       H         -0.37565000  *   3.90433000  *  -0.94137000  *
    14       H          2.55463000  *   0.83448000  *   0.23423000  *
    15       H         -1.16301000  *   2.79265000  *   1.48192000  *
    16       N         -0.70825000  *  -0.98425000  *   0.81125000  *
    17       N          0.13541000  *  -0.93845000  *  -0.17076000  *
    18       C         -2.09906000  *  -0.79240000  *   0.55605000  *
    19       C          1.45826000  *  -1.46801000  *   0.25282000  *
    20       O          1.81745000  *  -1.93451000  *   1.30430000  *
    21       O         -2.91441000  *  -0.53980000  *   1.41645000  *
    22       O          2.25391000  *  -1.41991000  *  -0.86486000  *
    23       O         -2.44078000  *  -0.96901000  *  -0.77123000  *
    24       C         -3.85402000  *  -0.92049000  *  -1.11300000  *
    25       H         -3.81352000  *  -0.99751000  *  -2.22141000  *
    26       H         -4.35409000  *  -1.79397000  *  -0.64444000  *
    27       H         -4.28169000  *   0.04138000  *  -0.76420000  *
    28       C          3.55130000  *  -2.08258000  *  -0.74898000  *
    29       H          4.15177000  *  -1.55099000  *   0.01698000  *
    30       H          3.38523000  *  -3.14949000  *  -0.48665000  *
    31       H          3.94364000  *  -1.95285000  *  -1.78124000  *
 


          CARTESIAN COORDINATES 

    NO.       ATOM           X           Y           Z

     1         C          0.4582      0.7295     -0.8008
     2         C          1.5915      1.3401      0.1599
     3         C         -0.4135      2.3618      0.8303
     4         C         -0.7668      1.6121     -0.4639
     5         H          0.6036      0.3271     -1.8087
     6         H         -1.7543      1.3708     -0.8198
     7         C          0.8479      1.7435      1.4475
     8         H          1.4326      2.4836      2.0333
     9         H          0.5990      0.8610      2.0840
    10         C          1.2937      2.3307     -0.8874
    11         H          1.9032      2.5970     -1.7320
    12         C         -0.0356      2.9682     -0.5400
    13         H         -0.3757      3.9043     -0.9414
    14         H          2.5546      0.8345      0.2342
    15         H         -1.1630      2.7927      1.4819
    16         N         -0.7083     -0.9842      0.8113
    17         N          0.1354     -0.9385     -0.1708
    18         C         -2.0991     -0.7924      0.5561
    19         C          1.4583     -1.4680      0.2528
    20         O          1.8175     -1.9345      1.3043
    21         O         -2.9144     -0.5398      1.4164
    22         O          2.2539     -1.4199     -0.8649
    23         O         -2.4408     -0.9690     -0.7712
    24         C         -3.8540     -0.9205     -1.1130
    25         H         -3.8135     -0.9975     -2.2214
    26         H         -4.3541     -1.7940     -0.6444
    27         H         -4.2817      0.0414     -0.7642
    28         C          3.5513     -2.0826     -0.7490
    29         H          4.1518     -1.5510      0.0170
    30         H          3.3852     -3.1495     -0.4867
    31         H          3.9436     -1.9529     -1.7812

 General Reference for PM6:
 "Optimization of Parameters for Semiempirical Methods V: Modification of NDDO Approximations
 and Application to 70 Elements", J. J. P. Stewart, J. Mol. Mod., 13, 1173-1213 (2007)
 URL: https://link.springer.com/article/10.1007/s00894-007-0233-4

           Empirical Formula: C11 H14 N2 O4  =    31 atoms



      MOLECULAR POINT GROUP   :   C1  


      RHF CALCULATION, NO. OF DOUBLY OCCUPIED LEVELS = 46



          HEAT OF FORMATION =      -0.504335 KCALS/MOLE


          CARTESIAN COORDINATE DERIVATIVES

   NUMBER  ATOM         X            Y            Z

     1       C      0.709713     0.189735    -1.461519
     2       C      0.154504     0.047992    -0.043198
     3       C      0.179067     0.197878     0.198132
     4       C      0.191890     0.193555    -0.005134
     5       H     -0.049408     0.515962    -0.000573
     6       H     -0.140884     0.120824     0.012039
     7       C      0.248863     0.019834     0.173222
     8       H     -0.078849    -0.198217    -0.019604
     9       H     -0.144294    -0.244014     0.125227
    10       C     -0.351927    -0.121780    -0.513019
    11       H     -0.578336    -0.308041     0.588811
    12       C      0.242654     0.307771     0.163913
    13       H     -0.195789     0.096301     0.011293
    14       H     -0.309352    -0.191153    -0.031268
    15       H      0.343618    -0.445675     0.211649
    16       N      0.453245    -1.177721    -0.087651
    17       N      0.048758     0.324421     0.765728
    18       C     -0.974157    -1.433610     0.577504
    19       C      0.442339    -0.060947    -0.140731
    20       O      0.393086     0.184229    -0.109963
    21       O      0.601872     2.600735     0.578865
    22       O      0.061223     0.078378    -0.213413
    23       O     -0.067115    -0.725135    -0.736150
    24       C      0.099124     0.031239    -0.274827
    25       H     -0.446591    -0.060557    -0.062596
    26       H     -0.279403    -0.111663    -0.069448
    27       H     -0.387151     0.006424    -0.083444
    28       C      0.417746     0.069193    -0.007665
    29       H     -0.150389     0.234609     0.106677
    30       H     -0.143802    -0.039152     0.169592
    31       H     -0.290254    -0.101414     0.177551
 
 DIPOLE           X         Y         Z       TOTAL
 POINT-CHG.     1.667    -3.003    -7.962     8.671
 HYBRID        -0.098     0.091    -0.620     0.634
 SUM            1.570    -2.912    -8.582     9.197


          GRADIENT NORM =   4.57803


                              **** WARNING ****

           GRADIENT IS VERY LARGE FOR A THERMO CALCULATION
           RESULTS ARE LIKELY TO BE INACCURATE IF THERE ARE
           ANY LOW-LYING VIBRATIONS (LESS THAN ABOUT 400CM-1)
           GRADIENT NORM SHOULD BE LESS THAN ABOUT 1.1 FOR THERMO
           TO GIVE ACCURATE RESULTS


          TIME FOR SCF CALCULATION =    0.05

          TIME FOR DERIVATIVES     =    0.02

          MOLECULAR WEIGHT =  238.24



          ROTATIONAL CONSTANTS IN CM(-1)

          A =    0.02047959   B =    0.01437359   C =    0.01057485



           PRINCIPAL MOMENTS OF INERTIA IN UNITS OF 10**(-40)*GRAM-CM**2

          A =     1366.8621   B =     1947.5142   C =     2647.1085


          ORIENTATION OF MOLECULE IN FORCE CALCULATION

    NO.       ATOM         X         Y         Z

     1          C       0.1203   -0.2825   -1.1665
     2          C       1.7266   -0.2825   -1.1665
     3          C       1.1014    1.9807   -1.1665
     4          C      -0.2069    1.2105   -1.4050
     5          H      -0.5329   -1.0720   -1.5525
     6          H      -1.2082    1.5943   -1.3045
     7          C       2.1254    1.0499   -0.5038
     8          H       3.1696    1.3280   -0.7587
     9          H       1.9950    1.0245    0.6045
    10          C       1.2667   -0.0088   -2.5377
    11          H       1.2928   -0.6715   -3.3838
    12          C       0.7790    1.4247   -2.5719
    13          H       0.6548    1.9954   -3.4730
    14          H       2.2584   -1.1951   -0.8958
    15          H       1.1261    3.0391   -0.9399
    16          N      -0.3900    0.3138    1.3396
    17          N      -0.3647   -0.6968    0.5295
    18          C      -1.4510    1.2638    1.2495
    19          C       0.6207   -1.7101    0.9901
    20          O       1.3256   -1.7327    1.9672
    21          O      -1.4156    2.3647    1.7550
    22          O       0.5318   -2.7489    0.0970
    23          O      -2.5530    0.7892    0.5640
    24          C      -3.7361    1.6350    0.5267
    25          H      -4.3997    1.0527   -0.1491
    26          H      -4.1407    1.7107    1.5577
    27          H      -3.4635    2.6267    0.1119
    28          C       1.2646   -3.9606    0.4583
    29          H       2.3484   -3.7263    0.4730
    30          H       0.8987   -4.3185    1.4446
    31          H       0.9733   -4.6359   -0.3757


    FIRST DERIVATIVES WILL BE USED IN THE CALCULATION OF SECOND DERIVATIVES

          ESTIMATED TIME TO COMPLETE CALCULATION =       11.62 SECONDS

    FOR POINT-GROUP C1   THERE ARE   1 UNIQUE SYMMETRY FUNCTIONS.

 STEP:   1 TIME =     0.05 SECS, INTEGRAL =      0.05 TIME LEFT: 172799.88
 STEP:   2 TIME =     0.05 SECS, INTEGRAL =      0.10 TIME LEFT: 172799.84
 STEP:   3 TIME =     0.06 SECS, INTEGRAL =      0.16 TIME LEFT: 172799.77
 STEP:   4 TIME =     0.05 SECS, INTEGRAL =      0.21 TIME LEFT: 172799.73
 STEP:   5 TIME =     0.05 SECS, INTEGRAL =      0.26 TIME LEFT: 172799.68
 STEP:   6 TIME =     0.05 SECS, INTEGRAL =      0.31 TIME LEFT: 172799.62
 STEP:   7 TIME =     0.05 SECS, INTEGRAL =      0.36 TIME LEFT: 172799.58
 STEP:   8 TIME =     0.05 SECS, INTEGRAL =      0.41 TIME LEFT: 172799.52
 STEP:   9 TIME =     0.05 SECS, INTEGRAL =      0.46 TIME LEFT: 172799.48
 STEP:  10 TIME =     0.05 SECS, INTEGRAL =      0.52 TIME LEFT: 172799.42
 STEP:  11 TIME =     0.05 SECS, INTEGRAL =      0.56 TIME LEFT: 172799.38
 STEP:  12 TIME =     0.05 SECS, INTEGRAL =      0.61 TIME LEFT: 172799.33
 STEP:  13 TIME =     0.05 SECS, INTEGRAL =      0.66 TIME LEFT: 172799.28
 STEP:  14 TIME =     0.05 SECS, INTEGRAL =      0.70 TIME LEFT: 172799.23
 STEP:  15 TIME =     0.05 SECS, INTEGRAL =      0.76 TIME LEFT: 172799.18
 STEP:  16 TIME =     0.05 SECS, INTEGRAL =      0.80 TIME LEFT: 172799.13
 STEP:  17 TIME =     0.05 SECS, INTEGRAL =      0.85 TIME LEFT: 172799.09
 STEP:  18 TIME =     0.05 SECS, INTEGRAL =      0.90 TIME LEFT: 172799.04
 STEP:  19 TIME =     0.05 SECS, INTEGRAL =      0.95 TIME LEFT: 172798.98
 STEP:  20 TIME =     0.05 SECS, INTEGRAL =      1.00 TIME LEFT: 172798.94
 STEP:  21 TIME =     0.05 SECS, INTEGRAL =      1.05 TIME LEFT: 172798.89
 STEP:  22 TIME =     0.05 SECS, INTEGRAL =      1.09 TIME LEFT: 172798.84
 STEP:  23 TIME =     0.05 SECS, INTEGRAL =      1.14 TIME LEFT: 172798.80
 STEP:  24 TIME =     0.05 SECS, INTEGRAL =      1.19 TIME LEFT: 172798.75
 STEP:  25 TIME =     0.05 SECS, INTEGRAL =      1.23 TIME LEFT: 172798.70
 STEP:  26 TIME =     0.05 SECS, INTEGRAL =      1.29 TIME LEFT: 172798.65
 STEP:  27 TIME =     0.05 SECS, INTEGRAL =      1.34 TIME LEFT: 172798.60
 STEP:  28 TIME =     0.05 SECS, INTEGRAL =      1.38 TIME LEFT: 172798.55
 STEP:  29 TIME =     0.05 SECS, INTEGRAL =      1.43 TIME LEFT: 172798.51
 STEP:  30 TIME =     0.05 SECS, INTEGRAL =      1.48 TIME LEFT: 172798.45
 STEP:  31 TIME =     0.05 SECS, INTEGRAL =      1.53 TIME LEFT: 172798.41
 STEP:  32 TIME =     0.05 SECS, INTEGRAL =      1.58 TIME LEFT: 172798.36
 STEP:  33 TIME =     0.05 SECS, INTEGRAL =      1.62 TIME LEFT: 172798.31
 STEP:  34 TIME =     0.05 SECS, INTEGRAL =      1.67 TIME LEFT: 172798.27
 STEP:  35 TIME =     0.05 SECS, INTEGRAL =      1.73 TIME LEFT: 172798.21
 STEP:  36 TIME =     0.05 SECS, INTEGRAL =      1.77 TIME LEFT: 172798.16
 STEP:  37 TIME =     0.05 SECS, INTEGRAL =      1.82 TIME LEFT: 172798.12
 STEP:  38 TIME =     0.05 SECS, INTEGRAL =      1.87 TIME LEFT: 172798.07
 STEP:  39 TIME =     0.05 SECS, INTEGRAL =      1.91 TIME LEFT: 172798.02
 STEP:  40 TIME =     0.05 SECS, INTEGRAL =      1.96 TIME LEFT: 172797.98
 STEP:  41 TIME =     0.05 SECS, INTEGRAL =      2.01 TIME LEFT: 172797.93
 STEP:  42 TIME =     0.05 SECS, INTEGRAL =      2.05 TIME LEFT: 172797.88
 STEP:  43 TIME =     0.05 SECS, INTEGRAL =      2.10 TIME LEFT: 172797.84
 STEP:  44 TIME =     0.05 SECS, INTEGRAL =      2.15 TIME LEFT: 172797.79
 STEP:  45 TIME =     0.05 SECS, INTEGRAL =      2.20 TIME LEFT: 172797.74
 STEP:  46 TIME =     0.05 SECS, INTEGRAL =      2.25 TIME LEFT: 172797.69
 STEP:  47 TIME =     0.05 SECS, INTEGRAL =      2.30 TIME LEFT: 172797.63
 STEP:  48 TIME =     0.05 SECS, INTEGRAL =      2.35 TIME LEFT: 172797.59
 STEP:  49 TIME =     0.05 SECS, INTEGRAL =      2.40 TIME LEFT: 172797.54
 STEP:  50 TIME =     0.05 SECS, INTEGRAL =      2.45 TIME LEFT: 172797.48
 STEP:  51 TIME =     0.05 SECS, INTEGRAL =      2.51 TIME LEFT: 172797.43
 STEP:  52 TIME =     0.05 SECS, INTEGRAL =      2.56 TIME LEFT: 172797.38
 STEP:  53 TIME =     0.05 SECS, INTEGRAL =      2.62 TIME LEFT: 172797.32
 STEP:  54 TIME =     0.05 SECS, INTEGRAL =      2.66 TIME LEFT: 172797.27
 STEP:  55 TIME =     0.05 SECS, INTEGRAL =      2.72 TIME LEFT: 172797.22
 STEP:  56 TIME =     0.05 SECS, INTEGRAL =      2.77 TIME LEFT: 172797.17
 STEP:  57 TIME =     0.05 SECS, INTEGRAL =      2.81 TIME LEFT: 172797.12
 STEP:  58 TIME =     0.05 SECS, INTEGRAL =      2.86 TIME LEFT: 172797.08
 STEP:  59 TIME =     0.05 SECS, INTEGRAL =      2.91 TIME LEFT: 172797.03
 STEP:  60 TIME =     0.05 SECS, INTEGRAL =      2.96 TIME LEFT: 172796.98
 STEP:  61 TIME =     0.05 SECS, INTEGRAL =      3.01 TIME LEFT: 172796.93
 STEP:  62 TIME =     0.05 SECS, INTEGRAL =      3.05 TIME LEFT: 172796.88
 STEP:  63 TIME =     0.05 SECS, INTEGRAL =      3.11 TIME LEFT: 172796.83
 STEP:  64 TIME =     0.05 SECS, INTEGRAL =      3.16 TIME LEFT: 172796.78
 STEP:  65 TIME =     0.05 SECS, INTEGRAL =      3.21 TIME LEFT: 172796.73
 STEP:  66 TIME =     0.05 SECS, INTEGRAL =      3.26 TIME LEFT: 172796.68
 STEP:  67 TIME =     0.05 SECS, INTEGRAL =      3.30 TIME LEFT: 172796.63
 STEP:  68 TIME =     0.05 SECS, INTEGRAL =      3.35 TIME LEFT: 172796.59
 STEP:  69 TIME =     0.05 SECS, INTEGRAL =      3.40 TIME LEFT: 172796.54
 STEP:  70 TIME =     0.05 SECS, INTEGRAL =      3.45 TIME LEFT: 172796.48
 STEP:  71 TIME =     0.05 SECS, INTEGRAL =      3.50 TIME LEFT: 172796.44
 STEP:  72 TIME =     0.05 SECS, INTEGRAL =      3.55 TIME LEFT: 172796.39
 STEP:  73 TIME =     0.05 SECS, INTEGRAL =      3.59 TIME LEFT: 172796.34
 STEP:  74 TIME =     0.05 SECS, INTEGRAL =      3.64 TIME LEFT: 172796.30
 STEP:  75 TIME =     0.04 SECS, INTEGRAL =      3.68 TIME LEFT: 172796.26
 STEP:  76 TIME =     0.04 SECS, INTEGRAL =      3.72 TIME LEFT: 172796.22
 STEP:  77 TIME =     0.05 SECS, INTEGRAL =      3.77 TIME LEFT: 172796.17
 STEP:  78 TIME =     0.05 SECS, INTEGRAL =      3.81 TIME LEFT: 172796.12
 STEP:  79 TIME =     0.05 SECS, INTEGRAL =      3.86 TIME LEFT: 172796.08
 STEP:  80 TIME =     0.05 SECS, INTEGRAL =      3.91 TIME LEFT: 172796.03
 STEP:  81 TIME =     0.04 SECS, INTEGRAL =      3.95 TIME LEFT: 172795.99
 STEP:  82 TIME =     0.05 SECS, INTEGRAL =      3.99 TIME LEFT: 172795.95
 STEP:  83 TIME =     0.05 SECS, INTEGRAL =      4.04 TIME LEFT: 172795.90
 STEP:  84 TIME =     0.05 SECS, INTEGRAL =      4.09 TIME LEFT: 172795.85
 STEP:  85 TIME =     0.05 SECS, INTEGRAL =      4.13 TIME LEFT: 172795.80
 STEP:  86 TIME =     0.05 SECS, INTEGRAL =      4.18 TIME LEFT: 172795.76
 STEP:  87 TIME =     0.05 SECS, INTEGRAL =      4.23 TIME LEFT: 172795.71
 STEP:  88 TIME =     0.05 SECS, INTEGRAL =      4.27 TIME LEFT: 172795.66
 STEP:  89 TIME =     0.05 SECS, INTEGRAL =      4.32 TIME LEFT: 172795.62
 STEP:  90 TIME =     0.05 SECS, INTEGRAL =      4.37 TIME LEFT: 172795.57
 STEP:  91 TIME =     0.05 SECS, INTEGRAL =      4.41 TIME LEFT: 172795.52
 STEP:  92 TIME =     0.05 SECS, INTEGRAL =      4.46 TIME LEFT: 172795.48
 STEP:  93 TIME =     0.05 SECS, INTEGRAL =      4.51 TIME LEFT: 172795.43

(To convert to Hartree/Bohr^2, multiply by (10^(-21) x N x a0^2)/(4.184 x 627.51) =  0.0642)


           FORCE MATRIX IN MILLIDYNES/ANGSTROM


                  C  1       C  2       C  3       C  4       H  5       H  6
 ------------------------------------------------------------------------------
     C    1   9.290505
     C    2   2.239689  12.549148
     C    3   0.786699   0.916446  12.616529
     C    4   3.093205   0.730935   3.588875  12.470595
     H    5   3.509483   0.308665   0.055909   0.463721   4.739585
     H    6   0.482338   0.045794   0.446921   3.546550   0.019070   4.332488
     C    7   0.757095   2.977361   3.203320   0.694477   0.053289   0.037087
     H    8   0.065025   0.582782   0.572795   0.052375   0.009229   0.007356
     H    9   0.095718   0.571736   0.575597   0.015108   0.011339   0.004900
     C   10   1.793497   4.851547   0.829574   1.245465   0.627369   0.049967
     H   11   0.408795   0.491629   0.040689   0.048070   0.424679   0.017477
     C   12   1.286482   0.857363   3.404248   3.641001   0.043721   0.429818
     H   13   0.078024   0.039710   0.429789   0.404807   0.006352   0.016208
     H   14   0.424046   3.458330   0.045946   0.039296   0.019260   0.007044
     H   15   0.064047   0.048971   3.518726   0.479543   0.010473   0.017154
     N   16   3.306261   0.418805   0.120884   0.145587   0.325551   0.083786
     N   17   3.749128   0.822569   0.137897   0.411921   0.889125   0.089315
     C   18   1.574373   0.254832   0.078563   0.107737   0.213592   0.130401
     C   19   0.683103   0.198871   0.033227   0.079363   0.229467   0.024084
     O   20   0.147150   0.031004   0.009691   0.020342   0.090807   0.007754
     O   21   0.366545   0.058231   0.019657   0.032677   0.062025   0.020237
     O   22   0.270883   0.061335   0.008238   0.020884   0.065787   0.008145
     O   23   0.401986   0.064631   0.018766   0.063272   0.061100   0.051253
     C   24   0.106829   0.017439   0.004226   0.009968   0.020856   0.010551
     H   25   0.036535   0.005972   0.000971   0.003620   0.008890   0.004195
     H   26   0.018446   0.003598   0.000551   0.001497   0.003240   0.002278
     H   27   0.022306   0.004035   0.001654   0.004095   0.003278   0.011717
     C   28   0.064166   0.012803   0.002151   0.005324   0.033873   0.002092
     H   29   0.015648   0.006116   0.000457   0.001434   0.006620   0.000334
     H   30   0.007147   0.001546   0.000612   0.001074   0.006665   0.000597
     H   31   0.024492   0.004536   0.000657   0.001979   0.009343   0.000619


                  C  7       H  8       H  9       C 10       H 11       C 12
 ------------------------------------------------------------------------------
     C    7  11.892154
     H    8   3.335361   4.241246
     H    9   3.278187   0.558549   4.172544
     C   10   0.783151   0.033435   0.065820  11.772156
     H   11   0.065731   0.012078   0.014504   3.610822   4.313311
     C   12   0.711382   0.017458   0.054027   3.516645   0.493492  12.539145
     H   13   0.040167   0.006042   0.007191   0.506238   0.022951   3.590206
     H   14   0.475576   0.019310   0.017709   0.562188   0.029073   0.047887
     H   15   0.508017   0.015750   0.019867   0.054699   0.011899   0.467361
     N   16   0.132012   0.036706   0.087630   0.798394   0.355851   0.318756
     N   17   0.138279   0.043186   0.117634   1.080245   0.385175   0.380677
     C   18   0.067723   0.026367   0.041546   0.418339   0.241252   0.168348
     C   19   0.053453   0.019589   0.043107   0.264403   0.198845   0.089362
     O   20   0.021963   0.008315   0.020984   0.081781   0.083323   0.015056
     O   21   0.022197   0.008378   0.014302   0.105823   0.066078   0.043097
     O   22   0.016342   0.007289   0.009990   0.079732   0.057870   0.023408
     O   23   0.013812   0.007486   0.006827   0.106224   0.067503   0.041508
     C   24   0.004192   0.002111   0.002323   0.025950   0.023445   0.008687
     H   25   0.001373   0.000702   0.000732   0.008658   0.009955   0.002472
     H   26   0.001427   0.000629   0.000662   0.004251   0.003694   0.001075
     H   27   0.000960   0.000396   0.000443   0.005974   0.003286   0.002780
     C   28   0.004260   0.002280   0.002072   0.032573   0.030433   0.004805
     H   29   0.001867   0.000866   0.000763   0.005523   0.005188   0.001184
     H   30   0.000682   0.000447   0.000633   0.007124   0.005753   0.001108
     H   31   0.001071   0.000530   0.000494   0.012152   0.010789   0.001632


                  H 13       H 14       H 15       N 16       N 17       C 18
 ------------------------------------------------------------------------------
     H   13   4.373059
     H   14   0.006669   4.279116
     H   15   0.016533   0.007278   4.327998
     N   16   0.069883   0.073402   0.044968  12.856005
     N   17   0.080113   0.095415   0.048588   7.744811  11.740941
     C   18   0.049155   0.045407   0.039476   3.723812   2.430633  16.669669
     C   19   0.029372   0.112083   0.018752   1.633782   3.246910   0.269764
     O   20   0.010378   0.021886   0.007280   0.127668   1.187040   0.102509
     O   21   0.014267   0.010597   0.016792   1.678349   0.474917  10.823829
     O   22   0.011098   0.038184   0.006467   0.200662   1.197966   0.054950
     O   23   0.015497   0.010964   0.009848   1.255754   0.332747   3.694536
     C   24   0.004428   0.002973   0.002709   0.215608   0.106371   1.038357
     H   25   0.001507   0.001064   0.000676   0.056584   0.033362   0.124495
     H   26   0.000954   0.000862   0.000672   0.029109   0.017630   0.108710
     H   27   0.000995   0.000467   0.001311   0.030677   0.021440   0.107304
     C   28   0.003710   0.007285   0.001751   0.047321   0.168182   0.015882
     H   29   0.000643   0.010141   0.000359   0.007632   0.021649   0.003426
     H   30   0.000626   0.001991   0.000541   0.009777   0.018930   0.007826
     H   31   0.001591   0.003040   0.000441   0.014556   0.046505   0.004642


                  C 19       O 20       O 21       O 22       O 23       C 24
 ------------------------------------------------------------------------------
     C   19  16.729232
     O   20  11.304444  13.597156
     O   21   0.075258   0.049921  13.246020
     O   22   4.045202   1.927116   0.042816   9.390913
     O   23   0.045626   0.036498   1.822386   0.033941   9.178933
     C   24   0.019776   0.010063   0.116102   0.011082   3.579027  10.745486
     H   25   0.005371   0.003377   0.023904   0.004096   0.734304   3.334280
     H   26   0.005000   0.003784   0.023445   0.003191   0.691862   3.328453
     H   27   0.002497   0.001836   0.033201   0.001721   0.692002   3.345378
     C   28   1.108382   0.113588   0.013136   3.444304   0.011667   0.003920
     H   29   0.110257   0.029513   0.002698   0.680130   0.002125   0.000587
     H   30   0.117943   0.031998   0.003791   0.682389   0.003972   0.001229
     H   31   0.134675   0.022241   0.003546   0.726463   0.003392   0.001160


                  H 25       H 26       H 27       C 28       H 29       H 30
 ------------------------------------------------------------------------------
     H   25   4.237703
     H   26   0.536731   4.195385
     H   27   0.539998   0.548601   4.229611
     C   28   0.001445   0.001039   0.000610  10.714845
     H   29   0.000181   0.000163   0.000170   3.340067   4.207265
     H   30   0.000460   0.000423   0.000138   3.320873   0.548175   4.188982
     H   31   0.000454   0.000277   0.000156   3.428221   0.532372   0.530962


                  H 31
 ------------------
     H   31   4.332245


          HEAT OF FORMATION =      -0.504335 KCALS/MOLE


          TRIVIAL VIBRATIONS, SHOULD BE ZERO

 -42.4190=TX   3.0335=TY  -6.5623=TZ  46.4218=RX  44.2584=RY -44.7358=RZ


      MOLECULAR POINT GROUP   :   C1  


           EIGENVECTORS  


   Root No.       1         2         3         4         5         6         7         8

                 1 A       2 A       3 A       4 A       5 A       6 A       7 A       8 A   

                  -5.1      -0.0      -0.0       0.0       0.0       0.0       0.0       0.0
  
           1   -0.2952    0.0704    0.0546   -0.0033    0.0125   -0.0602   -0.0347    0.0093
           2   -0.0521   -0.0495   -0.0454    0.0059   -0.0490   -0.0432   -0.0692   -0.0069
           3    0.7686   -0.0144   -0.0012   -0.0203    0.0273    0.0412   -0.0657   -0.1199
           4   -0.0185    0.0674    0.0561   -0.0042    0.0128   -0.0616   -0.0367   -0.0002
           5    0.0153    0.0634    0.0495   -0.0056    0.0421   -0.0181   -0.0950    0.0452
           6   -0.1186    0.0150    0.0787   -0.0446    0.0411    0.0091   -0.0161   -0.1211
           7   -0.0224   -0.0905   -0.0812    0.0128   -0.1193   -0.0995   -0.0014   -0.0795
           8   -0.0156    0.0227    0.0123   -0.0007    0.0065   -0.0279   -0.0860    0.0263
           9    0.0111    0.0270   -0.0495    0.0021   -0.0492    0.0622    0.0584    0.0667
          10    0.0147   -0.0226   -0.0247    0.0054   -0.0732   -0.0886   -0.0013   -0.0517
          11   -0.0425   -0.0724   -0.0763    0.0118   -0.0779   -0.0461   -0.0578   -0.0020
          12    0.0437   -0.0418   -0.0773    0.0016   -0.0279    0.0657   -0.0425   -0.0083
          13    0.0079    0.1588    0.1358   -0.0162    0.0690   -0.0514   -0.0218    0.0334
          14    0.0062   -0.0871   -0.0879    0.0102   -0.0920   -0.0459   -0.0533   -0.0214
          15   -0.1219   -0.0506   -0.0111   -0.0206    0.0444    0.0419   -0.1086   -0.1337
          16   -0.0037   -0.0567   -0.0523    0.0093   -0.0980   -0.0966   -0.0018   -0.0684
          17    0.0088   -0.1447   -0.1326    0.0180   -0.1356   -0.0701   -0.0458   -0.0501
          18   -0.0045   -0.0845   -0.1332    0.0148   -0.0425    0.0809   -0.0866    0.0059
          19   -0.0070   -0.0468   -0.0549    0.0141   -0.0691   -0.0745   -0.0424   -0.0358
          20   -0.0060    0.0846    0.1028   -0.0196    0.0910   -0.0239   -0.1306    0.0079
          21   -0.0206    0.0486    0.0371   -0.0259   -0.0082    0.0298    0.0609   -0.0233
          22    0.0040   -0.0580   -0.0604    0.0130   -0.0839   -0.0828   -0.0275   -0.0525
          23   -0.0034    0.1566    0.1533   -0.0228    0.1413   -0.0011   -0.1367    0.0694
          24    0.0094    0.0787    0.0673   -0.0331   -0.0153    0.0214    0.1158   -0.0243
          25   -0.0107   -0.0731   -0.0968    0.0265   -0.0710   -0.0596   -0.0835   -0.0096
          26   -0.0099    0.0597    0.1491   -0.0395    0.1273   -0.0501   -0.1762   -0.0824
          27    0.0050    0.0450    0.0331   -0.0247   -0.0076    0.0311    0.0555   -0.0234
          28    0.2142    0.1387    0.1109   -0.0145    0.0079   -0.0871    0.0413   -0.0196
          29    0.1055    0.0725   -0.0342    0.0232   -0.0354    0.0003   -0.0211    0.1445
          30   -0.0989   -0.0017    0.0435   -0.0346    0.0268    0.0214   -0.0253   -0.0988
          31   -0.0110    0.2121    0.1963   -0.0307    0.0532   -0.0981    0.0636   -0.0117
          32   -0.0437    0.0931   -0.0704    0.0393   -0.0670    0.0153    0.0155    0.2241
          33   -0.0284   -0.0086    0.0746   -0.0468    0.0523    0.0086   -0.0513   -0.1617
          34    0.0079    0.0107    0.0183   -0.0055   -0.0786   -0.1100    0.0602   -0.0545
          35   -0.0790    0.0230   -0.0668    0.0259   -0.0652   -0.0072   -0.0171    0.1376
          36   -0.0093    0.0043   -0.0400   -0.0045   -0.0300    0.0559    0.0172    0.0184
          37   -0.0108   -0.0069    0.0234   -0.0112   -0.1078   -0.1349    0.1103   -0.0701
          38   -0.0059    0.0268   -0.1138    0.0430   -0.1073    0.0073    0.0274    0.2160
          39    0.0016    0.0067   -0.0709    0.0069   -0.0527    0.0684    0.0376    0.0700
          40   -0.0141    0.1263    0.0885   -0.0053    0.0595   -0.0399   -0.0603    0.0139
          41    0.0028    0.1001    0.0892   -0.0134    0.0821   -0.0134   -0.1159    0.0314
          42   -0.0065    0.0216    0.1505   -0.0679    0.0841   -0.0183   -0.0389   -0.1931
          43   -0.0021   -0.1774   -0.1574    0.0222   -0.1830   -0.1146   -0.0000   -0.1299
          44    0.0003    0.0212    0.0235   -0.0050    0.0166   -0.0320   -0.0977    0.0046
          45   -0.0014    0.0449   -0.0923    0.0207   -0.0894    0.0820    0.1140    0.1725
          46   -0.0037   -0.0320    0.0259    0.0003    0.0449   -0.0315   -0.1268    0.0472
          47    0.1239   -0.0720    0.0086   -0.0068   -0.0201   -0.0977   -0.0473   -0.0680
          48   -0.0026   -0.0172   -0.0272   -0.0141    0.0348    0.0764   -0.1010   -0.1003
          49    0.1196   -0.0031   -0.0060    0.0104    0.0188   -0.0258   -0.1110    0.0497
          50    0.0128   -0.0385   -0.0056   -0.0001   -0.0231   -0.0755   -0.0587   -0.0647
          51   -0.3839   -0.0565   -0.0052   -0.0238    0.0408    0.0492   -0.0846   -0.1038
          52    0.1000    0.0132    0.0516    0.0021    0.0633   -0.0054   -0.0547    0.0644
          53   -0.0769   -0.0238    0.0414   -0.0070    0.0029   -0.0691    0.0245   -0.0508
          54    0.0385   -0.0390   -0.0366   -0.0102    0.0403    0.1000   -0.1321   -0.0723
          55   -0.0290    0.0524   -0.0901    0.0516    0.0013    0.0245   -0.0802    0.0215
          56    0.0797   -0.0158   -0.0650    0.0275   -0.0446   -0.0493   -0.0127   -0.0587
          57   -0.0303   -0.0830    0.0331   -0.0393    0.0318    0.0140   -0.0262   -0.0396
          58   -0.0364    0.4055   -0.3101    0.1961   -0.0352    0.0845   -0.0734   -0.2094
          59   -0.0053    0.1790   -0.2019    0.1205   -0.0834   -0.0155    0.0764   -0.1102
          60   -0.0154   -0.3348    0.1876   -0.1410    0.0564   -0.0289   -0.0284    0.1285
          61   -0.0294    0.0836    0.1261    0.0099    0.0794   -0.0267    0.0977    0.1097
          62    0.0066    0.0002    0.0749    0.0003   -0.0116   -0.1411    0.0858   -0.0465
          63   -0.0090   -0.0958   -0.1156   -0.0259    0.0703    0.2581   -0.2714   -0.0838
          64    0.0230   -0.3024    0.0887   -0.0642    0.0244    0.0142   -0.0120    0.2570
          65   -0.0164   -0.1808    0.0504   -0.0437   -0.0106   -0.0597   -0.0546   -0.0228
          66   -0.0116    0.1535   -0.1212    0.0581   -0.0100    0.0274    0.0186   -0.1052
          67   -0.0141   -0.0302   -0.0092   -0.0117    0.0723    0.0522   -0.1672    0.0239
          68    0.0110   -0.0107    0.0146   -0.0151    0.0531    0.0747    0.0415   -0.0324
          69   -0.0252    0.0262    0.0874    0.0166   -0.0084   -0.0975    0.0447   -0.0200
          70    0.0098    0.0021    0.0088   -0.0124    0.0976    0.1266   -0.0973    0.0596
          71   -0.0089    0.0374    0.0428   -0.0157    0.0893    0.1754    0.1505    0.0198
          72   -0.0043    0.0386    0.1103    0.0316   -0.0172   -0.1910    0.1231    0.0027
          73   -0.0006   -0.0451   -0.1159   -0.0486    0.2407    0.0444   -0.1489    0.0238
          74    0.0033    0.0409   -0.0801   -0.0537    0.3264    0.1096    0.2849    0.0567
          75    0.0014    0.0816    0.3372    0.0999   -0.3606   -0.0539    0.0601    0.0070
          76    0.0048    0.0422    0.1732    0.0400   -0.1274    0.1691   -0.0845    0.0807
          77   -0.0027    0.0881    0.2742    0.0469   -0.2556    0.4243    0.0663    0.0293
          78   -0.0039    0.0507    0.1574    0.0475   -0.0801   -0.1932    0.1353    0.0100
          79    0.0004    0.0272   -0.0223   -0.0302    0.1982    0.2129   -0.0178    0.0983
          80   -0.0035    0.0127   -0.0559   -0.0416    0.2293    0.0675    0.1779    0.0125
          81    0.0044   -0.0045   -0.1461   -0.0417    0.3805   -0.3920    0.2367    0.0088
          82   -0.0009   -0.1364   -0.0068   -0.0409    0.0011    0.1356    0.1934    0.0114
          83    0.0019   -0.1064   -0.0067   -0.0236   -0.0307   -0.0051    0.0631   -0.0917
          84    0.0000    0.0602   -0.1159    0.0769   -0.0289   -0.0334    0.0024    0.1857
          85   -0.0005   -0.1502    0.0012   -0.0703   -0.0020    0.1151    0.1560    0.0474
          86   -0.0019   -0.0299   -0.0511    0.0837   -0.0237    0.0923    0.2410   -0.2632
          87    0.0060   -0.1140   -0.0100    0.5956    0.1034   -0.0443   -0.0159    0.2441
          88    0.0005    0.0358   -0.1067   -0.4288   -0.1010    0.1871    0.2719   -0.1338
          89    0.0007   -0.1036   -0.0446   -0.2688   -0.1067   -0.0732    0.0034    0.1482
          90    0.0016    0.1240   -0.1665   -0.1572   -0.0946   -0.0393    0.0092    0.2217
          91    0.0034   -0.2150    0.0356    0.3844    0.0928    0.1824    0.2908   -0.0244
          92   -0.0050   -0.1467    0.0517    0.1268    0.0313   -0.0012    0.0174   -0.2015
          93    0.0052    0.1196   -0.1781   -0.1962   -0.1117   -0.0532    0.0050    0.2907


   Root No.       9        10        11        12        13        14        15        16

                 9 A      10 A      11 A      12 A      13 A      14 A      15 A      16 A   

                   0.0       0.1       0.1       0.1       0.1       0.2       0.2       0.2
  
           1    0.0188   -0.1106    0.1142   -0.0073    0.0244    0.1085    0.0529    0.0394
           2    0.0244    0.1403   -0.0005   -0.0453   -0.0247   -0.0095   -0.0429   -0.0056
           3   -0.0816   -0.0107    0.0792   -0.0114   -0.0784    0.0159    0.0158    0.0051
           4    0.0228   -0.0849    0.1019    0.0056    0.0073    0.0836    0.0933    0.0723
           5    0.0138    0.0708    0.0393   -0.0520   -0.0262    0.0254   -0.0040    0.0127
           6   -0.0030    0.0903   -0.0157   -0.0098   -0.0823   -0.1269    0.0437   -0.0056
           7    0.0417    0.0436    0.0783   -0.0176   -0.0002    0.1030    0.0281   -0.0026
           8    0.0175    0.1028    0.0318   -0.0623   -0.0282    0.0278   -0.0342   -0.0081
           9   -0.0974   -0.0925   -0.0350    0.0032   -0.0427   -0.1160    0.0337    0.0260
          10    0.0391   -0.0061    0.0794   -0.0128    0.0152    0.0735    0.0157    0.0049
          11    0.0259    0.1702   -0.0069   -0.0574   -0.0367    0.0054   -0.0451   -0.0129
          12   -0.0998   -0.0262    0.0943   -0.0426   -0.1083    0.0642    0.1204    0.0053
          13    0.0131   -0.2197    0.1446    0.0132    0.0691    0.1128    0.0985    0.0474
          14    0.0295    0.2252   -0.0168   -0.0663   -0.0657   -0.0368   -0.0662   -0.0453
          15   -0.1069   -0.0778    0.0396    0.0244   -0.0581    0.0620   -0.0306    0.0686
          16    0.0419    0.0372    0.0867   -0.0203    0.0067    0.0945    0.0227   -0.0108
          17    0.0356    0.2727   -0.0141   -0.0729   -0.0626    0.0044   -0.0711   -0.0523
          18   -0.1014   -0.0291    0.1794   -0.0721   -0.1303    0.2319    0.2771   -0.0177
          19   -0.0007   -0.0701    0.1665   -0.0554   -0.0139   -0.0052    0.0493    0.0196
          20    0.0276    0.0852    0.0721   -0.0695   -0.0416   -0.0097   -0.0017    0.0131
          21   -0.0206    0.0449   -0.1160    0.0552   -0.0341    0.0012    0.0403    0.0167
          22    0.0171   -0.0230    0.1274   -0.0320   -0.0070    0.0828    0.0552    0.0136
          23    0.0111    0.0034    0.0741   -0.0522   -0.0315   -0.0100    0.0360    0.0905
          24    0.0400    0.1615   -0.3008    0.1915    0.0161    0.4397    0.1034    0.0773
          25   -0.0779   -0.2091    0.3276   -0.1745   -0.0634   -0.4177    0.0172   -0.0085
          26    0.0529    0.1683    0.1199   -0.1128   -0.0867   -0.1024   -0.0168   -0.0370
          27   -0.0282    0.0370   -0.1039    0.0456   -0.0418   -0.0313    0.0437    0.0174
          28    0.0551   -0.0783    0.0441    0.0177    0.0867    0.0037   -0.0542   -0.0738
          29   -0.0347   -0.0301    0.0173   -0.0549    0.0247    0.0502   -0.0697   -0.0381
          30   -0.0248    0.0719   -0.0068   -0.0074   -0.0979   -0.1046    0.0762    0.0321
          31    0.1093   -0.0592    0.0362    0.0195    0.1466   -0.0294   -0.1096   -0.3035
          32   -0.0616   -0.1006    0.0124   -0.0700    0.0658    0.0833   -0.1332   -0.1053
          33   -0.0036    0.1240    0.0010    0.0001   -0.1260   -0.1312    0.1159    0.0672
          34    0.0696    0.0162   -0.0249    0.0240    0.0549   -0.0771   -0.0650    0.0176
          35   -0.0276    0.0046   -0.0078   -0.0549    0.0087    0.0053   -0.0601    0.0002
          36   -0.0862   -0.0460    0.0036   -0.0107   -0.0698   -0.0592    0.0619    0.0181
          37    0.1121    0.0734   -0.1445    0.0661    0.1012   -0.3284   -0.1926    0.0988
          38   -0.0598   -0.0670   -0.0377   -0.0510    0.0400   -0.0249   -0.1142    0.0164
          39   -0.1113   -0.0980    0.0003   -0.0134   -0.0587   -0.0507    0.0513    0.0200
          40    0.0118   -0.1351    0.1395    0.0125    0.0072    0.1795    0.1609    0.1286
          41    0.0211    0.0673    0.0609   -0.0597   -0.0339    0.0448    0.0320    0.0426
          42    0.0413    0.1720   -0.0169   -0.0316   -0.1082   -0.2542    0.0383   -0.0223
          43    0.0588    0.1362    0.0791   -0.0227   -0.0172    0.2274    0.0380   -0.0391
          44    0.0277    0.1289    0.0400   -0.0647   -0.0354    0.0537   -0.0299   -0.0134
          45   -0.1501   -0.2161   -0.0706    0.0089   -0.0157   -0.2521    0.0110    0.0597
          46   -0.0659   -0.0099   -0.1905   -0.0222    0.0704   -0.0009   -0.0316    0.0902
          47   -0.0715   -0.1469   -0.1284    0.0394    0.0543    0.0163   -0.0329    0.0933
          48   -0.0429   -0.0031    0.0564    0.0184    0.0281    0.0129   -0.0260   -0.0293
          49   -0.0352   -0.0125   -0.0386    0.0748   -0.0454    0.0367   -0.0992    0.0510
          50   -0.0223   -0.0947   -0.0737    0.0294    0.0959    0.0021   -0.0067    0.0621
          51   -0.1058   -0.0780    0.0007    0.0393   -0.0320    0.0365   -0.0589    0.0029
          52   -0.0847    0.0210   -0.2050   -0.0989    0.0075   -0.0145    0.0486   -0.0609
          53   -0.0939   -0.1225   -0.1461   -0.0445    0.0055    0.0031    0.0799   -0.1041
          54    0.0939    0.0081    0.0264    0.0524    0.2595   -0.0230    0.0108   -0.1057
          55   -0.0242    0.0224   -0.0207    0.2539   -0.1313   -0.0140   -0.0610   -0.0342
          56   -0.0075   -0.0886   -0.0491    0.1685    0.0279   -0.0179   -0.0246    0.0167
          57   -0.0856   -0.1163    0.0234   -0.0235   -0.0550    0.0997   -0.2491   -0.0481
          58   -0.0485    0.0543   -0.0496    0.2891   -0.1602   -0.0635    0.0308   -0.0324
          59    0.0123   -0.0543   -0.0481    0.2053   -0.0348   -0.0287   -0.0925   -0.1016
          60   -0.0667   -0.1349    0.0432   -0.0527   -0.0324    0.1357   -0.3141   -0.0502
          61   -0.2267    0.1185   -0.1600   -0.1339   -0.0249   -0.0242    0.1949   -0.3343
          62   -0.2891   -0.0543   -0.1106   -0.0354   -0.0256    0.0112    0.0771   -0.0625
          63    0.5300   -0.1432   -0.0469    0.0401    0.3240   -0.0385   -0.0013   -0.1686
          64    0.0263    0.0546    0.0334    0.3813   -0.1775   -0.0608    0.0148   -0.1477
          65   -0.0400   -0.1231   -0.0323    0.2561    0.0111   -0.0277    0.0264    0.0427
          66   -0.0555   -0.0810   -0.0028   -0.1404   -0.0334    0.1257   -0.3429   -0.0741
          67    0.0328   -0.0739   -0.2872   -0.1345   -0.0427   -0.0119    0.0288    0.0010
          68    0.1591   -0.1835   -0.1385   -0.0795   -0.1240    0.0001    0.1504   -0.2685
          69   -0.2889    0.2086    0.1472    0.1296    0.4471   -0.0270    0.0151   -0.1355
          70   -0.0382    0.0439   -0.1364   -0.0520    0.0283   -0.0120   -0.0447    0.1201
          71    0.0778   -0.0278    0.0877    0.0452   -0.0583    0.0071    0.0366   -0.0845
          72    0.0698    0.0277    0.0189    0.0285    0.0594   -0.0059   -0.0161    0.0017
          73   -0.1467    0.0388   -0.2035   -0.0776    0.1806   -0.0279    0.0604   -0.1166
          74    0.1182    0.0278    0.2135    0.1115   -0.1212    0.0206   -0.0881    0.1682
          75    0.1438   -0.0129   -0.0195    0.0005   -0.0392   -0.0012   -0.0248    0.0433
          76    0.1669   -0.0555   -0.2131   -0.1158   -0.2517    0.0045   -0.1020    0.3214
          77   -0.0591    0.0886    0.2107    0.1308    0.1206    0.0006    0.0042   -0.0795
          78    0.1608   -0.0198   -0.0183   -0.0016   -0.0641    0.0011   -0.0378    0.0820
          79   -0.1808    0.2326    0.0988    0.0955    0.2168   -0.0149   -0.1971    0.3741
          80    0.1388   -0.0875    0.0266    0.0053   -0.1402    0.0111    0.0619   -0.1160
          81    0.1228    0.0062    0.0209    0.0249   -0.0090    0.0000   -0.0476    0.0758
          82    0.0218    0.0603    0.0082    0.0026   -0.0475   -0.0105   -0.0129   -0.0731
          83   -0.0108   -0.0952   -0.0452    0.0621    0.1046   -0.0242    0.0811    0.1092
          84    0.0661    0.0345    0.0047   -0.0674    0.0262    0.0228   -0.0539   -0.0163
          85    0.0197    0.0585    0.0124    0.0770   -0.0810   -0.0187   -0.0218   -0.1054
          86   -0.0002   -0.0849   -0.0676   -0.2953    0.2667    0.0116    0.1315    0.2632
          87    0.0889    0.0568    0.0093   -0.0158    0.0348   -0.0120    0.0383   -0.0006
          88   -0.0078    0.0349   -0.0042   -0.1817   -0.0124    0.0517   -0.1444   -0.0709
          89    0.0712   -0.0186   -0.0418    0.2026    0.1352   -0.1293    0.3694    0.1869
          90    0.0861    0.0545    0.0014   -0.0862    0.0524    0.0072    0.0055    0.0155
          91    0.0588    0.1020   -0.0002   -0.1737    0.0532   -0.0309    0.1262    0.0139
          92   -0.0864   -0.1762   -0.0415    0.1443    0.0163    0.0371   -0.1525    0.0168
          93    0.1168    0.0876    0.0036   -0.0757    0.0702   -0.0228    0.1009    0.0393


   Root No.      17        18        19        20        21        22        23        24

                17 A      18 A      19 A      20 A      21 A      22 A      23 A      24 A   

                   0.3       0.4       0.5       0.5       0.5       0.6       0.6       0.7
  
           1   -0.0606    0.0037    0.0045   -0.0160   -0.0386    0.0118    0.0024    0.0388
           2   -0.0097    0.0299   -0.0425   -0.0504    0.0054    0.0139    0.0239   -0.0151
           3   -0.0434    0.1939    0.0390   -0.0225    0.0299    0.0240    0.0014   -0.0575
           4   -0.1090   -0.0818   -0.0529   -0.0639    0.0194    0.0153   -0.0114    0.0448
           5   -0.0420   -0.0047   -0.0054   -0.0180   -0.0085    0.0029    0.0158   -0.0239
           6    0.0603   -0.0234    0.0276    0.0089   -0.0729   -0.0309   -0.0197   -0.0036
           7   -0.0015   -0.0009    0.0046   -0.0142   -0.0684    0.0452    0.0126    0.0204
           8   -0.0191    0.0326    0.0095   -0.0092   -0.0258    0.0159    0.0018    0.0115
           9    0.0016   -0.0264   -0.0238   -0.0563    0.0031   -0.0596   -0.0248   -0.0098
          10   -0.0287    0.0126   -0.0015   -0.0206   -0.0289    0.0630    0.0064    0.0375
          11   -0.0026    0.0051   -0.0347   -0.0454    0.0062    0.0014    0.0153   -0.0184
          12    0.0626   -0.0351    0.0168    0.0113    0.0246   -0.0475   -0.0405    0.0055
          13   -0.0898    0.0090    0.2047    0.0875   -0.1964   -0.0130    0.3899   -0.0675
          14    0.0553   -0.0318   -0.1770   -0.1482    0.1283    0.0287   -0.3422    0.1479
          15   -0.0777    0.4172   -0.0649    0.0163    0.0317    0.0331    0.1197   -0.2470
          16    0.0036   -0.0338   -0.0359    0.0282    0.0520    0.1930    0.1656   -0.0295
          17    0.0559   -0.0322   -0.1565   -0.0626    0.1328    0.3120    0.4003   -0.2284
          18    0.1855   -0.3226    0.1001    0.5205    0.3893    0.0078    0.0542    0.0679
          19   -0.0301   -0.0273   -0.0184   -0.0388   -0.0430    0.0390    0.0202    0.0282
          20   -0.0488   -0.0045    0.0097    0.0095    0.0003    0.0138    0.0106    0.0064
          21    0.0168   -0.0150   -0.0001   -0.0316   -0.0314   -0.0575   -0.0336   -0.0148
          22   -0.0137   -0.0131    0.0087    0.0249   -0.1654    0.1356   -0.0320    0.0253
          23   -0.1985   -0.0894   -0.1461   -0.2761    0.4067   -0.2630    0.2652    0.0879
          24   -0.0816   -0.0277   -0.0555   -0.0522   -0.0650    0.0369    0.0418    0.0532
          25    0.0325   -0.0553   -0.0422   -0.1734    0.0117   -0.1435    0.0065    0.0036
          26    0.0475    0.0233    0.1734    0.3356   -0.3593    0.2584   -0.2329   -0.0245
          27    0.0214   -0.0242   -0.0025   -0.0421   -0.0400   -0.0745   -0.0407   -0.0188
          28    0.0884    0.0778    0.0065   -0.0260   -0.0055    0.0384    0.0292    0.0602
          29    0.0257    0.0797    0.0376   -0.0006   -0.0553    0.0030    0.0127   -0.0026
          30    0.0024   -0.0602   -0.0076   -0.0233   -0.0325   -0.0289   -0.0362    0.0005
          31    0.6265    0.0547   -0.1701    0.0289    0.2367   -0.0447   -0.1192   -0.2292
          32    0.1340    0.1695    0.1094    0.0596   -0.0675   -0.0250    0.1246    0.2781
          33   -0.0527   -0.1208   -0.0626   -0.0771   -0.0230   -0.0106   -0.1330   -0.2260
          34   -0.0923    0.0415    0.0007   -0.0258   -0.0278    0.0450    0.0154    0.0387
          35   -0.0328    0.0257    0.0218    0.0072   -0.0682    0.0101    0.0101    0.0031
          36    0.0226   -0.0252    0.0090   -0.0149   -0.0149   -0.0662   -0.0365    0.0092
          37   -0.3896    0.0833    0.1756    0.3995    0.3924   -0.0274   -0.0569   -0.0024
          38   -0.1093    0.0975    0.1709    0.1521   -0.0783   -0.2368   -0.1247   -0.2179
          39    0.0151    0.0037    0.0751    0.0170   -0.0711   -0.2188   -0.1192   -0.1240
          40   -0.2158   -0.0911   -0.0862   -0.1118    0.0835    0.1416   -0.3853   -0.1628
          41   -0.0952   -0.0403   -0.0081   -0.0370   -0.0045    0.0351   -0.1088   -0.0374
          42    0.1036   -0.1137    0.0808    0.0362   -0.1892   -0.1675    0.2894    0.3609
          43    0.0565    0.0696    0.1122   -0.1945   -0.1476   -0.4180   -0.0792    0.0396
          44   -0.0182    0.0537    0.0564    0.0058    0.0075   -0.0793   -0.0143   -0.0009
          45   -0.0246   -0.1285   -0.2457   -0.1000   -0.1409    0.4399    0.0624    0.0488
          46    0.0247   -0.0962   -0.2662    0.1630   -0.0978   -0.1179   -0.0098    0.0692
          47    0.0190   -0.0904   -0.3087    0.1952   -0.1314   -0.1632    0.0408   -0.0721
          48    0.0047    0.3030    0.1385   -0.0993    0.1209    0.1090    0.0186   -0.0522
          49   -0.0325    0.0299   -0.2377    0.1094   -0.0236   -0.0285   -0.0540    0.2135
          50   -0.0021   -0.0455   -0.1370    0.0721   -0.0631   -0.0655    0.0363   -0.0617
          51    0.0399    0.2700   -0.0613    0.0356    0.0439    0.0033    0.0194   -0.0388
          52   -0.0089   -0.0496   -0.0025    0.0039   -0.0093   -0.0100   -0.0163    0.0383
          53   -0.0282   -0.0269   -0.0838    0.0546   -0.0545   -0.0717    0.0418   -0.1159
          54   -0.0400    0.0451    0.0612   -0.0350    0.0308    0.0319    0.0148   -0.0551
          55   -0.0089    0.0509   -0.1124    0.0562    0.0065    0.0030   -0.0512    0.1683
          56    0.0267   -0.1108    0.0374   -0.0147   -0.0107   -0.0034   -0.0020   -0.0151
          57   -0.0110    0.0483    0.0416   -0.0281    0.0589    0.0510   -0.0326    0.1091
          58    0.0260    0.1924   -0.0818    0.0596    0.0231    0.0039   -0.0105    0.1457
          59    0.0110   -0.3772    0.3206   -0.1551   -0.0237    0.0163    0.0478   -0.2459
          60   -0.0361   -0.0543    0.0197   -0.0321    0.0487    0.0508   -0.0629    0.1258
          61   -0.1006    0.0263    0.2405   -0.1524    0.1116    0.1427   -0.0724    0.1695
          62   -0.0063    0.0446   -0.0534    0.0505   -0.0171   -0.0549    0.0549   -0.1541
          63   -0.0835   -0.1131   -0.0355   -0.0076   -0.0623   -0.0178   -0.0063    0.0136
          64   -0.0080   -0.0092    0.0387   -0.0128   -0.0091   -0.0052    0.0168   -0.0353
          65    0.0735    0.0063    0.0820   -0.0406    0.0391    0.0376   -0.0237    0.0580
          66   -0.0616   -0.1220    0.0242   -0.0242    0.0195    0.0249   -0.0307    0.0630
          67    0.0450   -0.0046    0.0568   -0.0237    0.0093    0.0063    0.0136   -0.0419
          68   -0.1011    0.0399   -0.0256    0.0106    0.0028   -0.0019    0.0004   -0.0068
          69   -0.0845   -0.0661   -0.0346    0.0083   -0.0312   -0.0200    0.0033   -0.0150
          70    0.0806   -0.0303    0.0743   -0.0326    0.0092    0.0098    0.0132   -0.0435
          71   -0.0507    0.0270   -0.0469    0.0225   -0.0013   -0.0052   -0.0056    0.0195
          72   -0.0106   -0.0215   -0.0124    0.0026   -0.0144   -0.0086    0.0012   -0.0017
          73   -0.0121   -0.0478    0.0693   -0.0377    0.0003    0.0070    0.0176   -0.0654
          74    0.0427    0.0253   -0.0499    0.0319    0.0003   -0.0083   -0.0063    0.0323
          75    0.0116   -0.0061   -0.0030   -0.0006   -0.0091   -0.0060    0.0012   -0.0024
          76    0.1951    0.0100    0.1727   -0.0700    0.0493    0.0387    0.0346   -0.1076
          77   -0.0756   -0.0171   -0.1153    0.0563   -0.0335   -0.0356   -0.0111    0.0383
          78    0.0360   -0.0021    0.0285   -0.0137    0.0023    0.0040    0.0100   -0.0281
          79    0.1645   -0.1175    0.1010   -0.0456   -0.0226   -0.0089    0.0265   -0.0895
          80   -0.0565    0.0547   -0.0546    0.0278    0.0071   -0.0027   -0.0066    0.0245
          81    0.0234   -0.0140   -0.0087    0.0024   -0.0150   -0.0116    0.0058   -0.0149
          82   -0.0281   -0.0069   -0.0114    0.0093   -0.0206   -0.0187    0.0235   -0.0511
          83    0.0838    0.0178    0.0832   -0.0442    0.0451    0.0444   -0.0329    0.0735
          84   -0.0155   -0.0354    0.0024   -0.0080    0.0023    0.0047   -0.0096    0.0122
          85   -0.0317   -0.0191   -0.0018    0.0074   -0.0284   -0.0260    0.0365   -0.0843
          86    0.1026    0.0853    0.0339   -0.0317    0.0792    0.0755   -0.0891    0.2238
          87    0.0056    0.0153    0.0011   -0.0066    0.0056    0.0071   -0.0096    0.0217
          88   -0.0700   -0.0758   -0.0535    0.0237   -0.0297   -0.0277    0.0151   -0.0298
          89    0.1667    0.1817    0.1206   -0.0544    0.0690    0.0637   -0.0308    0.0915
          90   -0.0006    0.0017   -0.0022   -0.0057    0.0085    0.0092   -0.0137    0.0312
          91   -0.0114    0.0988   -0.0963    0.0583   -0.0424   -0.0498    0.0525   -0.1019
          92    0.0527   -0.1285    0.1791   -0.1032    0.0728    0.0838   -0.0715    0.1444
          93    0.0103    0.0595   -0.0452    0.0217   -0.0071   -0.0117    0.0065   -0.0129


   Root No.      25        26        27        28        29        30        31        32

                25 A      26 A      27 A      28 A      29 A      30 A      31 A      32 A   

                   0.7       0.7       0.8       0.8       0.9       0.9       0.9       1.0
  
           1   -0.0253   -0.0169   -0.1033    0.0454    0.0065   -0.0050   -0.0188   -0.0460
           2   -0.0121   -0.0347   -0.0461    0.0162    0.0001    0.0386   -0.1511    0.0480
           3   -0.0676   -0.0093   -0.0069    0.0120   -0.0080    0.0125   -0.0006   -0.0097
           4   -0.0181   -0.0160   -0.0769    0.0132   -0.0053   -0.0189    0.0663   -0.0304
           5    0.0230   -0.0091   -0.0208   -0.0006   -0.0018    0.0354   -0.1357    0.0846
           6   -0.0065   -0.0158    0.0395   -0.1054    0.0024   -0.0042    0.0013   -0.0380
           7   -0.0100    0.0057   -0.0983    0.0466   -0.0010   -0.0014    0.0217   -0.0095
           8   -0.0262   -0.0163   -0.0287    0.0160    0.0130    0.0315   -0.1783    0.0051
           9   -0.0067    0.0063    0.0562   -0.1121   -0.0031   -0.0020   -0.0004   -0.0169
          10   -0.0356    0.0112   -0.1326    0.0703    0.0135   -0.0114    0.0384   -0.0727
          11    0.0025   -0.0323    0.0285   -0.0169    0.0003    0.0324   -0.1554    0.0458
          12   -0.0326    0.0005    0.0138   -0.0624   -0.0005   -0.0048    0.0157   -0.0265
          13    0.2027   -0.0890    0.1264   -0.1088    0.0801    0.0380   -0.2674   -0.0833
          14   -0.2002    0.0220   -0.2325    0.0784    0.0400   -0.0224    0.0136   -0.1394
          15   -0.1517   -0.0007   -0.0372    0.1457   -0.2927    0.0825    0.1147    0.5307
          16    0.0642    0.0943   -0.0604    0.0387    0.0107   -0.0483    0.1874   -0.1266
          17    0.2805    0.1982    0.2812   -0.1762   -0.0139   -0.0597    0.2113   -0.0536
          18   -0.0698   -0.0665   -0.0266    0.0955   -0.0019    0.0223   -0.0773    0.0359
          19   -0.0142   -0.0054   -0.1642    0.0290   -0.0106    0.0048    0.0312    0.0360
          20   -0.0040   -0.0162   -0.0494    0.0075   -0.0011    0.0159   -0.0613    0.0340
          21    0.0023   -0.0059    0.0501   -0.1964   -0.0032   -0.0053    0.0141   -0.0234
          22   -0.0280    0.0767   -0.2534    0.0069   -0.0212    0.0347   -0.0549    0.1340
          23    0.0280   -0.3294   -0.0901    0.0979   -0.0134   -0.0617    0.3385   -0.0567
          24   -0.0171   -0.0083   -0.2814   -0.1676   -0.0476    0.0259    0.0725    0.2122
          25   -0.0138    0.0762   -0.1424   -0.3793   -0.0394    0.0369   -0.0047    0.2008
          26    0.0253   -0.3597    0.0243   -0.0911   -0.0297   -0.0717    0.4098   -0.0171
          27    0.0028   -0.0050    0.0556   -0.2705   -0.0118   -0.0032    0.0289    0.0027
          28   -0.0401    0.0099   -0.0975    0.0505    0.0347   -0.0214    0.0324   -0.1348
          29   -0.0093   -0.0373   -0.0221   -0.0302    0.0181    0.0277   -0.1555   -0.0018
          30   -0.0205   -0.0309    0.0551   -0.1303   -0.0051   -0.0020   -0.0204   -0.0233
          31    0.0830   -0.0353    0.0362    0.0860   -0.0489    0.0316   -0.0414    0.1403
          32   -0.3630    0.0750    0.1590   -0.2453   -0.0435   -0.0216    0.1420    0.0002
          33    0.2564   -0.1267   -0.0794    0.0147    0.0469    0.0386   -0.2949   -0.0386
          34   -0.0294    0.0111   -0.0878    0.0167    0.0146   -0.0157    0.0418   -0.0895
          35    0.0087   -0.0325   -0.0274    0.0234    0.0110    0.0293   -0.1588    0.0226
          36   -0.0217    0.0083    0.0563   -0.1067   -0.0073   -0.0105    0.0323   -0.0282
          37   -0.1215   -0.0755    0.1268   -0.0472   -0.0122    0.0215   -0.0663    0.0733
          38    0.3690    0.1759   -0.1767    0.3062   -0.0050   -0.0355    0.1580   -0.0149
          39    0.2142    0.1527   -0.0548    0.0598   -0.0160   -0.0622    0.2730   -0.0852
          40   -0.1451    0.3179    0.3798   -0.0008    0.0086   -0.0221    0.1097   -0.0627
          41   -0.0757    0.3144    0.2539    0.1476   -0.0015    0.0380   -0.1313    0.1158
          42   -0.0990    0.3926    0.0417    0.3931   -0.0208   -0.0128    0.0409    0.0447
          43   -0.0181   -0.3705    0.4643    0.1860   -0.0006   -0.0029    0.0060    0.0490
          44   -0.0120    0.0611   -0.0678   -0.0955    0.0126    0.0318   -0.1963   -0.0125
          45   -0.0826   -0.3173    0.1474    0.3796    0.0074    0.0198   -0.0620    0.0550
          46    0.0597    0.0155    0.0482   -0.0449   -0.1043    0.0276    0.0317    0.0726
          47   -0.0756    0.0134    0.0175   -0.0281   -0.0443    0.0556    0.0324   -0.0550
          48   -0.0638   -0.0163   -0.0523    0.0604    0.1238   -0.0061   -0.0963   -0.1873
          49    0.1817   -0.0081    0.0443   -0.0329   -0.0722   -0.0631   -0.0806    0.0581
          50   -0.0597   -0.0148   -0.0142   -0.0015   -0.0144    0.0504   -0.0510   -0.0427
          51   -0.0561    0.0197   -0.0121    0.0200    0.0716   -0.0040    0.0024   -0.1923
          52    0.0396    0.0028    0.0168   -0.0143   -0.0926    0.0398    0.0126    0.0244
          53   -0.1133    0.0023   -0.0165   -0.0032   -0.0213    0.0916    0.0088   -0.1627
          54   -0.0597   -0.0073   -0.0281    0.0303    0.0179    0.0500   -0.0353   -0.1415
          55    0.1544   -0.0002    0.0485   -0.0324   -0.0578   -0.1049   -0.0663    0.0211
          56   -0.0069   -0.0078   -0.0030   -0.0043   -0.0462   -0.0324   -0.0265    0.0045
          57    0.0847    0.0103    0.0122    0.0011   -0.0278   -0.1431   -0.0278   -0.1158
          58    0.1109    0.0127    0.0269   -0.0070    0.0762   -0.0046   -0.0062   -0.1105
          59   -0.2057   -0.0165   -0.0624    0.0275   -0.2562   -0.2351   -0.0084    0.0972
          60    0.1160    0.0031    0.0273   -0.0156   -0.1170   -0.2117   -0.0727   -0.0277
          61    0.1774   -0.0080    0.0240    0.0106   -0.3343    0.1608   -0.0092    0.0423
          62   -0.1570   -0.0032   -0.0339    0.0209    0.0788    0.0626   -0.0208   -0.2116
          63    0.0220    0.0062    0.0088   -0.0219   -0.1630    0.0947    0.0311   -0.0426
          64   -0.0302    0.0026   -0.0014    0.0010   -0.0219   -0.0462   -0.0326    0.0226
          65    0.0462    0.0040    0.0080   -0.0024   -0.0266   -0.0602   -0.0278   -0.0137
          66    0.0608    0.0013    0.0108   -0.0048   -0.0358   -0.0859   -0.0187   -0.0577
          67   -0.0365   -0.0009   -0.0075    0.0034   -0.0191    0.0335    0.0007   -0.0483
          68   -0.0092    0.0010   -0.0032    0.0016   -0.0282    0.0408    0.0055   -0.0589
          69   -0.0162    0.0014   -0.0039    0.0008   -0.0152    0.0373   -0.0115   -0.0825
          70   -0.0353   -0.0009   -0.0076    0.0045    0.0476   -0.0261   -0.0001    0.0029
          71    0.0150    0.0021    0.0043   -0.0017    0.0461   -0.0380    0.0004    0.0196
          72   -0.0030    0.0025    0.0002   -0.0035    0.0344   -0.0300    0.0056    0.0161
          73   -0.0581    0.0042   -0.0147    0.0037    0.4108   -0.3146    0.0109    0.1823
          74    0.0292   -0.0029    0.0099    0.0006   -0.2602    0.2160   -0.0229   -0.1651
          75   -0.0032    0.0018    0.0001   -0.0040   -0.0361    0.0221    0.0147   -0.0012
          76   -0.0915   -0.0082   -0.0253    0.0255    0.1214   -0.0393   -0.0266   -0.0453
          77    0.0294    0.0080    0.0133   -0.0155    0.2369   -0.2274    0.0179    0.2073
          78   -0.0262   -0.0004   -0.0074    0.0053    0.0552   -0.0266   -0.0050   -0.0128
          79   -0.0748   -0.0029   -0.0165    0.0006   -0.1159    0.1063    0.0280   -0.0697
          80    0.0174    0.0031    0.0052   -0.0012    0.1721   -0.1436   -0.0024    0.1007
          81   -0.0169    0.0039   -0.0023   -0.0057    0.1927   -0.1718    0.0195    0.1535
          82   -0.0474    0.0014   -0.0082    0.0052    0.0251    0.0353    0.0101   -0.0082
          83    0.0605    0.0045    0.0093   -0.0020    0.0186    0.0177    0.0110    0.0110
          84    0.0160    0.0001    0.0041   -0.0024    0.0378    0.0527    0.0058    0.0095
          85   -0.0803    0.0037   -0.0147    0.0110    0.0592    0.0859    0.0318   -0.0312
          86    0.2077   -0.0039    0.0400   -0.0273   -0.1126   -0.1798   -0.0744    0.1143
          87    0.0255    0.0026    0.0098   -0.0047    0.2047    0.3115    0.0730    0.0942
          88   -0.0133   -0.0045   -0.0005   -0.0021    0.1930    0.3103    0.0603    0.0702
          89    0.0526    0.0171    0.0076    0.0075    0.0123   -0.0084    0.0752   -0.0346
          90    0.0308    0.0025    0.0079   -0.0026    0.1051    0.1556    0.0487    0.0268
          91   -0.1073   -0.0036   -0.0291    0.0151   -0.1447   -0.2214   -0.0459   -0.1610
          92    0.1350    0.0144    0.0328   -0.0085    0.2601    0.3822    0.1337    0.1293
          93   -0.0104   -0.0052   -0.0043   -0.0017   -0.0867   -0.1396   -0.0714   -0.0300


   Root No.      33        34        35        36        37        38        39        40

                33 A      34 A      35 A      36 A      37 A      38 A      39 A      40 A   

                   1.1       1.1       1.1       1.3       1.5       1.6       1.7       1.7
  
           1   -0.0952   -0.0893   -0.0616   -0.0237    0.0505   -0.0080   -0.0111   -0.0035
           2   -0.0180   -0.0084   -0.0114    0.0344    0.0927   -0.0129   -0.0303   -0.0064
           3   -0.0407   -0.0168    0.0036    0.0909   -0.1122    0.0418    0.0207    0.0035
           4   -0.0452   -0.0722   -0.0509    0.1288    0.1611   -0.0485   -0.0501   -0.0437
           5    0.0438    0.0784    0.0365   -0.0112   -0.0685    0.0071    0.0217    0.0150
           6   -0.0619   -0.0606   -0.0411    0.0007    0.0012    0.0029   -0.0075   -0.0099
           7   -0.0263   -0.0280   -0.0166    0.0103   -0.0345   -0.0001    0.0060    0.0142
           8   -0.0957   -0.0440   -0.0479    0.0159   -0.0850   -0.0035    0.0251    0.0242
           9   -0.0508   -0.0522   -0.0392    0.0339   -0.0066   -0.0099    0.0076    0.0193
          10   -0.0896   -0.0853   -0.0477   -0.1209   -0.1024    0.0139    0.0290    0.0380
          11   -0.0295   -0.0003   -0.0174    0.0553    0.0397   -0.0172   -0.0154   -0.0027
          12   -0.0644   -0.0551   -0.0336    0.2454   -0.0805    0.0117    0.0306    0.0353
          13   -0.0411   -0.0157   -0.0026    0.0903    0.0337    0.0316   -0.0056    0.0212
          14   -0.0727   -0.0798   -0.0315    0.0011    0.0568    0.0214   -0.0172   -0.0120
          15   -0.1637   -0.1301   -0.1674   -0.1336    0.0457   -0.1251   -0.0569   -0.0670
          16   -0.0742   -0.0935   -0.0422   -0.2156   -0.1273    0.0244    0.0410    0.0416
          17    0.0338    0.0119    0.0162    0.0831    0.0585   -0.0016   -0.0128   -0.0219
          18    0.0071    0.0252    0.0174   -0.2182    0.0324   -0.0148   -0.0185   -0.0286
          19    0.0260    0.0213    0.0139    0.2268   -0.0050   -0.0048   -0.0055   -0.0068
          20   -0.0036    0.0219    0.0049    0.0479   -0.0630    0.0035    0.0183    0.0113
          21   -0.0381   -0.0468   -0.0353   -0.2275    0.0222   -0.0078   -0.0050    0.0072
          22    0.1095    0.1206    0.0691    0.3542   -0.0259   -0.0048   -0.0009   -0.0150
          23    0.0447    0.0024    0.0260    0.0490   -0.0400    0.0104    0.0054    0.0078
          24    0.2855    0.2707    0.1730    0.0199   -0.0315    0.0189    0.0104   -0.0027
          25    0.2497    0.2458    0.1467   -0.2415   -0.0358    0.0136    0.0090   -0.0019
          26    0.1114    0.0385    0.0481   -0.0437    0.0279   -0.0010   -0.0039    0.0083
          27   -0.0061   -0.0191   -0.0211   -0.3456    0.0237   -0.0074   -0.0044    0.0146
          28   -0.0796   -0.0850   -0.0389   -0.2675   -0.0099    0.0177   -0.0034   -0.0186
          29   -0.0533   -0.0009   -0.0199   -0.1181   -0.0624    0.0059    0.0031   -0.0265
          30   -0.0792   -0.0770   -0.0623    0.1664    0.0783   -0.0269   -0.0323   -0.0398
          31    0.0490    0.0553    0.0280    0.1614    0.0022   -0.0081    0.0014    0.0053
          32   -0.0427   -0.0717   -0.0455    0.1433    0.0663   -0.0175   -0.0304   -0.0444
          33   -0.1165   -0.0354   -0.0596    0.0034   -0.0021   -0.0123   -0.0188   -0.0596
          34   -0.1043   -0.1104   -0.0683   -0.1890   -0.0475   -0.0004    0.0101    0.0270
          35   -0.0470   -0.0039   -0.0248   -0.0862   -0.0265   -0.0116   -0.0026   -0.0163
          36   -0.0658   -0.0731   -0.0496    0.1924    0.0036   -0.0140    0.0065    0.0160
          37    0.0457    0.0709    0.0414    0.1770   -0.0402    0.0104    0.0129    0.0022
          38    0.0764    0.0498    0.0457   -0.1103    0.0343    0.0068   -0.0157   -0.0267
          39   -0.0191   -0.0854   -0.0306    0.2128    0.0497   -0.0064    0.0030    0.0308
          40    0.0190   -0.0165    0.0065   -0.0063    0.0662   -0.0081   -0.0305   -0.0288
          41    0.1466    0.1781    0.1132   -0.1131   -0.1640    0.0425    0.0577    0.0467
          42    0.0673    0.0228    0.0267   -0.0022    0.0829   -0.0172   -0.0201   -0.0220
          43    0.0853    0.0915    0.0527   -0.0569   -0.0259    0.0066    0.0093   -0.0031
          44   -0.1519   -0.0930   -0.0866    0.0360   -0.1112   -0.0126    0.0364    0.0413
          45    0.0598    0.0799    0.0522   -0.0113   -0.0530    0.0109    0.0160    0.0130
          46   -0.0625   -0.0048   -0.1376    0.0233   -0.1057    0.2155    0.1234    0.3239
          47   -0.0203   -0.0049   -0.0371    0.0198   -0.1528    0.0854   -0.0067    0.0045
          48    0.1650    0.0332    0.1323   -0.0369    0.3778    0.1338    0.0150    0.1701
          49    0.0113    0.0035   -0.0666   -0.0387    0.4022   -0.0503   -0.0048   -0.0242
          50    0.0572   -0.0165   -0.0119   -0.0330    0.3368    0.0158   -0.0858   -0.0004
          51    0.0509    0.0366    0.0929    0.0214   -0.2131    0.2084    0.1028    0.1396
          52   -0.0509    0.0072   -0.0104    0.0119   -0.0610    0.0773    0.0408    0.0989
          53    0.0172   -0.0000    0.1064    0.0091   -0.0647   -0.0592   -0.1035   -0.2326
          54    0.1617    0.0085   -0.0037   -0.0188    0.1455    0.0752   -0.0125    0.1215
          55    0.0498   -0.0405    0.0132   -0.0177    0.1478   -0.0747    0.0308   -0.1128
          56    0.0450   -0.0352    0.0092   -0.0119    0.1186   -0.0241   -0.0488   -0.0691
          57   -0.0308    0.1308    0.0323    0.0115   -0.2123    0.0238    0.0812   -0.1076
          58    0.0094    0.0634    0.0678    0.0090   -0.1913   -0.0485   -0.0155   -0.1134
          59   -0.0424   -0.0580   -0.0779    0.0143    0.0744    0.1823    0.2261    0.1138
          60    0.0018    0.0617   -0.0025   -0.0067    0.0236    0.0086    0.1163   -0.1025
          61   -0.0418   -0.0081   -0.0443   -0.0033    0.0113    0.1649   -0.1303   -0.0915
          62    0.1114    0.0078    0.1131   -0.0019    0.0486   -0.0433   -0.0615   -0.0987
          63   -0.0365   -0.0033   -0.0072    0.0071   -0.1095    0.0161   -0.0880   -0.1671
          64    0.1402   -0.2566    0.1281    0.0031   -0.0931   -0.0380   -0.0225   -0.0135
          65    0.0700   -0.0931    0.0677   -0.0004   -0.0175    0.0197    0.0286   -0.0962
          66   -0.0874    0.2212   -0.0653   -0.0003   -0.0368   -0.0429   -0.0312   -0.0188
          67   -0.0538    0.0056    0.1303   -0.0013    0.0355    0.0909   -0.0048    0.0517
          68   -0.0682    0.0061    0.1840   -0.0008    0.0074   -0.1395    0.0032   -0.1450
          69    0.2252   -0.0051   -0.2732    0.0050   -0.0413   -0.0289    0.0012    0.0607
          70   -0.0006    0.0008    0.0180    0.0003    0.0283   -0.0097    0.0899    0.1945
          71   -0.0040   -0.0002    0.0173   -0.0011    0.0258   -0.2487    0.1690    0.1217
          72    0.0085   -0.0014   -0.0371    0.0021   -0.0564   -0.1821    0.1012   -0.0718
          73    0.0402   -0.0149   -0.1315    0.0007   -0.0633   -0.3465    0.1649   -0.0540
          74    0.2066    0.0036   -0.2313    0.0058   -0.0378   -0.0196    0.0885    0.0753
          75   -0.2079    0.0113    0.3245   -0.0033    0.0883   -0.1491    0.1917    0.2924
          76    0.2825   -0.0163   -0.3208    0.0004   -0.0197    0.1309   -0.1873   -0.1346
          77   -0.1078   -0.0028   -0.0144    0.0000   -0.0291    0.3366   -0.2024   -0.1505
          78    0.1229   -0.0082   -0.1664    0.0022   -0.0853   -0.2279    0.0417   -0.2277
          79   -0.2423    0.0056    0.4083   -0.0032    0.0000   -0.1762   -0.0244   -0.1893
          80   -0.0165   -0.0018   -0.0029   -0.0036    0.0858   -0.0117    0.0907    0.2781
          81   -0.1863   -0.0011    0.1693   -0.0048    0.0364    0.3958   -0.2614   -0.0914
          82    0.0096   -0.0277    0.0179    0.0002   -0.0994   -0.0388   -0.1350    0.1362
          83    0.0011   -0.0063    0.0081    0.0019   -0.0346   -0.0129   -0.0900    0.0374
          84   -0.0059    0.0217   -0.0112   -0.0014    0.0093   -0.1379   -0.2635    0.1390
          85   -0.0308    0.0492   -0.0103   -0.0012   -0.1118   -0.0504   -0.2088    0.1868
          86    0.1755   -0.3531    0.1376    0.0082   -0.0926   -0.0335    0.0119    0.0342
          87    0.0488   -0.1852    0.0412   -0.0019    0.0079    0.1886    0.3365   -0.1595
          88    0.0407   -0.1228    0.0157   -0.0047    0.1330    0.1623    0.3223   -0.2231
          89   -0.2495    0.3812   -0.1764    0.0059   -0.0116    0.0856    0.2316   -0.0808
          90   -0.0844    0.1256   -0.0802   -0.0020    0.1161   -0.0622   -0.0303   -0.0117
          91   -0.1296    0.3468   -0.1071   -0.0063    0.1279   -0.0440   -0.0505   -0.0639
          92   -0.1177    0.0942   -0.0971    0.0041   -0.0123   -0.1525   -0.2903    0.2108
          93    0.1411   -0.1930    0.1214   -0.0007   -0.1037   -0.0636   -0.2321    0.1248


   Root No.      41        42        43        44        45        46        47        48

                41 A      42 A      43 A      44 A      45 A      46 A      47 A      48 A   

                   1.8       1.9       1.9       2.1       2.2       2.3       2.3       2.5
  
           1    0.0247   -0.0211   -0.0323    0.2919   -0.0115   -0.0104   -0.1232   -0.0144
           2    0.0200   -0.0314   -0.0337    0.1942    0.0539   -0.0158   -0.1709    0.0515
           3    0.0523    0.0890   -0.0151    0.0323    0.1040    0.0359   -0.2171   -0.0501
           4    0.1228    0.0101    0.0099    0.1521   -0.0937   -0.0198    0.0663    0.0688
           5   -0.0758   -0.0399   -0.0064    0.0621    0.0866   -0.2470    0.0917    0.0083
           6    0.0874    0.0861    0.0163   -0.1338    0.0842    0.0058   -0.1243   -0.0154
           7   -0.0635   -0.0159    0.0095   -0.1701    0.1242   -0.0873   -0.1557    0.0306
           8   -0.1560   -0.0938    0.0029   -0.0727   -0.1190    0.2180   -0.0457   -0.0057
           9   -0.1266   -0.0937   -0.0067    0.0697   -0.0503   -0.0680    0.2045    0.0093
          10   -0.1402   -0.0437    0.0028   -0.1657    0.0665    0.0002   -0.1274   -0.0119
          11   -0.0326   -0.0549   -0.0141    0.0798    0.0179    0.0412   -0.1884    0.0584
          12   -0.1541   -0.0734   -0.0151    0.0435    0.0248   -0.0184   -0.0470   -0.0353
          13    0.0367    0.0104   -0.0556    0.2577    0.0745    0.0350   -0.2581   -0.0116
          14    0.1371    0.0627   -0.0479    0.3822    0.0512   -0.0194   -0.1655   -0.0268
          15    0.0282   -0.0122    0.0521    0.0689   -0.0745   -0.0299    0.0213    0.0799
          16   -0.1328   -0.0129    0.0166   -0.2828    0.0778   -0.0122   -0.0652   -0.0662
          17    0.1031    0.0356   -0.0066    0.1651   -0.0871    0.0232    0.1169   -0.0043
          18    0.0612    0.0175    0.0031    0.0337   -0.0337    0.0303    0.0452    0.0214
          19    0.0275    0.0309    0.0166   -0.0534    0.0987   -0.2157    0.0871    0.0317
          20   -0.0667   -0.0327    0.0017    0.0072   -0.0019   -0.0556    0.0585   -0.0057
          21   -0.0339   -0.0294   -0.0090    0.0447    0.1160   -0.2082   -0.0538    0.0424
          22    0.0414    0.0413    0.0275   -0.0699    0.0644   -0.2381    0.2182    0.0319
          23   -0.0066    0.0268    0.0128   -0.1387    0.0628   -0.0512   -0.0016    0.0062
          24    0.0216    0.0120   -0.0045    0.0075   -0.1234    0.2564   -0.0229   -0.0465
          25    0.0173    0.0071   -0.0062    0.0291   -0.0971    0.2229   -0.0738   -0.0298
          26   -0.0409   -0.0394   -0.0112    0.0461   -0.0389    0.0438    0.0185    0.0048
          27   -0.0519   -0.0467   -0.0179    0.0857    0.1770   -0.2983   -0.1375    0.0713
          28    0.1028    0.0551   -0.0068    0.2664   -0.1801    0.0473    0.4395   -0.0384
          29    0.1625    0.1359    0.0359   -0.0389   -0.0487   -0.0430    0.2534   -0.0289
          30    0.1696    0.1154    0.0423   -0.2163    0.0319    0.0348   -0.0828    0.0120
          31   -0.0493   -0.0298    0.0004   -0.0683    0.0339    0.0111   -0.1172    0.0139
          32    0.2211    0.1665    0.0459   -0.2200    0.0563   -0.0106   -0.0324   -0.0124
          33    0.2920    0.2163    0.0680   -0.2126   -0.0392    0.0105    0.1907   -0.0408
          34   -0.1187   -0.0578    0.0100   -0.1381   -0.0210    0.0328    0.0831    0.0307
          35    0.0795    0.0683    0.0359   -0.1581   -0.0355    0.0153    0.0885    0.0158
          36   -0.1468   -0.1087   -0.0030    0.0167   -0.0702    0.0052    0.1752   -0.0025
          37   -0.0137   -0.0043   -0.0059    0.0589   -0.0073   -0.0076    0.0193   -0.0241
          38    0.1845    0.1289    0.0108   -0.0618    0.0503    0.0439   -0.1970    0.0067
          39   -0.2183   -0.1765   -0.0333    0.1214   -0.0526    0.0232    0.1098   -0.0119
          40    0.1255    0.0728    0.0162   -0.0699   -0.0743    0.2220   -0.0867    0.0285
          41   -0.1826   -0.0737   -0.0175   -0.0197    0.1550   -0.2911    0.1099   -0.0412
          42    0.0678    0.0221    0.0042    0.0292   -0.0653    0.0939   -0.0218    0.0102
          43    0.0184    0.0114    0.0038    0.0290   -0.0599    0.0308    0.1063   -0.0200
          44   -0.2762   -0.1756    0.0066   -0.1185   -0.2260    0.3495    0.0113    0.0004
          45   -0.0627   -0.0372   -0.0108    0.0021   -0.0302    0.1069   -0.1041   -0.0068
          46    0.0633    0.1033   -0.1254    0.0260    0.0746    0.0563    0.0428   -0.1136
          47    0.0101    0.0537    0.0388    0.0576    0.1685    0.0947    0.0451   -0.1608
          48   -0.0111   -0.0725   -0.2116   -0.0952    0.0484    0.0244    0.0549   -0.1082
          49   -0.0139   -0.1713   -0.0244   -0.0958   -0.0248   -0.0436    0.0018   -0.1409
          50   -0.0135   -0.1324   -0.0370   -0.0635    0.1205    0.0562    0.0489   -0.0791
          51    0.0123    0.1436   -0.1081    0.0812    0.1480    0.0931    0.0827   -0.2230
          52    0.0342    0.0356   -0.0966   -0.0039   -0.1510   -0.0665   -0.0637    0.1556
          53   -0.0341   -0.0274    0.0728   -0.0001   -0.1644   -0.0982   -0.0664    0.0419
          54   -0.0327    0.0027    0.0285   -0.0833   -0.0792   -0.0502    0.0240   -0.0057
          55   -0.0885   -0.0144    0.0536   -0.0852   -0.0505   -0.0678   -0.0201   -0.0753
          56   -0.0632   -0.0362    0.0384   -0.0324    0.1565    0.0842    0.0596    0.1147
          57    0.0726   -0.0087    0.0715    0.0592   -0.0253    0.0170   -0.0170    0.1644
          58    0.0159    0.0225    0.0779    0.0340   -0.0271    0.0030   -0.0263    0.1316
          59    0.0268    0.0363   -0.1022    0.0174   -0.0363   -0.0207   -0.0072   -0.1497
          60   -0.0043   -0.0350    0.0509   -0.0194   -0.0476   -0.0388   -0.0206    0.0089
          61   -0.0215   -0.0182    0.0357    0.0385    0.2624    0.1389    0.0755   -0.1284
          62   -0.0446   -0.0229    0.0483   -0.0603   -0.2210   -0.1333   -0.0562    0.0468
          63   -0.0113   -0.0060    0.0845    0.0411   -0.0125   -0.0057   -0.0249   -0.0032
          64   -0.1354    0.2916   -0.0254    0.0424   -0.1385   -0.0569   -0.0555   -0.0626
          65   -0.0691    0.0827    0.0280    0.0270    0.1706    0.1199    0.0772    0.2528
          66    0.0934   -0.1722    0.0594   -0.0193   -0.0670   -0.0535   -0.0514   -0.0112
          67    0.0119    0.0096   -0.1852   -0.0662   -0.1737   -0.0867   -0.0280    0.1985
          68   -0.0135   -0.0330   -0.0789   -0.0288   -0.0250   -0.0306   -0.0037   -0.1568
          69   -0.0260    0.0204    0.3381    0.0449   -0.1061   -0.0577   -0.0614    0.0365
          70    0.0177    0.0346    0.0260   -0.0129   -0.1080   -0.0424   -0.0274    0.2848
          71    0.0107    0.0066    0.1513    0.0371    0.1076    0.0534    0.0246   -0.1365
          72    0.0454   -0.0168   -0.3062   -0.0265    0.0154    0.0103    0.0130    0.0383
          73    0.0420   -0.0181   -0.1505    0.0120    0.0966    0.0530    0.0264    0.0276
          74    0.0454    0.0150   -0.2694   -0.0479   -0.1143   -0.0486   -0.0199    0.2307
          75    0.0143    0.0378    0.1676    0.0137   -0.0256   -0.0037   -0.0092    0.1645
          76   -0.0654   -0.0128    0.3189    0.0388    0.0209    0.0007   -0.0101   -0.1127
          77   -0.0024   -0.0123   -0.2635   -0.0492   -0.0619   -0.0300   -0.0044    0.0685
          78    0.0260   -0.0454   -0.2660   -0.0068    0.1154    0.0511    0.0368   -0.1914
          79   -0.0236   -0.0376    0.0709    0.0250    0.1036    0.0403    0.0236   -0.2225
          80   -0.0198    0.0397    0.4039    0.0522    0.0552    0.0319    0.0054   -0.0523
          81   -0.0506   -0.0019    0.0867   -0.0132   -0.0631   -0.0350   -0.0173    0.0306
          82    0.1799   -0.2110   -0.0087   -0.0241   -0.0974   -0.0699   -0.0444   -0.1511
          83    0.0621   -0.1208    0.0081    0.0023    0.2287    0.1413    0.1009    0.2744
          84   -0.1161    0.1731   -0.0675    0.0125   -0.0053    0.0007    0.0045   -0.0351
          85    0.2548   -0.3326   -0.0084   -0.0341   -0.0324   -0.0363   -0.0174   -0.1150
          86   -0.0130    0.0917   -0.0168   -0.0020   -0.2137   -0.1266   -0.0915   -0.2015
          87    0.1413   -0.1950    0.0674   -0.0066    0.0051   -0.0018   -0.0035    0.0126
          88   -0.0762    0.0580    0.0453    0.0150    0.1154    0.0758    0.0490    0.1454
          89    0.1131   -0.1417    0.0485   -0.0177   -0.1477   -0.0970   -0.0727   -0.1147
          90   -0.2576    0.3673   -0.0573    0.0257   -0.0946   -0.0485   -0.0334   -0.1222
          91   -0.1940    0.2074   -0.0102    0.0236    0.1350    0.0909    0.0614    0.1588
          92   -0.0655    0.1177   -0.0854   -0.0000   -0.0001    0.0021    0.0130   -0.0057
          93    0.1183   -0.1722   -0.0085   -0.0006    0.1953    0.1182    0.0873    0.2069


   Root No.      49        50        51        52        53        54        55        56

                49 A      50 A      51 A      52 A      53 A      54 A      55 A      56 A   

                   2.8       3.0       3.1       3.2       3.4       3.5       4.0       4.1
  
           1   -0.2449    0.1097   -0.0542    0.0767    0.0107   -0.0449   -0.0948    0.1719
           2    0.2187   -0.1533   -0.0523    0.0082    0.0233   -0.0462    0.0882   -0.0420
[...]
 FREQUENCY          1556.60         N 16 -- N 17         +47.3% ( 86.1%)     99.5%
 TRANSITION DIPOLE   8.2876         N 16 -- C 18         +16.6% ( 51.0%)     32.9%
 TRAVEL (Ang.)       0.0950         C  1 -- N 17         +15.0% ( 48.5%)      0.2%
 REDUCED MASS        4.8019         N 17 -- C 19         +12.6% ( 44.4%)     10.9%
 EFFECTIVE MASS     12.5063
 FORCE CONSTANT      6.8552

 VIBRATION         72   72A           ATOM PAIR      ENERGY CONTRIBUTION    RADIAL
 FREQUENCY          1776.29         C 18 -- O 21         +52.1% ( 97.4%)     99.9%
 TRANSITION DIPOLE   7.2025         C 18 -- O 23         +22.8% ( 64.5%)     26.9%
 TRAVEL (Ang.)       0.0765         N 16 -- C 18         +22.6% ( 64.2%)     42.9%
 REDUCED MASS        6.4848         N 16 -- N 17          +0.9% ( 12.7%)     99.8%
 EFFECTIVE MASS     13.3762
 FORCE CONSTANT     12.0552

 VIBRATION         73   73A           ATOM PAIR      ENERGY CONTRIBUTION    RADIAL
 FREQUENCY          1793.77         C 19 -- O 20         +53.3% ( 98.6%)    100.0%
 TRANSITION DIPOLE   6.8995         N 17 -- C 19         +23.0% ( 64.8%)     49.8%
 TRAVEL (Ang.)       0.0749         C 19 -- O 22         +22.8% ( 64.5%)     30.9%
 REDUCED MASS        6.7017         C 18 -- O 21          +0.2% (  6.6%)     98.5%
 EFFECTIVE MASS     13.3378
 FORCE CONSTANT     12.7048

 VIBRATION         74   74A           ATOM PAIR      ENERGY CONTRIBUTION    RADIAL
 FREQUENCY          2640.17         C  7 -- H  9         +57.7% ( 79.4%)     98.8%
 TRANSITION DIPOLE   0.7113         C  7 -- H  8         +40.3% ( 66.3%)     97.4%
 TRAVEL (Ang.)       0.2215         C  2 -- C  7          +1.0% ( 10.3%)      0.2%
 REDUCED MASS        0.5205         C  3 -- C  7          +1.0% ( 10.3%)      0.0%
 EFFECTIVE MASS      1.4752
 FORCE CONSTANT      2.1377

 VIBRATION         75   75A           ATOM PAIR      ENERGY CONTRIBUTION    RADIAL
 FREQUENCY          2645.03         C 28 -- H 30         +55.2% ( 77.2%)     98.8%
 TRANSITION DIPOLE   0.7493         C 28 -- H 29         +42.7% ( 67.9%)     97.4%
 TRAVEL (Ang.)       0.2248         C 28 -- H 31          +1.1% ( 11.1%)     10.3%
 REDUCED MASS        0.5045         O 22 -- C 28          +0.9% (  9.9%)      0.0%
 EFFECTIVE MASS      1.4647
 FORCE CONSTANT      2.0794

 VIBRATION         76   76A           ATOM PAIR      ENERGY CONTRIBUTION    RADIAL
 FREQUENCY          2646.93         C 24 -- H 26         +66.7% ( 84.9%)     99.6%
 TRANSITION DIPOLE   0.7338         C 24 -- H 27         +24.3% ( 51.2%)     92.8%
 TRAVEL (Ang.)       0.2195         C 24 -- H 25          +8.0% ( 29.4%)     74.5%
 REDUCED MASS        0.5286         O 23 -- C 24          +0.9% (  9.9%)      0.1%
 EFFECTIVE MASS      1.4650
 FORCE CONSTANT      2.1821

 VIBRATION         77   77A           ATOM PAIR      ENERGY CONTRIBUTION    RADIAL
 FREQUENCY          2659.87         C 24 -- H 25         +56.9% ( 78.3%)     99.2%
 TRANSITION DIPOLE   0.6879         C 24 -- H 27         +39.7% ( 65.4%)     96.9%
 TRAVEL (Ang.)       0.2253         C 24 -- H 26          +2.4% ( 16.2%)     36.5%
 REDUCED MASS        0.4995         O 23 -- C 24          +1.0% ( 10.2%)      1.2%
 EFFECTIVE MASS      1.4706
 FORCE CONSTANT      2.0822

 VIBRATION         78   78A           ATOM PAIR      ENERGY CONTRIBUTION    RADIAL
 FREQUENCY          2683.02         C 28 -- H 31         +54.4% ( 76.4%)     99.5%
 TRANSITION DIPOLE   0.4360         C 28 -- H 29         +27.8% ( 54.6%)     93.5%
 TRAVEL (Ang.)       0.2446         C 28 -- H 30         +16.7% ( 42.3%)     86.6%
 REDUCED MASS        0.4202         O 22 -- C 28          +1.0% ( 10.2%)      2.4%
 EFFECTIVE MASS      1.4696
 FORCE CONSTANT      1.7821

 VIBRATION         79   79A           ATOM PAIR      ENERGY CONTRIBUTION    RADIAL
 FREQUENCY          2709.88         C 10 -- H 11         +73.5% ( 90.4%)    100.0%
 TRANSITION DIPOLE   2.9902         C  1 -- H  5         +16.1% ( 42.3%)     98.1%
 TRAVEL (Ang.)       0.2039         C  2 -- H 14          +4.6% ( 22.5%)     99.8%
 REDUCED MASS        0.5983         C  1 -- C 10          +1.1% ( 11.3%)     56.3%
 EFFECTIVE MASS      1.4518
 FORCE CONSTANT      2.5888

 VIBRATION         80   80A           ATOM PAIR      ENERGY CONTRIBUTION    RADIAL
 FREQUENCY          2732.82         C  2 -- H 14         +90.0% ( 96.7%)    100.0%
 TRANSITION DIPOLE   1.4224         C 10 -- H 11          +3.4% ( 18.8%)     99.8%
 TRAVEL (Ang.)       0.1739         C  2 -- C 10          +1.2% ( 11.1%)     50.3%
 REDUCED MASS        0.8160         C  1 -- C  2          +1.1% ( 10.7%)     30.1%
 EFFECTIVE MASS      1.4161
 FORCE CONSTANT      3.5905

 VIBRATION         81   81A           ATOM PAIR      ENERGY CONTRIBUTION    RADIAL
 FREQUENCY          2750.28         C  4 -- H  6         +75.3% ( 88.8%)    100.0%
 TRANSITION DIPOLE   0.9031         C  3 -- H 15         +18.3% ( 43.7%)    100.0%
 TRAVEL (Ang.)       0.2001         C 12 -- H 13          +1.4% ( 12.2%)     99.6%
 REDUCED MASS        0.6125         C  3 -- C  4          +1.1% ( 10.5%)      7.6%
 EFFECTIVE MASS      1.4097
 FORCE CONSTANT      2.7296

 VIBRATION         82   82A           ATOM PAIR      ENERGY CONTRIBUTION    RADIAL
 FREQUENCY          2758.68         C  3 -- H 15         +68.0% ( 84.0%)    100.0%
 TRANSITION DIPOLE   0.6611         C 12 -- H 13         +13.5% ( 37.4%)    100.0%
 TRAVEL (Ang.)       0.2220         C  4 -- H  6         +11.6% ( 34.7%)     99.9%
 REDUCED MASS        0.4959         C  7 -- H  8          +1.3% ( 11.6%)     97.6%
 EFFECTIVE MASS      1.4086
 FORCE CONSTANT      2.2233

 VIBRATION         83   83A           ATOM PAIR      ENERGY CONTRIBUTION    RADIAL
 FREQUENCY          2770.22         C  7 -- H  8         +36.3% ( 59.8%)     98.4%
 TRANSITION DIPOLE   1.1098         C 12 -- H 13         +35.6% ( 59.2%)    100.0%
 TRAVEL (Ang.)       0.2783         C  7 -- H  9         +23.9% ( 48.5%)     96.3%
 REDUCED MASS        0.3143         C  4 -- H  6          +0.9% (  9.2%)     99.9%
 EFFECTIVE MASS      1.2878
 FORCE CONSTANT      1.4212

 VIBRATION         84   84A           ATOM PAIR      ENERGY CONTRIBUTION    RADIAL
 FREQUENCY          2777.68         C 12 -- H 13         +48.7% ( 70.2%)    100.0%
 TRANSITION DIPOLE   1.2532         C  7 -- H  8         +18.6% ( 43.5%)     98.2%
 TRAVEL (Ang.)       0.2864         C  7 -- H  9         +12.4% ( 35.4%)     96.1%
 REDUCED MASS        0.2960         C  3 -- H 15          +8.5% ( 29.3%)     99.8%
 EFFECTIVE MASS      1.3977
 FORCE CONSTANT      1.3455

 VIBRATION         85   85A           ATOM PAIR      ENERGY CONTRIBUTION    RADIAL
 FREQUENCY          2820.51         C 24 -- H 27         +35.6% ( 56.1%)     98.2%
 TRANSITION DIPOLE   0.5027         C 24 -- H 25         +34.7% ( 55.3%)     97.8%
 TRAVEL (Ang.)       0.2689         C 24 -- H 26         +29.4% ( 50.9%)     97.7%
 REDUCED MASS        0.3306         O 23 -- C 24          +0.1% (  3.0%)     96.9%
 EFFECTIVE MASS      1.0686
 FORCE CONSTANT      1.5495

 VIBRATION         86   86A           ATOM PAIR      ENERGY CONTRIBUTION    RADIAL
 FREQUENCY          2825.81         C 28 -- H 31         +46.1% ( 64.0%)     98.7%
 TRANSITION DIPOLE   0.3032         C 28 -- H 29         +27.8% ( 49.6%)     97.4%
 TRAVEL (Ang.)       0.2619         C 28 -- H 30         +25.9% ( 47.9%)     97.1%
 REDUCED MASS        0.3478         O 22 -- C 28          +0.1% (  3.1%)     74.7%
 EFFECTIVE MASS      1.0717
 FORCE CONSTANT      1.6362

 VIBRATION         87   87A           ATOM PAIR      ENERGY CONTRIBUTION    RADIAL
 FREQUENCY          3026.16         C  1 -- H  5         +83.6% ( 89.8%)     98.2%
 TRANSITION DIPOLE   2.8619         C 10 -- H 11         +14.0% ( 36.8%)     99.7%
 TRAVEL (Ang.)       0.1805         C  1 -- C 10          +0.5% (  6.7%)      0.3%
 REDUCED MASS        0.6841         C  1 -- N 17          +0.4% (  6.3%)      1.1%
 EFFECTIVE MASS      1.2467
 FORCE CONSTANT      3.6912

      SYMMETRY NUMBER FOR POINT-GROUP C1  =  1


          SYSTEM IS A GROUND STATE



 Cycloaddition_TS_PM6_D3H4_THERMO


          MOLECULE IS NOT LINEAR

          THERE ARE 87 GENUINE VIBRATIONS IN THIS SYSTEM
          THIS THERMODYNAMICS CALCULATION IS LIMITED TO
          MOLECULES WHICH HAVE NO INTERNAL ROTATIONS




                    CALCULATED THERMODYNAMIC PROPERTIES
                                          *
   TEMP. (K)   PARTITION FUNCTION   H.O.F.    ENTHALPY  HEAT CAPACITY ENTROPY
                                   KCAL/MOL   CAL/MOLE    CAL/K/MOL  CAL/K/MOL


 298.00  VIB.     0.5807D+07                  8841.7307    55.6583    60.6200
         ROT.     0.2995D+07                   888.2813     2.9808    32.6146
         INT.     0.1739D+14                  9730.0120    58.6391    93.2346
         TRA.     0.3555D+28                  1480.4688     4.9680    42.3035
         TOT.                       -0.504   11210.4808    63.6072   135.5381

 200.00  VIB.     0.3705D+05                  4262.3073    38.2076    42.2168
         ROT.     0.1646D+07                   596.1620     2.9808    31.4260
         INT.     0.6100D+11                  4858.4692    41.1884    73.6428
         TRA.     0.1955D+28                   993.6033     4.9680    40.3223
         TOT.                       -5.863    5852.0725    46.1564   113.9651

 210.00  VIB.     0.6316D+05                  4652.5744    39.8525    44.1206
         ROT.     0.1771D+07                   625.9700     2.9808    31.5714
         INT.     0.1119D+12                  5278.5444    42.8334    75.6920
         TRA.     0.2103D+28                  1043.2834     4.9680    40.5647
         TOT.                       -5.393    6321.8278    47.8014   116.2567

 220.00  VIB.     0.1071D+06                  5059.4909    41.5373    46.0133
         ROT.     0.1899D+07                   655.7781     2.9808    31.7101
         INT.     0.2035D+12                  5715.2691    44.5181    77.7233
         TRA.     0.2255D+28                  1092.9636     4.9680    40.7959
         TOT.                       -4.907    6808.2327    49.4861   118.5192

 230.00  VIB.     0.1809D+06                  5483.4459    43.2598    47.8975
         ROT.     0.2030D+07                   685.5862     2.9808    31.8426
         INT.     0.3673D+12                  6169.0322    46.2406    79.7401
         TRA.     0.2411D+28                  1142.6437     4.9680    41.0167
         TOT.                       -4.403    7311.6759    51.2086   120.7568

 240.00  VIB.     0.3041D+06                  5924.8023    45.0170    49.7757
         ROT.     0.2164D+07                   715.3943     2.9808    31.9694
         INT.     0.6583D+12                  6640.1967    47.9978    81.7451
         TRA.     0.2569D+28                  1192.3239     4.9680    41.2281
         TOT.                       -3.882    7832.5206    52.9658   122.9732

 250.00  VIB.     0.5094D+06                  6383.8871    46.8047    51.6495
         ROT.     0.2301D+07                   745.2024     2.9808    32.0911
         INT.     0.1172D+13                  7129.0895    49.7855    83.7406
         TRA.     0.2732D+28                  1242.0041     4.9680    41.4309
         TOT.                       -3.344    8371.0936    54.7536   125.1715

 260.00  VIB.     0.8503D+06                  6860.9835    48.6185    53.5205
         ROT.     0.2440D+07                   775.0105     2.9808    32.2080
         INT.     0.2075D+13                  7635.9941    51.5993    85.7285
         TRA.     0.2897D+28                  1291.6842     4.9680    41.6258
         TOT.                       -2.787    8927.6783    56.5673   127.3543

 270.00  VIB.     0.1415D+07                  7356.3268    50.4532    55.3897
         ROT.     0.2583D+07                   804.8186     2.9808    32.3205
         INT.     0.3654D+13                  8161.1455    53.4341    87.7102
         TRA.     0.3066D+28                  1341.3644     4.9680    41.8133
         TOT.                       -2.212    9502.5098    58.4021   129.5235

 280.00  VIB.     0.2348D+07                  7870.1011    52.3038    57.2580
         ROT.     0.2727D+07                   834.6267     2.9808    32.4289
         INT.     0.6404D+13                  8704.7278    55.2846    89.6869
         TRA.     0.3238D+28                  1391.0445     4.9680    41.9940
         TOT.                       -1.619   10095.7724    60.2526   131.6808

 290.00  VIB.     0.3886D+07                  8402.4387    54.1651    59.1258
         ROT.     0.2875D+07                   864.4348     2.9808    32.5335
         INT.     0.1117D+14                  9266.8735    57.1459    91.6593
         TRA.     0.3413D+28                  1440.7247     4.9680    42.1683
         TOT.                       -1.007   10707.5982    62.1139   133.8276

 300.00  VIB.     0.6418D+07                  8953.4209    56.0319    60.9936
         ROT.     0.3025D+07                   894.2429     2.9808    32.6346
         INT.     0.1941D+14                  9847.6638    59.0127    93.6281
         TRA.     0.3591D+28                  1490.4049     4.9680    42.3367
         TOT.                       -0.377   11338.0687    63.9807   135.9648

 310.00  VIB.     0.1058D+08                  9523.0796    57.8996    62.8613
         ROT.     0.3177D+07                   924.0510     2.9808    32.7323
         INT.     0.3361D+14                 10447.1306    60.8804    95.5936
         TRA.     0.3772D+28                  1540.0850     4.9680    42.4996
         TOT.                        0.272   11987.2157    65.8484   138.0932

 320.00  VIB.     0.1740D+08                 10111.4003    59.7636    64.7290
         ROT.     0.3332D+07                   953.8591     2.9808    32.8269
         INT.     0.5799D+14                 11065.2594    62.7444    97.5559
         TRA.     0.3956D+28                  1589.7652     4.9680    42.6573
         TOT.                        0.940   12655.0246    67.7124   140.2133

 330.00  VIB.     0.2858D+08                 10718.3249    61.6197    66.5964
         ROT.     0.3490D+07                   983.6672     2.9808    32.9187
         INT.     0.9973D+14                 11701.9922    64.6005    99.5151
         TRA.     0.4143D+28                  1639.4454     4.9680    42.8102
         TOT.                        1.627   13341.4375    69.5686   142.3253

 340.00  VIB.     0.4686D+08                 11343.7560    63.4643    68.4634
         ROT.     0.3649D+07                  1013.4753     2.9808    33.0077
         INT.     0.1710D+15                 12357.2314    66.4451   101.4710
         TRA.     0.4333D+28                  1689.1255     4.9680    42.9585
         TOT.                        2.332   14046.3569    71.4131   144.4296

 350.00  VIB.     0.7673D+08                 11987.5603    65.2938    70.3295
         ROT.     0.3812D+07                  1043.2834     2.9808    33.0941
         INT.     0.2925D+15                 13030.8438    68.2746   103.4236
         TRA.     0.4525D+28                  1738.8057     4.9680    43.1025
         TOT.                        3.055   14769.6494    73.2427   146.5261

 360.00  VIB.     0.1255D+09                 12649.5728    67.1054    72.1943
         ROT.     0.3976D+07                  1073.0915     2.9808    33.1780
         INT.     0.4989D+15                 13722.6643    70.0863   105.3724
         TRA.     0.4720D+28                  1788.4859     4.9680    43.2425
         TOT.                        3.796   15511.1502    75.0543   148.6148

 370.00  VIB.     0.2049D+09                 13329.6006    68.8965    74.0574
         ROT.     0.4143D+07                  1102.8996     2.9808    33.2597
         INT.     0.8490D+15                 14432.5002    71.8773   107.3171
         TRA.     0.4918D+28                  1838.1660     4.9680    43.3786
         TOT.                        4.556   16270.6662    76.8453   150.6957

 380.00  VIB.     0.3343D+09                 14027.4268    70.6648    75.9183
         ROT.     0.4312D+07                  1132.7077     2.9808    33.3392
         INT.     0.1442D+16                 15160.1345    73.6456   109.2575
         TRA.     0.5119D+28                  1887.8462     4.9680    43.5111
         TOT.                        5.333   17047.9807    78.6136   152.7686

 390.00  VIB.     0.5448D+09                 14742.8139    72.4084    77.7764
         ROT.     0.4483D+07                  1162.5158     2.9808    33.4166
         INT.     0.2442D+16                 15905.3297    75.3892   111.1931
         TRA.     0.5323D+28                  1937.5263     4.9680    43.6401
         TOT.                        6.128   17842.8561    80.3572   154.8332

 400.00  VIB.     0.8868D+09                 15475.5076    74.1258    79.6314
         ROT.     0.4657D+07                  1192.3239     2.9808    33.4921
         INT.     0.4130D+16                 16667.8315    77.1066   113.1235
         TRA.     0.5529D+28                  1987.2065     4.9680    43.7659
         TOT.                        6.940   18655.0380    82.0747   156.8894

   *: NOTE: HEATS OF FORMATION ARE RELATIVE TO THE
            ELEMENTS IN THEIR STANDARD STATE AT 298K
              (=  Standard Enthalpy of Formation).

            Hvib:  Zero-point energy is not included.
                   frequencies of less than zero cm-1 are not included.
            Hrot = (3/2)RT
            Htra = (3/2)RT + pV = (5/2)RT

            Heat capacity is Cp, not Cv

          For more information, see: HTTP://OpenMOPAC.net/Manual/thermochemistry.html


           FORCE CONSTANT IN CARTESIAN COORDINATES (Millidynes/A)

    ATOM   CHEMICAL       X               Y               Z
   NUMBER   SYMBOL  FORCE CONSTANT  FORCE CONSTANT  FORCE CONSTANT

      1       C        4.554625        6.703685       -1.473492
      2       C        5.385338        8.002174        6.631457
      3       C        6.005445        9.052052        5.368558
      4       C        9.648253        6.348116        3.992109
      5       H        2.572963        3.275003        1.102613
      6       H        3.723880        1.106865        0.583572
      7       C        7.248992        6.025197        7.109642
      8       H        3.762282        0.902079        0.820544
      9       H        0.744812        0.704351        4.029731
     10       C        2.648332        6.789526        8.533204
     11       H        0.421979        1.990410        2.907902
     12       C        3.747709        6.953064        9.375662
     13       H        0.510184        1.668820        3.227946
     14       H        1.525914        3.066431        0.906476
     15       H        0.634202        4.079971        0.760013
     16       N        4.709009        7.781923        5.264747
     17       N        3.905526        9.334666        4.055452
     18       C        6.644287       12.931207        5.074153
     19       C        7.476458        6.421905       10.995242
     20       O        4.776066        0.998915        9.082211
     21       O        1.080895       10.843307        2.732645
     22       O        2.421366        6.852162        4.417263
     23       O        6.937625        4.299792        2.258446
     24       C        6.099492        6.339736        6.209803
     25       H        2.015278        1.548970        1.885751
     26       H        1.186786        0.660169        3.583141
     27       H        0.925996        3.457827        1.081544
     28       C        6.143532        5.946752        6.431453
     29       H        3.970590        0.879617        0.605628
     30       H        1.006619        1.091584        3.328808
     31       H        0.864044        2.098876        2.573113

 **********************
 *                    *
 * JOB ENDED NORMALLY *
 *                    *
 **********************



 TOTAL JOB TIME:             4.74 SECONDS

 == MOPAC DONE ==
