 Entering Gaussian System, Link 0=g09
 Input=diene_water_freq.com
 Output=diene_water_freq.log
 Initial command:
 /apps/applications/gaussian/G09.D01/2/default/g09/l1.exe "/nobackup/pmmass/Temp/Gau-259167.inp" -scrdir="/nobackup/pmmass/Temp/"
 Entering Link 1 = /apps/applications/gaussian/G09.D01/2/default/g09/l1.exe PID=    259168.
  
 Copyright (c) 1988,1990,1992,1993,1995,1998,2003,2009,2013,
            Gaussian, Inc.  All Rights Reserved.
  
 This is part of the Gaussian(R) 09 program.  It is based on
 the Gaussian(R) 03 system (copyright 2003, Gaussian, Inc.),
 the Gaussian(R) 98 system (copyright 1998, Gaussian, Inc.),
 the Gaussian(R) 94 system (copyright 1995, Gaussian, Inc.),
 the Gaussian 92(TM) system (copyright 1992, Gaussian, Inc.),
 the Gaussian 90(TM) system (copyright 1990, Gaussian, Inc.),
 the Gaussian 88(TM) system (copyright 1988, Gaussian, Inc.),
 the Gaussian 86(TM) system (copyright 1986, Carnegie Mellon
 University), and the Gaussian 82(TM) system (copyright 1983,
 Carnegie Mellon University). Gaussian is a federally registered
 trademark of Gaussian, Inc.
  
 This software contains proprietary and confidential information,
 including trade secrets, belonging to Gaussian, Inc.
  
 This software is provided under written license and may be
 used, copied, transmitted, or stored only in accord with that
 written license.
  
 The following legend is applicable only to US Government
 contracts under FAR:
  
                    RESTRICTED RIGHTS LEGEND
  
 Use, reproduction and disclosure by the US Government is
 subject to restrictions as set forth in subparagraphs (a)
 and (c) of the Commercial Computer Software - Restricted
 Rights clause in FAR 52.227-19.
  
 Gaussian, Inc.
 340 Quinnipiac St., Bldg. 40, Wallingford CT 06492
  
  
 ---------------------------------------------------------------
 Warning -- This program may not be used in any manner that
 competes with the business of Gaussian, Inc. or will provide
 assistance to any competitor of Gaussian, Inc.  The licensee
 of this program is prohibited from giving any competitor of
 Gaussian, Inc. access to this program.  By using this program,
 the user acknowledges that Gaussian, Inc. is engaged in the
 business of creating and licensing software in the field of
 computational chemistry and represents and warrants to the
 licensee that it is not a competitor of Gaussian, Inc. and that
 it will not use this program in any manner prohibited above.
 ---------------------------------------------------------------
  

 Cite this work as:
 Gaussian 09, Revision D.01,
 M. J. Frisch, G. W. Trucks, H. B. Schlegel, G. E. Scuseria, 
 M. A. Robb, J. R. Cheeseman, G. Scalmani, V. Barone, B. Mennucci, 
 G. A. Petersson, H. Nakatsuji, M. Caricato, X. Li, H. P. Hratchian, 
 A. F. Izmaylov, J. Bloino, G. Zheng, J. L. Sonnenberg, M. Hada, 
 M. Ehara, K. Toyota, R. Fukuda, J. Hasegawa, M. Ishida, T. Nakajima, 
 Y. Honda, O. Kitao, H. Nakai, T. Vreven, J. A. Montgomery, Jr., 
 J. E. Peralta, F. Ogliaro, M. Bearpark, J. J. Heyd, E. Brothers, 
 K. N. Kudin, V. N. Staroverov, T. Keith, R. Kobayashi, J. Normand, 
 K. Raghavachari, A. Rendell, J. C. Burant, S. S. Iyengar, J. Tomasi, 
 M. Cossi, N. Rega, J. M. Millam, M. Klene, J. E. Knox, J. B. Cross, 
 V. Bakken, C. Adamo, J. Jaramillo, R. Gomperts, R. E. Stratmann, 
 O. Yazyev, A. J. Austin, R. Cammi, C. Pomelli, J. W. Ochterski, 
 R. L. Martin, K. Morokuma, V. G. Zakrzewski, G. A. Voth, 
 P. Salvador, J. J. Dannenberg, S. Dapprich, A. D. Daniels, 
 O. Farkas, J. B. Foresman, J. V. Ortiz, J. Cioslowski, 
 and D. J. Fox, Gaussian, Inc., Wallingford CT, 2013.
 
 ******************************************
 Gaussian 09:  ES64L-G09RevD.01 24-Apr-2013
                24-Feb-2022 
 ******************************************
 %nprocshared=8
 Will use up to    8 processors via shared memory.
 %mem=4GB
 %NoSave
 %chk="diene_water_freq.chk"
 -------------------------------------------------
 #n wB97XD/Def2TZVP scrf(smd,solvent=toluene) freq
 -------------------------------------------------
 1/10=4,30=1,38=1/1,3;
 2/12=2,17=6,18=5,40=1/2;
 3/5=44,7=101,11=2,16=1,25=1,30=1,70=32201,71=2,72=13,74=-58,140=1/1,2,3;
 4//1;
 5/5=2,38=5,53=13,98=1/2;
 8/6=4,10=90,11=11/1;
 11/6=1,8=1,9=11,15=111,16=1/1,2,10;
 10/6=1/2;
 6/7=2,8=2,9=2,10=2,18=1,28=1/1;
 7/8=1,10=1,25=1/1,2,3,16;
 1/10=4,30=1/3;
 99//99;
 --------------------------------
 diene diels-alder toluene - freq
 --------------------------------
 Symbolic Z-matrix:
 Charge =  0 Multiplicity = 1
 C                    -3.33035   0.42844  -0.42873 
 H                    -3.55616   1.21557  -1.14408 
 C                    -1.91437   0.07627  -0.29386 
 H                    -1.20138   0.88367  -0.4308 
 C                    -4.32729  -0.10958   0.26914 
 H                    -4.09275  -0.85485   1.02583 
 C                    -5.76847   0.24163   0.1119 
 H                    -6.18704   0.60987   1.05276 
 H                    -5.91608   1.0064   -0.65211 
 H                    -6.3538   -0.63927  -0.1679 
 C                    -1.45708  -1.146    -0.04353 
 H                    -2.14581  -1.98178   0.03887 
 C                    -0.02509  -1.52573   0.12268 
 H                     0.27327  -2.2099   -0.67666 
 H                     0.11674  -2.04214   1.07746 
 C                     2.10981  -0.40605   0.00252 
 C                     2.78379  -1.7371   -0.10924 
 H                     2.53323  -2.19736  -1.06745 
 H                     3.86003  -1.59729  -0.05446 
 H                     2.45679  -2.41388   0.68072 
 O                     0.78726  -0.35294   0.09833 
 O                     2.70897   0.64802   0.00043 
 O                     5.56948   0.36612   0.10365 
 H                     4.63003   0.59819   0.08243 
 H                     5.9769    0.90248  -0.57775 
 O                     0.86131   2.94922   0.07687 
 H                     0.26522   2.68109   0.77795 
 H                     1.49893   2.22452   0.01571 
 

 GradGradGradGradGradGradGradGradGradGradGradGradGradGradGradGradGradGrad
 Berny optimization.
 Initialization pass.
 Trust Radius=3.00D-01 FncErr=1.00D-07 GrdErr=1.00D-07
 Number of steps in this run=      2 maximum allowed number of steps=      2.
 GradGradGradGradGradGradGradGradGradGradGradGradGradGradGradGradGradGrad

                          Input orientation:                          
 ---------------------------------------------------------------------
 Center     Atomic      Atomic             Coordinates (Angstroms)
 Number     Number       Type             X           Y           Z
 ---------------------------------------------------------------------
      1          6           0       -3.330350    0.428440   -0.428730
      2          1           0       -3.556160    1.215570   -1.144080
      3          6           0       -1.914370    0.076270   -0.293860
      4          1           0       -1.201380    0.883670   -0.430800
      5          6           0       -4.327290   -0.109580    0.269140
      6          1           0       -4.092750   -0.854850    1.025830
      7          6           0       -5.768470    0.241630    0.111900
      8          1           0       -6.187040    0.609870    1.052760
      9          1           0       -5.916080    1.006400   -0.652110
     10          1           0       -6.353800   -0.639270   -0.167900
     11          6           0       -1.457080   -1.146000   -0.043530
     12          1           0       -2.145810   -1.981780    0.038870
     13          6           0       -0.025090   -1.525730    0.122680
     14          1           0        0.273270   -2.209900   -0.676660
     15          1           0        0.116740   -2.042140    1.077460
     16          6           0        2.109810   -0.406050    0.002520
     17          6           0        2.783790   -1.737100   -0.109240
     18          1           0        2.533230   -2.197360   -1.067450
     19          1           0        3.860030   -1.597290   -0.054460
     20          1           0        2.456790   -2.413880    0.680720
     21          8           0        0.787260   -0.352940    0.098330
     22          8           0        2.708970    0.648020    0.000430
     23          8           0        5.569480    0.366120    0.103650
     24          1           0        4.630030    0.598190    0.082430
     25          1           0        5.976900    0.902480   -0.577750
     26          8           0        0.861310    2.949220    0.076870
     27          1           0        0.265220    2.681090    0.777950
     28          1           0        1.498930    2.224520    0.015710
 ---------------------------------------------------------------------
                    Distance matrix (angstroms):
                    1          2          3          4          5
     1  C    0.000000
     2  H    1.087331   0.000000
     3  C    1.465337   2.171717   0.000000
     4  H    2.177097   2.482723   1.085819   0.000000
     5  C    1.330555   2.085151   2.484692   3.353770   0.000000
     6  H    2.084186   3.046814   2.711809   3.674812   1.087665
     7  C    2.504318   2.724034   3.878927   4.643818   1.491668
     8  H    3.223105   3.480590   4.511521   5.208908   2.142508
     9  H    2.658935   2.419713   4.123975   4.721487   2.149039
    10  H    3.217031   3.495733   4.498489   5.379209   2.139701
    11  C    2.477172   3.345797   1.328805   2.082047   3.067578
    12  H    2.725976   3.689377   2.097580   3.053415   2.883923
    13  C    3.879121   4.646274   2.511830   2.737738   4.531650
    14  H    4.473073   5.159153   3.187299   3.435872   5.145001
    15  H    4.500534   5.388702   3.239381   3.545794   4.913000
    16  C    5.520660   6.003962   4.063803   3.579822   6.449437
    17  C    6.494178   7.069945   5.039355   4.780525   7.304755
    18  H    6.456343   6.981020   5.054600   4.883173   7.294658
    19  H    7.479654   8.006206   6.016794   5.649307   8.327677
    20  H    6.542221   7.256609   5.124226   5.048913   7.176555
    21  O    4.224105   4.782165   2.763483   2.400807   5.123185
    22  O    6.058530   6.394050   4.667845   3.941107   7.082028
    23  O    8.915957   9.249632   7.500003   6.811611   9.909578
    24  H    7.978581   8.300554   6.575954   5.860908   8.987179
    25  H    9.320506   9.554998   7.939481   7.179809  10.388350
    26  O    4.917314   4.900031   4.011942   2.962924   6.026176
    27  H    4.411194   4.521603   3.561527   2.615858   5.397951
    28  H    5.171593   5.283657   4.044926   3.047774   6.281488
                    6          7          8          9         10
     6  H    0.000000
     7  C    2.201266   0.000000
     8  H    2.555813   1.093627   0.000000
     9  H    3.099075   1.091042   1.771225   0.000000
    10  H    2.565894   1.094022   1.754472   1.770392   0.000000
    11  C    2.859205   4.531860   5.163086   4.988575   4.924440
    12  H    2.456550   4.251182   4.906747   4.860207   4.421795
    13  C    4.220381   6.009167   6.587523   6.458773   6.397095
    14  H    4.878193   6.567682   7.257934   6.975188   6.829625
    15  H    4.374029   6.386205   6.838963   6.977100   6.736977
    16  C    6.302407   7.905615   8.424537   8.175480   8.468538
    17  C    7.025208   8.780970   9.345282   9.138339   9.203490
    18  H    7.077271   8.732569   9.403135   9.045851   9.067311
    19  H    8.060084   9.803944  10.346067  10.134531  10.259288
    20  H    6.741376   8.661997   9.165003   9.142194   9.027508
    21  O    4.992661   6.582651   7.104843   6.880824   7.151755
    22  O    7.040842   8.487907   8.958116   8.657120   9.155285
    23  O    9.782631  11.338636  11.797287  11.528192  11.968674
    24  H    8.893156  10.404653  10.860510  10.579538  11.056152
    25  H   10.346861  11.784144  12.276222  11.893666  12.433468
    26  O    6.317767   7.161442   7.490271   7.087946   8.061947
    27  H    5.617492   6.542171   6.782119   6.561869   7.465310
    28  H    6.462952   7.533672   7.921913   7.544016   8.360644
                   11         12         13         14         15
    11  C    0.000000
    12  H    1.086125   0.000000
    13  C    1.490777   2.170820   0.000000
    14  H    2.127639   2.532977   1.093641   0.000000
    15  H    2.129928   2.490270   1.094715   1.769062   0.000000
    16  C    3.643124   4.538122   2.413694   2.662337   2.793674
    17  C    4.282370   4.937890   2.826353   2.616910   2.935040
    18  H    4.251628   4.812882   2.900431   2.293533   3.234835
    19  H    5.336238   6.018858   3.889814   3.691513   3.935906
    20  H    4.177372   4.667184   2.694429   2.579118   2.402379
    21  O    2.384561   3.355526   1.426864   2.076799   2.064386
    22  O    4.536123   5.521432   3.495028   3.815599   3.888009
    23  O    7.188930   8.064895   5.905817   5.940926   6.039900
    24  H    6.333322   7.250528   5.116913   5.238601   5.322707
    25  H    7.729536   8.641620   6.512349   6.498314   6.764021
    26  O    4.707468   5.775723   4.562125   5.246915   5.144826
    27  H    4.276420   5.301100   4.267434   5.102719   4.735045
    28  H    4.483515   5.565755   4.049501   4.652494   4.608921
                   16         17         18         19         20
    16  C    0.000000
    17  C    1.496140   0.000000
    18  H    2.129064   1.092147   0.000000
    19  H    2.117916   1.086665   1.773875   0.000000
    20  H    2.147494   1.090411   1.763185   1.782243   0.000000
    21  O    1.327079   2.438261   2.794520   3.318685   2.715508
    22  O    1.212461   2.388812   3.044247   2.523761   3.146684
    23  O    3.546236   3.496988   4.142671   2.608102   4.213104
    24  H    2.714110   2.983106   3.678844   2.330616   3.762112
    25  H    4.123512   4.169273   4.659150   3.317201   4.997316
    26  O    3.580798   5.068744   5.531010   5.447965   5.627880
    27  H    3.678891   5.162432   5.687587   5.649788   5.547175
    28  H    2.700601   4.166643   4.668622   4.492878   4.782728
                   21         22         23         24         25
    21  O    0.000000
    22  O    2.168980   0.000000
    23  O    4.835980   2.876220   0.000000
    24  H    3.958760   1.923455   0.967922   0.000000
    25  H    5.381963   3.328424   0.958112   1.530519   0.000000
    26  O    3.303060   2.952154   5.370287   4.441917   5.548597
    27  H    3.152736   3.272587   5.826572   4.886081   6.133895
    28  H    2.675182   1.987406   4.475574   3.528907   4.706612
                   26         27         28
    26  O    0.000000
    27  H    0.958504   0.000000
    28  H    0.967207   1.520364   0.000000
 Stoichiometry    C8H16O4
 Framework group  C1[X(C8H16O4)]
 Deg. of freedom    78
 Full point group                 C1      NOp   1
 Largest Abelian subgroup         C1      NOp   1
 Largest concise Abelian subgroup C1      NOp   1
                         Standard orientation:                         
 ---------------------------------------------------------------------
 Center     Atomic      Atomic             Coordinates (Angstroms)
 Number     Number       Type             X           Y           Z
 ---------------------------------------------------------------------
      1          6           0       -3.330350    0.428441   -0.428730
      2          1           0       -3.556160    1.215571   -1.144080
      3          6           0       -1.914370    0.076271   -0.293860
      4          1           0       -1.201380    0.883671   -0.430800
      5          6           0       -4.327290   -0.109579    0.269140
      6          1           0       -4.092750   -0.854849    1.025830
      7          6           0       -5.768470    0.241631    0.111900
      8          1           0       -6.187040    0.609871    1.052760
      9          1           0       -5.916080    1.006401   -0.652110
     10          1           0       -6.353800   -0.639269   -0.167900
     11          6           0       -1.457080   -1.145999   -0.043530
     12          1           0       -2.145810   -1.981779    0.038870
     13          6           0       -0.025090   -1.525730    0.122680
     14          1           0        0.273270   -2.209900   -0.676660
     15          1           0        0.116740   -2.042140    1.077460
     16          6           0        2.109810   -0.406050    0.002520
     17          6           0        2.783790   -1.737100   -0.109240
     18          1           0        2.533230   -2.197360   -1.067450
     19          1           0        3.860030   -1.597290   -0.054460
     20          1           0        2.456790   -2.413880    0.680720
     21          8           0        0.787260   -0.352940    0.098330
     22          8           0        2.708970    0.648020    0.000430
     23          8           0        5.569480    0.366120    0.103650
     24          1           0        4.630030    0.598190    0.082430
     25          1           0        5.976900    0.902480   -0.577750
     26          8           0        0.861310    2.949220    0.076870
     27          1           0        0.265220    2.681090    0.777950
     28          1           0        1.498930    2.224520    0.015710
 ---------------------------------------------------------------------
 Rotational constants (GHZ):      1.7258782      0.2718217      0.2377872
 Standard basis: def2TZVP (5D, 7F)
 There are   528 symmetry adapted cartesian basis functions of A   symmetry.
 There are   468 symmetry adapted basis functions of A   symmetry.
   468 basis functions,   740 primitive gaussians,   528 cartesian basis functions
    48 alpha electrons       48 beta electrons
       nuclear repulsion energy       686.3552223822 Hartrees.
 NAtoms=   28 NActive=   28 NUniq=   28 SFac= 1.00D+00 NAtFMM=   60 NAOKFM=F Big=F
 Integral buffers will be    131072 words long.
 Raffenetti 2 integral format.
 Two-electron integral symmetry is turned on.
 Nuclear repulsion after empirical dispersion term =      686.3408018186 Hartrees.
 Force inversion solution in PCM.
 ------------------------------------------------------------------------------
 Polarizable Continuum Model (PCM)
 =================================
 Model                : PCM (using non-symmetric T matrix).
 Atomic radii         : SMD-Coulomb.
 Polarization charges : Total charges.
 Charge compensation  : None.
 Solution method      : Matrix inversion.
 Cavity type          : VdW (van der Waals Surface) (Alpha=1.000).
 Cavity algorithm     : GePol (No added spheres)
                        Default sphere list used, NSphG=   28.
                        Lebedev-Laikov grids with approx.  5.0 points / Ang**2.
                        Smoothing algorithm: Karplus/York (Gamma=1.0000).
                        Polarization charges: spherical gaussians, with
                                              point-specific exponents (IZeta= 3).
                        Self-potential: point-specific (ISelfS= 7).
                        Self-field    : sphere-specific E.n sum rule (ISelfD= 2).
 1st derivatives      : Analytical E(r).r(x)/FMM algorithm (CHGder, D1EAlg=3).
                        Cavity 1st derivative terms included.
 2nd derivatives      : Analytical E(r).r(xy)/FMM algorithm (CHGder, D2EAlg=3).
                        Cavity 2nd derivative terms included.
 Solvent              : Toluene, Eps=   2.374100 Eps(inf)=   2.238315
 ------------------------------------------------------------------------------
 ------------------------------------------------------------------------------
 Atomic radii for non-electrostatic terms: SMD-CDS.
 ------------------------------------------------------------------------------
 Nuclear repulsion after PCM non-electrostatic terms =      686.3333374507 Hartrees.
 One-electron integrals computed using PRISM.
   1 Symmetry operations used in ECPInt.
 ECPInt:  NShTT=   19306 NPrTT=   56928 LenC2=   16598 LenP2D=   35982.
 LDataN:  DoStor=T MaxTD1= 6 Len=  172
 NBasis=   468 RedAO= T EigKep=  1.02D-04  NBF=   468
 NBsUse=   468 1.00D-06 EigRej= -1.00D+00 NBFU=   468
 ExpMin= 9.52D-02 ExpMax= 2.70D+04 ExpMxC= 9.22D+02 IAcc=2 IRadAn=         4 AccDes= 0.00D+00
 Harris functional with IExCor= 4639 and IRadAn=       4 diagonalized for initial guess.
 HarFok:  IExCor= 4639 AccDes= 0.00D+00 IRadAn=         4 IDoV= 1 UseB2=F ITyADJ=14
 ICtDFT=  3500011 ScaDFX=  1.000000  1.000000  1.000000  1.000000
 FoFCou: FMM=F IPFlag=           0 FMFlag=      100000 FMFlg1=           0
         NFxFlg=           0 DoJE=T BraDBF=F KetDBF=T FulRan=T
         wScrn=  0.000000 ICntrl=     500 IOpCl=  0 I1Cent=   200000004 NGrid=           0
         NMat0=    1 NMatS0=      1 NMatT0=    0 NMatD0=    1 NMtDS0=    0 NMtDT0=    0
 Petite list used in FoFCou.
 Requested convergence on RMS density matrix=1.00D-08 within 128 cycles.
 Requested convergence on MAX density matrix=1.00D-06.
 Requested convergence on             energy=1.00D-06.
 No special actions if energy rises.
 Inv3:  Mode=1 IEnd=    16161123.
 Iteration    1 A*A^-1 deviation from unit magnitude is 5.66D-15 for    835.
 Iteration    1 A*A^-1 deviation from orthogonality  is 2.32D-15 for    974    243.
 Iteration    1 A^-1*A deviation from unit magnitude is 6.66D-15 for    244.
 Iteration    1 A^-1*A deviation from orthogonality  is 1.52D-12 for    572    516.
 Error on total polarization charges =  0.01998
 SCF Done:  E(RwB97XD) =  -615.431888033     A.U. after   13 cycles
            NFock= 13  Conv=0.49D-08     -V/T= 2.0046
 SMD-CDS (non-electrostatic) energy       (kcal/mol) =      -4.68
 (included in total energy above)
 DoSCS=F DFT=T ScalE2(SS,OS)=  1.000000  1.000000
 Range of M.O.s used for correlation:     1   468
 NBasis=   468 NAE=    48 NBE=    48 NFC=     0 NFV=     0
 NROrb=    468 NOA=    48 NOB=    48 NVA=   420 NVB=   420

 **** Warning!!: The largest alpha MO coefficient is  0.17707201D+02

   1 Symmetry operations used in ECPInt.
 ECPInt:  NShTT=   19306 NPrTT=   56928 LenC2=   16598 LenP2D=   35982.
 LDataN:  DoStor=T MaxTD1= 7 Len=  274
 Number of processors reduced to   6 by ecpmxn.
 Symmetrizing basis deriv contribution to polar:
 IMax=3 JMax=2 DiffMx= 0.00D+00
 G2DrvN: will do    29 centers at a time, making    1 passes.
 Calling FoFCou, ICntrl=  3107 FMM=F I1Cent=   0 AccDes= 0.00D+00.
 NEqPCM:  Using equilibrium solvation (IEInf=0, Eps=   2.3741, EpsInf=   2.2383)
 G2PCM: DoFxE=T DoFxN=T DoGrad=T DoDP/DQ/DG/TGxP=FFFF NFrqRd=   0 IEInf=0 SqF1=F DoCFld=F IF1Alg=4.
 End of G2Drv F.D. properties file   721 does not exist.
 End of G2Drv F.D. properties file   722 does not exist.
 End of G2Drv F.D. properties file   788 does not exist.
          IDoAtm=1111111111111111111111111111
 NEqPCM:  Using equilibrium solvation (IEInf=0, Eps=   2.3741, EpsInf=   2.2383)
          Differentiating once with respect to electric field.
                with respect to dipole field.
          Differentiating once with respect to nuclear coordinates.
          There are    87 degrees of freedom in the 1st order CPHF.  IDoFFX=6 NUNeed=     3.
     84 vectors produced by pass  0 Test12= 2.32D-14 1.15D-09 XBig12= 5.84D+01 4.38D+00.
 AX will form    84 AO Fock derivatives at one time.
     84 vectors produced by pass  1 Test12= 2.32D-14 1.15D-09 XBig12= 4.35D+00 3.01D-01.
     84 vectors produced by pass  2 Test12= 2.32D-14 1.15D-09 XBig12= 1.21D-01 5.94D-02.
     84 vectors produced by pass  3 Test12= 2.32D-14 1.15D-09 XBig12= 1.21D-03 4.31D-03.
     84 vectors produced by pass  4 Test12= 2.32D-14 1.15D-09 XBig12= 9.83D-06 4.77D-04.
     84 vectors produced by pass  5 Test12= 2.32D-14 1.15D-09 XBig12= 6.57D-08 2.03D-05.
     82 vectors produced by pass  6 Test12= 2.32D-14 1.15D-09 XBig12= 3.91D-10 1.57D-06.
     19 vectors produced by pass  7 Test12= 2.32D-14 1.15D-09 XBig12= 2.25D-12 1.75D-07.
      3 vectors produced by pass  8 Test12= 2.32D-14 1.15D-09 XBig12= 1.47D-14 1.67D-08.
      1 vectors produced by pass  9 Test12= 2.32D-14 1.15D-09 XBig12= 1.51D-16 1.53D-09.
 InvSVY:  IOpt=1 It=  1 EMax= 3.55D-15
 Solved reduced A of dimension   609 with    87 vectors.
 Isotropic polarizability for W=    0.000000      137.28 Bohr**3.
 End of Minotr F.D. properties file   721 does not exist.
 End of Minotr F.D. properties file   722 does not exist.
 End of Minotr F.D. properties file   788 does not exist.

 **********************************************************************

            Population analysis using the SCF density.

 **********************************************************************

 Orbital symmetries:
       Occupied  (A) (A) (A) (A) (A) (A) (A) (A) (A) (A) (A) (A)
                 (A) (A) (A) (A) (A) (A) (A) (A) (A) (A) (A) (A)
                 (A) (A) (A) (A) (A) (A) (A) (A) (A) (A) (A) (A)
                 (A) (A) (A) (A) (A) (A) (A) (A) (A) (A) (A) (A)
       Virtual   (A) (A) (A) (A) (A) (A) (A) (A) (A) (A) (A) (A)
                 (A) (A) (A) (A) (A) (A) (A) (A) (A) (A) (A) (A)
                 (A) (A) (A) (A) (A) (A) (A) (A) (A) (A) (A) (A)
                 (A) (A) (A) (A) (A) (A) (A) (A) (A) (A) (A) (A)
                 (A) (A) (A) (A) (A) (A) (A) (A) (A) (A) (A) (A)
                 (A) (A) (A) (A) (A) (A) (A) (A) (A) (A) (A) (A)
                 (A) (A) (A) (A) (A) (A) (A) (A) (A) (A) (A) (A)
                 (A) (A) (A) (A) (A) (A) (A) (A) (A) (A) (A) (A)
                 (A) (A) (A) (A) (A) (A) (A) (A) (A) (A) (A) (A)
                 (A) (A) (A) (A) (A) (A) (A) (A) (A) (A) (A) (A)
                 (A) (A) (A) (A) (A) (A) (A) (A) (A) (A) (A) (A)
                 (A) (A) (A) (A) (A) (A) (A) (A) (A) (A) (A) (A)
                 (A) (A) (A) (A) (A) (A) (A) (A) (A) (A) (A) (A)
                 (A) (A) (A) (A) (A) (A) (A) (A) (A) (A) (A) (A)
                 (A) (A) (A) (A) (A) (A) (A) (A) (A) (A) (A) (A)
                 (A) (A) (A) (A) (A) (A) (A) (A) (A) (A) (A) (A)
                 (A) (A) (A) (A) (A) (A) (A) (A) (A) (A) (A) (A)
                 (A) (A) (A) (A) (A) (A) (A) (A) (A) (A) (A) (A)
                 (A) (A) (A) (A) (A) (A) (A) (A) (A) (A) (A) (A)
                 (A) (A) (A) (A) (A) (A) (A) (A) (A) (A) (A) (A)
                 (A) (A) (A) (A) (A) (A) (A) (A) (A) (A) (A) (A)
                 (A) (A) (A) (A) (A) (A) (A) (A) (A) (A) (A) (A)
                 (A) (A) (A) (A) (A) (A) (A) (A) (A) (A) (A) (A)
                 (A) (A) (A) (A) (A) (A) (A) (A) (A) (A) (A) (A)
                 (A) (A) (A) (A) (A) (A) (A) (A) (A) (A) (A) (A)
                 (A) (A) (A) (A) (A) (A) (A) (A) (A) (A) (A) (A)
                 (A) (A) (A) (A) (A) (A) (A) (A) (A) (A) (A) (A)
                 (A) (A) (A) (A) (A) (A) (A) (A) (A) (A) (A) (A)
                 (A) (A) (A) (A) (A) (A) (A) (A) (A) (A) (A) (A)
                 (A) (A) (A) (A) (A) (A) (A) (A) (A) (A) (A) (A)
                 (A) (A) (A) (A) (A) (A) (A) (A) (A) (A) (A) (A)
                 (A) (A) (A) (A) (A) (A) (A) (A) (A) (A) (A) (A)
                 (A) (A) (A) (A) (A) (A) (A) (A) (A) (A) (A) (A)
                 (A) (A) (A) (A) (A) (A) (A) (A) (A) (A) (A) (A)
                 (A) (A) (A) (A) (A) (A) (A) (A) (A) (A) (A) (A)
 The electronic state is 1-A.
 Alpha  occ. eigenvalues --  -19.31517 -19.25571 -19.22441 -19.22007 -10.44025
 Alpha  occ. eigenvalues --  -10.36225 -10.30250 -10.29435 -10.28957 -10.28762
 Alpha  occ. eigenvalues --  -10.28238 -10.27588  -1.23500  -1.14561  -1.08918
 Alpha  occ. eigenvalues --   -1.08412  -0.92698  -0.88929  -0.86371  -0.83083
 Alpha  occ. eigenvalues --   -0.76583  -0.71013  -0.67191  -0.62519  -0.61412
 Alpha  occ. eigenvalues --   -0.60887  -0.60566  -0.59055  -0.58303  -0.55983
 Alpha  occ. eigenvalues --   -0.53719  -0.53473  -0.50672  -0.50086  -0.49673
 Alpha  occ. eigenvalues --   -0.48686  -0.47797  -0.46145  -0.45720  -0.44724
 Alpha  occ. eigenvalues --   -0.43951  -0.42832  -0.40929  -0.38809  -0.38439
 Alpha  occ. eigenvalues --   -0.38087  -0.37622  -0.30779
 Alpha virt. eigenvalues --    0.04166   0.06181   0.10098   0.11989   0.12674
 Alpha virt. eigenvalues --    0.13415   0.13901   0.14603   0.15814   0.16611
 Alpha virt. eigenvalues --    0.17095   0.18249   0.18714   0.20095   0.20348
 Alpha virt. eigenvalues --    0.20772   0.22297   0.22927   0.23380   0.23842
 Alpha virt. eigenvalues --    0.25101   0.25826   0.26564   0.26909   0.28233
 Alpha virt. eigenvalues --    0.28992   0.29659   0.30512   0.31028   0.31760
 Alpha virt. eigenvalues --    0.33585   0.34150   0.35368   0.35713   0.36387
 Alpha virt. eigenvalues --    0.37750   0.38277   0.39740   0.41770   0.42769
 Alpha virt. eigenvalues --    0.42861   0.43289   0.43965   0.44033   0.45355
 Alpha virt. eigenvalues --    0.45508   0.46597   0.46758   0.48031   0.48261
 Alpha virt. eigenvalues --    0.48590   0.49318   0.49912   0.50577   0.50674
 Alpha virt. eigenvalues --    0.51901   0.52151   0.52897   0.53358   0.53963
 Alpha virt. eigenvalues --    0.54048   0.54968   0.55298   0.55665   0.57506
 Alpha virt. eigenvalues --    0.58127   0.58530   0.60119   0.61172   0.62161
 Alpha virt. eigenvalues --    0.63088   0.63650   0.64846   0.66248   0.67114
 Alpha virt. eigenvalues --    0.68045   0.68206   0.68866   0.69492   0.71380
 Alpha virt. eigenvalues --    0.72342   0.73020   0.75394   0.75942   0.77914
 Alpha virt. eigenvalues --    0.78820   0.80626   0.82264   0.82623   0.83031
 Alpha virt. eigenvalues --    0.84080   0.84906   0.85957   0.86856   0.88718
 Alpha virt. eigenvalues --    0.89144   0.90245   0.92149   0.94333   0.95773
 Alpha virt. eigenvalues --    0.96641   0.98051   1.01600   1.03086   1.04289
 Alpha virt. eigenvalues --    1.04988   1.05983   1.07142   1.08069   1.08809
 Alpha virt. eigenvalues --    1.11365   1.13486   1.14251   1.15921   1.17439
 Alpha virt. eigenvalues --    1.18377   1.21251   1.21772   1.23503   1.24094
 Alpha virt. eigenvalues --    1.25899   1.27806   1.28226   1.28646   1.28819
 Alpha virt. eigenvalues --    1.31714   1.33142   1.34357   1.34539   1.37495
 Alpha virt. eigenvalues --    1.37708   1.41349   1.41730   1.45030   1.46198
 Alpha virt. eigenvalues --    1.46991   1.49956   1.51007   1.52572   1.55673
 Alpha virt. eigenvalues --    1.56496   1.57717   1.59747   1.60228   1.60825
 Alpha virt. eigenvalues --    1.61226   1.62074   1.62200   1.62617   1.63478
 Alpha virt. eigenvalues --    1.64259   1.65233   1.66802   1.68078   1.68213
 Alpha virt. eigenvalues --    1.69596   1.70327   1.70932   1.72644   1.73804
 Alpha virt. eigenvalues --    1.75307   1.76713   1.79143   1.79685   1.81794
 Alpha virt. eigenvalues --    1.84004   1.86397   1.88568   1.88902   1.90346
 Alpha virt. eigenvalues --    1.90964   1.92753   1.94516   1.95285   1.96181
 Alpha virt. eigenvalues --    1.96999   1.99661   2.00877   2.02007   2.02769
 Alpha virt. eigenvalues --    2.04382   2.05251   2.08418   2.09341   2.12331
 Alpha virt. eigenvalues --    2.13072   2.14973   2.16026   2.16750   2.18133
 Alpha virt. eigenvalues --    2.19222   2.20765   2.21297   2.22406   2.23506
 Alpha virt. eigenvalues --    2.25099   2.26900   2.28157   2.28759   2.30646
 Alpha virt. eigenvalues --    2.31261   2.32910   2.33486   2.36952   2.39272
 Alpha virt. eigenvalues --    2.39397   2.40427   2.40838   2.42012   2.42304
 Alpha virt. eigenvalues --    2.43795   2.44405   2.45073   2.46157   2.48383
 Alpha virt. eigenvalues --    2.49032   2.49884   2.51412   2.52748   2.53771
 Alpha virt. eigenvalues --    2.55539   2.59280   2.61259   2.62082   2.62416
 Alpha virt. eigenvalues --    2.63423   2.66111   2.66819   2.68337   2.68537
 Alpha virt. eigenvalues --    2.69921   2.70370   2.73155   2.73683   2.73913
 Alpha virt. eigenvalues --    2.75894   2.76217   2.77277   2.78386   2.79673
 Alpha virt. eigenvalues --    2.80276   2.80940   2.81828   2.82965   2.84932
 Alpha virt. eigenvalues --    2.86094   2.87110   2.89012   2.90443   2.92662
 Alpha virt. eigenvalues --    2.93245   2.95120   2.96159   2.98020   2.99073
 Alpha virt. eigenvalues --    3.00139   3.01526   3.01832   3.02504   3.03299
 Alpha virt. eigenvalues --    3.05032   3.06905   3.08809   3.09514   3.10122
 Alpha virt. eigenvalues --    3.11904   3.12779   3.14572   3.16440   3.17052
 Alpha virt. eigenvalues --    3.17754   3.18613   3.19410   3.19880   3.20721
 Alpha virt. eigenvalues --    3.22341   3.24173   3.24873   3.27165   3.27456
 Alpha virt. eigenvalues --    3.28072   3.28689   3.30097   3.32517   3.33505
 Alpha virt. eigenvalues --    3.34190   3.36077   3.36435   3.36459   3.38296
 Alpha virt. eigenvalues --    3.41332   3.42198   3.42714   3.45159   3.47684
 Alpha virt. eigenvalues --    3.50355   3.50798   3.53888   3.54464   3.55545
 Alpha virt. eigenvalues --    3.55971   3.62325   3.62928   3.64196   3.65097
 Alpha virt. eigenvalues --    3.68173   3.68983   3.69541   3.73218   3.75733
 Alpha virt. eigenvalues --    3.76690   3.78314   3.79120   3.81776   3.82122
 Alpha virt. eigenvalues --    3.83695   3.86257   3.87953   3.90239   3.93178
 Alpha virt. eigenvalues --    3.95761   3.96606   3.98340   4.05459   4.06179
 Alpha virt. eigenvalues --    4.07648   4.07920   4.08684   4.12872   4.13411
 Alpha virt. eigenvalues --    4.19914   4.21713   4.26614   4.30215   4.34052
 Alpha virt. eigenvalues --    4.41809   4.42943   4.45255   4.46113   4.47723
 Alpha virt. eigenvalues --    4.48670   4.53181   4.54308   4.56438   4.59945
 Alpha virt. eigenvalues --    4.64088   4.65246   4.72356   4.73251   4.76538
 Alpha virt. eigenvalues --    4.79918   4.80929   4.86408   4.90387   4.96355
 Alpha virt. eigenvalues --    5.05498   5.11047   5.16726   5.20994   5.21434
 Alpha virt. eigenvalues --    5.23942   5.24249   5.28536   5.31072   5.32180
 Alpha virt. eigenvalues --    5.32589   5.35211   5.48822   5.49549   5.49800
 Alpha virt. eigenvalues --    5.52758   5.53236   5.54537   5.57557   5.58935
 Alpha virt. eigenvalues --    5.69302   5.92877   5.97756   5.98175   6.12193
 Alpha virt. eigenvalues --    6.15546   6.17448   6.26090   6.32507   6.33637
 Alpha virt. eigenvalues --    6.36544   6.41815   6.44075   6.45416   6.49146
 Alpha virt. eigenvalues --    6.50127   6.52415   6.54360   6.56090   6.69962
 Alpha virt. eigenvalues --    6.71723   6.87847   6.88139   6.95547   6.97031
 Alpha virt. eigenvalues --    7.03873   7.04712   7.12216   7.14927   7.17358
 Alpha virt. eigenvalues --    7.23823   7.31960   7.53018  22.32126  22.41990
 Alpha virt. eigenvalues --   22.47017  22.47603  22.57508  22.94026  23.01867
 Alpha virt. eigenvalues --   23.46174  43.50871  43.56053  43.97814  44.37944
          Condensed to atoms (all electrons):
               1          2          3          4          5          6
     1  C    5.004211   0.403813   0.314508  -0.036303   0.624968  -0.045605
     2  H    0.403813   0.515412  -0.025241  -0.003782  -0.037899   0.004788
     3  C    0.314508  -0.025241   4.993919   0.361509  -0.058284  -0.002665
     4  H   -0.036303  -0.003782   0.361509   0.564316   0.008027   0.000310
     5  C    0.624968  -0.037899  -0.058284   0.008027   5.025714   0.404797
     6  H   -0.045605   0.004788  -0.002665   0.000310   0.404797   0.524793
     7  C   -0.030493  -0.004076   0.007702  -0.000612   0.282559  -0.025881
     8  H   -0.002039   0.000337  -0.001041   0.000012  -0.040143  -0.001683
     9  H    0.013026   0.003270   0.002014  -0.000005  -0.066439   0.004022
    10  H   -0.007187  -0.000165   0.000031   0.000014  -0.024475  -0.001907
    11  C   -0.039373   0.005194   0.588335  -0.045067  -0.005520   0.004613
    12  H   -0.005836   0.000247  -0.030241   0.005340   0.003828   0.000705
    13  C    0.008009  -0.000286  -0.043910  -0.016172   0.000950   0.000082
    14  H   -0.000795   0.000002   0.004128   0.000106   0.000378   0.000029
    15  H    0.001214   0.000013  -0.004058   0.000423  -0.000423  -0.000023
    16  C   -0.000036   0.000000  -0.003604  -0.000056  -0.000009   0.000000
    17  C    0.000027  -0.000001   0.002117   0.000189   0.000006   0.000001
    18  H   -0.000002   0.000000  -0.000058   0.000019  -0.000001   0.000000
    19  H    0.000000   0.000000   0.000017  -0.000005   0.000000   0.000000
    20  H    0.000004   0.000000  -0.000093  -0.000035   0.000000   0.000000
    21  O    0.001095   0.000047   0.020557  -0.001379  -0.000004   0.000012
    22  O   -0.000007   0.000000  -0.000473   0.000520   0.000000   0.000000
    23  O    0.000000   0.000000   0.000000   0.000000   0.000000   0.000000
    24  H    0.000000   0.000000  -0.000004  -0.000003   0.000000   0.000000
    25  H    0.000000   0.000000   0.000000   0.000000   0.000000   0.000000
    26  O    0.000439  -0.000106  -0.014883   0.033687   0.000048   0.000001
    27  H    0.000118   0.000008   0.004966  -0.005711   0.000002   0.000000
    28  H    0.000014   0.000007   0.001202  -0.002054  -0.000007   0.000000
               7          8          9         10         11         12
     1  C   -0.030493  -0.002039   0.013026  -0.007187  -0.039373  -0.005836
     2  H   -0.004076   0.000337   0.003270  -0.000165   0.005194   0.000247
     3  C    0.007702  -0.001041   0.002014   0.000031   0.588335  -0.030241
     4  H   -0.000612   0.000012  -0.000005   0.000014  -0.045067   0.005340
     5  C    0.282559  -0.040143  -0.066439  -0.024475  -0.005520   0.003828
     6  H   -0.025881  -0.001683   0.004022  -0.001907   0.004613   0.000705
     7  C    4.862051   0.415298   0.426486   0.402501   0.001078   0.000050
     8  H    0.415298   0.550991  -0.021942  -0.032052   0.000308   0.000026
     9  H    0.426486  -0.021942   0.534431  -0.020606   0.000043  -0.000002
    10  H    0.402501  -0.032052  -0.020606   0.555242  -0.000346  -0.000035
    11  C    0.001078   0.000308   0.000043  -0.000346   5.105512   0.406496
    12  H    0.000050   0.000026  -0.000002  -0.000035   0.406496   0.499233
    13  C   -0.000025   0.000005   0.000002  -0.000011   0.332004  -0.031908
    14  H   -0.000002   0.000000   0.000000  -0.000001  -0.054772  -0.001294
    15  H   -0.000001  -0.000001   0.000000   0.000001  -0.010569  -0.000957
    16  C    0.000000   0.000000   0.000000   0.000000   0.011849   0.000014
    17  C    0.000000   0.000000   0.000000   0.000000  -0.008194  -0.000053
    18  H    0.000000   0.000000   0.000000   0.000000  -0.000307   0.000002
    19  H    0.000000   0.000000   0.000000   0.000000  -0.000172  -0.000001
    20  H    0.000000   0.000000   0.000000   0.000000   0.002441  -0.000010
    21  O    0.000001   0.000000   0.000000   0.000000  -0.074941   0.002587
    22  O    0.000000   0.000000   0.000000   0.000000   0.000183   0.000013
    23  O    0.000000   0.000000   0.000000   0.000000   0.000000   0.000000
    24  H    0.000000   0.000000   0.000000   0.000000   0.000012   0.000000
    25  H    0.000000   0.000000   0.000000   0.000000   0.000000   0.000000
    26  O   -0.000001   0.000000   0.000000   0.000000  -0.002392  -0.000007
    27  H    0.000000   0.000000   0.000000   0.000000  -0.001112  -0.000017
    28  H    0.000000   0.000000   0.000000   0.000000  -0.000098   0.000002
              13         14         15         16         17         18
     1  C    0.008009  -0.000795   0.001214  -0.000036   0.000027  -0.000002
     2  H   -0.000286   0.000002   0.000013   0.000000  -0.000001   0.000000
     3  C   -0.043910   0.004128  -0.004058  -0.003604   0.002117  -0.000058
     4  H   -0.016172   0.000106   0.000423  -0.000056   0.000189   0.000019
     5  C    0.000950   0.000378  -0.000423  -0.000009   0.000006  -0.000001
     6  H    0.000082   0.000029  -0.000023   0.000000   0.000001   0.000000
     7  C   -0.000025  -0.000002  -0.000001   0.000000   0.000000   0.000000
     8  H    0.000005   0.000000  -0.000001   0.000000   0.000000   0.000000
     9  H    0.000002   0.000000   0.000000   0.000000   0.000000   0.000000
    10  H   -0.000011  -0.000001   0.000001   0.000000   0.000000   0.000000
    11  C    0.332004  -0.054772  -0.010569   0.011849  -0.008194  -0.000307
    12  H   -0.031908  -0.001294  -0.000957   0.000014  -0.000053   0.000002
    13  C    4.748501   0.428087   0.397089  -0.046135   0.010900  -0.008262
    14  H    0.428087   0.576171  -0.049215  -0.014404   0.016180  -0.003077
    15  H    0.397089  -0.049215   0.564647  -0.001185  -0.006212   0.001031
    16  C   -0.046135  -0.014404  -0.001185   4.530273   0.298923  -0.025433
    17  C    0.010900   0.016180  -0.006212   0.298923   5.061365   0.398582
    18  H   -0.008262  -0.003077   0.001031  -0.025433   0.398582   0.490764
    19  H    0.001266   0.000257  -0.000157  -0.020428   0.386944  -0.007065
    20  H    0.002641  -0.004640  -0.000731  -0.025621   0.385865  -0.023255
    21  O    0.237484  -0.035520  -0.034172   0.367280  -0.074571   0.003108
    22  O    0.002751   0.000108   0.000395   0.475627  -0.053936   0.000588
    23  O    0.000031   0.000001  -0.000001  -0.000445  -0.009296  -0.000310
    24  H   -0.000124  -0.000002   0.000008  -0.010197   0.006002   0.000039
    25  H    0.000000   0.000000   0.000000  -0.000278   0.001009  -0.000039
    26  O    0.001238  -0.000013   0.000010   0.002856   0.000654  -0.000001
    27  H    0.000812   0.000010  -0.000026   0.001604   0.000195  -0.000005
    28  H   -0.000105   0.000005   0.000018  -0.002947   0.000471  -0.000047
              19         20         21         22         23         24
     1  C    0.000000   0.000004   0.001095  -0.000007   0.000000   0.000000
     2  H    0.000000   0.000000   0.000047   0.000000   0.000000   0.000000
     3  C    0.000017  -0.000093   0.020557  -0.000473   0.000000  -0.000004
     4  H   -0.000005  -0.000035  -0.001379   0.000520   0.000000  -0.000003
     5  C    0.000000   0.000000  -0.000004   0.000000   0.000000   0.000000
     6  H    0.000000   0.000000   0.000012   0.000000   0.000000   0.000000
     7  C    0.000000   0.000000   0.000001   0.000000   0.000000   0.000000
     8  H    0.000000   0.000000   0.000000   0.000000   0.000000   0.000000
     9  H    0.000000   0.000000   0.000000   0.000000   0.000000   0.000000
    10  H    0.000000   0.000000   0.000000   0.000000   0.000000   0.000000
    11  C   -0.000172   0.002441  -0.074941   0.000183   0.000000   0.000012
    12  H   -0.000001  -0.000010   0.002587   0.000013   0.000000   0.000000
    13  C    0.001266   0.002641   0.237484   0.002751   0.000031  -0.000124
    14  H    0.000257  -0.004640  -0.035520   0.000108   0.000001  -0.000002
    15  H   -0.000157  -0.000731  -0.034172   0.000395  -0.000001   0.000008
    16  C   -0.020428  -0.025621   0.367280   0.475627  -0.000445  -0.010197
    17  C    0.386944   0.385865  -0.074571  -0.053936  -0.009296   0.006002
    18  H   -0.007065  -0.023255   0.003108   0.000588  -0.000310   0.000039
    19  H    0.464156  -0.012424   0.002910  -0.001586   0.021327  -0.007479
    20  H   -0.012424   0.513409   0.002066   0.001387   0.000458  -0.000254
    21  O    0.002910   0.002066   7.925883  -0.097470  -0.000017   0.000047
    22  O   -0.001586   0.001387  -0.097470   8.149869  -0.016964   0.024880
    23  O    0.021327   0.000458  -0.000017  -0.016964   8.085754   0.307192
    24  H   -0.007479  -0.000254   0.000047   0.024880   0.307192   0.354094
    25  H   -0.001211   0.000008   0.000004   0.001277   0.305675  -0.019342
    26  O   -0.000009  -0.000002  -0.001351  -0.016248  -0.000004   0.000029
    27  H    0.000000  -0.000002   0.000769   0.000912   0.000000  -0.000006
    28  H   -0.000001  -0.000028   0.001406   0.027853   0.000033   0.000357
              25         26         27         28
     1  C    0.000000   0.000439   0.000118   0.000014
     2  H    0.000000  -0.000106   0.000008   0.000007
     3  C    0.000000  -0.014883   0.004966   0.001202
     4  H    0.000000   0.033687  -0.005711  -0.002054
     5  C    0.000000   0.000048   0.000002  -0.000007
     6  H    0.000000   0.000001   0.000000   0.000000
     7  C    0.000000  -0.000001   0.000000   0.000000
     8  H    0.000000   0.000000   0.000000   0.000000
     9  H    0.000000   0.000000   0.000000   0.000000
    10  H    0.000000   0.000000   0.000000   0.000000
    11  C    0.000000  -0.002392  -0.001112  -0.000098
    12  H    0.000000  -0.000007  -0.000017   0.000002
    13  C    0.000000   0.001238   0.000812  -0.000105
    14  H    0.000000  -0.000013   0.000010   0.000005
    15  H    0.000000   0.000010  -0.000026   0.000018
    16  C   -0.000278   0.002856   0.001604  -0.002947
    17  C    0.001009   0.000654   0.000195   0.000471
    18  H   -0.000039  -0.000001  -0.000005  -0.000047
    19  H   -0.001211  -0.000009   0.000000  -0.000001
    20  H    0.000008  -0.000002  -0.000002  -0.000028
    21  O    0.000004  -0.001351   0.000769   0.001406
    22  O    0.001277  -0.016248   0.000912   0.027853
    23  O    0.305675  -0.000004   0.000000   0.000033
    24  H   -0.019342   0.000029  -0.000006   0.000357
    25  H    0.379130   0.000001   0.000000  -0.000018
    26  O    0.000001   8.031491   0.309820   0.331431
    27  H    0.000000   0.309820   0.389698  -0.030770
    28  H   -0.000018   0.331431  -0.030770   0.329592
 Mulliken charges:
               1
     1  C   -0.203768
     2  H    0.138416
     3  C   -0.116451
     4  H    0.136713
     5  C   -0.118075
     6  H    0.133614
     7  C   -0.336635
     8  H    0.131924
     9  H    0.125699
    10  H    0.128996
    11  C   -0.215206
    12  H    0.151815
    13  C   -0.024913
    14  H    0.138273
    15  H    0.142879
    16  C    0.462352
    17  C   -0.417168
    18  H    0.173730
    19  H    0.173662
    20  H    0.158816
    21  O   -0.245831
    22  O   -0.499678
    23  O   -0.693433
    24  H    0.344753
    25  H    0.333784
    26  O   -0.676688
    27  H    0.328735
    28  H    0.343684
 Sum of Mulliken charges =   0.00000
 Mulliken charges with hydrogens summed into heavy atoms:
               1
     1  C   -0.065352
     3  C    0.020262
     5  C    0.015539
     7  C    0.049984
    11  C   -0.063391
    13  C    0.256239
    16  C    0.462352
    17  C    0.089040
    21  O   -0.245831
    22  O   -0.499678
    23  O   -0.014896
    26  O   -0.004270
 APT charges:
               1
     1  C   -0.065189
     2  H    0.019109
     3  C    0.037502
     4  H    0.061532
     5  C    0.052064
     6  H    0.015799
     7  C    0.028403
     8  H   -0.020261
     9  H   -0.011494
    10  H   -0.025191
    11  C   -0.066456
    12  H    0.034111
    13  C    0.577802
    14  H   -0.041400
    15  H   -0.055259
    16  C    1.522692
    17  C   -0.164167
    18  H    0.058226
    19  H    0.079088
    20  H    0.052653
    21  O   -1.060202
    22  O   -1.073661
    23  O   -0.707720
    24  H    0.448557
    25  H    0.287942
    26  O   -0.672871
    27  H    0.280281
    28  H    0.408109
 Sum of APT charges =   0.00000
 APT charges with hydrogens summed into heavy atoms:
               1
     1  C   -0.046080
     3  C    0.099034
     5  C    0.067864
     7  C   -0.028543
    11  C   -0.032345
    13  C    0.481143
    16  C    1.522692
    17  C    0.025801
    21  O   -1.060202
    22  O   -1.073661
    23  O    0.028779
    26  O    0.015519
 Electronic spatial extent (au):  <R**2>=           4502.9816
 Charge=              0.0000 electrons
 Dipole moment (field-independent basis, Debye):
    X=             -3.6534    Y=             -6.1147    Z=             -0.2512  Tot=              7.1275
 Quadrupole moment (field-independent basis, Debye-Ang):
   XX=            -81.3472   YY=            -77.2148   ZZ=            -72.5755
   XY=             -4.6338   XZ=             -9.4432   YZ=             -0.4505
 Traceless Quadrupole moment (field-independent basis, Debye-Ang):
   XX=             -4.3014   YY=             -0.1690   ZZ=              4.4703
   XY=             -4.6338   XZ=             -9.4432   YZ=             -0.4505
 Octapole moment (field-independent basis, Debye-Ang**2):
  XXX=            -92.8390  YYY=            -48.7139  ZZZ=              2.7293  XYY=             10.0175
  XXY=             19.0419  XXZ=            -47.9625  XZZ=             18.9723  YZZ=              4.3303
  YYZ=              5.6563  XYZ=             -2.2877
 Hexadecapole moment (field-independent basis, Debye-Ang**3):
 XXXX=          -5104.5457 YYYY=           -931.1854 ZZZZ=           -118.9696 XXXY=            188.6323
 XXXZ=           -339.1361 YYYX=            -33.9425 YYYZ=             14.1453 ZZZX=            -12.8707
 ZZZY=              0.7595 XXYY=           -889.5405 XXZZ=           -822.5749 YYZZ=           -138.3815
 XXYZ=            -68.0736 YYXZ=             -9.4979 ZZXY=             -1.2265
 N-N= 6.863333374507D+02 E-N=-2.812490484768D+03  KE= 6.126356779589D+02
  Exact polarizability: 184.893  -6.665 130.719  -7.618  -7.499  96.242
 Approx polarizability: 141.758   0.001 127.258  -7.464  -8.061 100.556
   1 Symmetry operations used in ECPInt.
 ECPInt:  NShTT=   19306 NPrTT=   56928 LenC2=   16598 LenP2D=   35982.
 LDataN:  DoStor=T MaxTD1= 8 Len=  415
 D2PCM: PCM CHGder 2nd derivatives, FixD1E=F FixD2E=F DoIter=F DoCFld=F I1PDM=0
 Calling FoFJK, ICntrl=    100127 FMM=F ISym2X=0 I1Cent= 0 IOpClX= 0 NMat=1 NMatS=1 NMatT=0.
 Full mass-weighted force constant matrix:
 Low frequencies ---  -11.3618   -0.0008   -0.0003    0.0005    6.3765   14.5345
 Low frequencies ---   18.5122   32.6868   44.2639
 Diagonal vibrational polarizability:
      437.7426659     824.1903579     789.5630848
 Harmonic frequencies (cm**-1), IR intensities (KM/Mole), Raman scattering
 activities (A**4/AMU), depolarization ratios for plane and unpolarized
 incident light, reduced masses (AMU), force constants (mDyne/A),
 and normal coordinates:
                      1                      2                      3
                      A                      A                      A
 Frequencies --     16.5779                32.4261                43.7024
 Red. masses --      6.0479                 2.4032                 3.8952
 Frc consts  --      0.0010                 0.0015                 0.0044
 IR Inten    --      2.2154                19.2211                13.0377
  Atom  AN      X      Y      Z        X      Y      Z        X      Y      Z
     1   6    -0.03  -0.01   0.06     0.01   0.02   0.00     0.06  -0.01  -0.07
     2   1    -0.08  -0.01   0.08     0.02   0.02   0.01     0.06  -0.07  -0.14
     3   6    -0.02   0.01  -0.02     0.01  -0.02  -0.03     0.05  -0.05  -0.08
     4   1    -0.04   0.02  -0.05     0.02  -0.04  -0.03     0.06  -0.08  -0.17
     5   6     0.01  -0.03   0.11     0.01   0.05   0.03     0.06   0.10   0.02
     6   1     0.07  -0.04   0.09     0.01   0.04   0.02     0.06   0.16   0.08
     7   6     0.00  -0.05   0.20     0.02   0.10   0.07     0.07   0.16   0.05
     8   1     0.05  -0.07   0.23     0.06   0.12   0.08     0.13   0.25   0.04
     9   1    -0.05  -0.04   0.22     0.03   0.10   0.07     0.08   0.11   0.00
    10   1     0.00  -0.05   0.22    -0.02   0.12   0.09     0.02   0.17   0.13
    11   6     0.01   0.01  -0.06    -0.02  -0.04  -0.04     0.03  -0.03   0.02
    12   1     0.02   0.00  -0.04    -0.03  -0.02  -0.04     0.02  -0.02   0.12
    13   6     0.02   0.03  -0.12    -0.02  -0.06  -0.06     0.03  -0.03   0.04
    14   1     0.00   0.04  -0.15    -0.03  -0.04  -0.07     0.04  -0.07   0.08
    15   1     0.06   0.01  -0.14    -0.03  -0.08  -0.07     0.03   0.03   0.07
    16   6     0.01   0.04  -0.11    -0.01  -0.07   0.00     0.02   0.00  -0.04
    17   6     0.01   0.04  -0.07    -0.01  -0.07   0.01     0.05   0.01   0.03
    18   1     0.06   0.04  -0.08     0.01  -0.06   0.00     0.07  -0.04   0.05
    19   1     0.01   0.04  -0.01    -0.01  -0.08   0.03     0.05   0.05   0.03
    20   1    -0.02   0.04  -0.09    -0.03  -0.07   0.00     0.06   0.05   0.06
    21   8     0.00   0.04  -0.13    -0.01  -0.07  -0.03     0.02  -0.02  -0.03
    22   8     0.00   0.04  -0.12    -0.01  -0.07   0.02    -0.01   0.02  -0.12
    23   8    -0.03  -0.13   0.42     0.00   0.21   0.04    -0.01   0.05   0.06
    24   1    -0.01  -0.04   0.22    -0.03   0.06   0.02    -0.01   0.06   0.00
    25   1     0.14  -0.30   0.38     0.03   0.74   0.47    -0.07  -0.43  -0.35
    26   8     0.00   0.05  -0.19     0.02  -0.05  -0.06    -0.28  -0.15   0.10
    27   1     0.01   0.07  -0.17     0.01  -0.01  -0.05    -0.17  -0.28   0.15
    28   1     0.00   0.04  -0.17     0.01  -0.07  -0.02    -0.18  -0.06   0.00
                      4                      5                      6
                      A                      A                      A
 Frequencies --     50.0521                57.6843                66.7664
 Red. masses --      2.4868                 3.5473                 2.7278
 Frc consts  --      0.0037                 0.0070                 0.0072
 IR Inten    --     21.0269                55.9287                24.7179
  Atom  AN      X      Y      Z        X      Y      Z        X      Y      Z
     1   6     0.00  -0.01   0.00     0.04   0.00  -0.01    -0.05  -0.04  -0.09
     2   1     0.02  -0.04  -0.03     0.04  -0.01  -0.02    -0.11  -0.11  -0.15
     3   6     0.00   0.00   0.05     0.04  -0.01  -0.01    -0.03   0.00  -0.13
     4   1     0.00  -0.01   0.01     0.04  -0.02  -0.02    -0.05   0.01  -0.21
     5   6    -0.02   0.00  -0.02     0.04   0.02   0.00     0.01   0.00   0.03
     6   1    -0.05   0.03   0.02     0.03   0.03   0.01     0.09   0.08   0.08
     7   6    -0.02  -0.01  -0.10     0.04   0.04   0.01    -0.01  -0.05   0.10
     8   1    -0.07   0.01  -0.13     0.05   0.05   0.01     0.05   0.01   0.10
     9   1     0.01  -0.03  -0.13     0.04   0.03   0.00    -0.08  -0.11   0.06
    10   1     0.00  -0.02  -0.10     0.03   0.04   0.02     0.00  -0.09   0.21
    11   6     0.00   0.01   0.13     0.03  -0.01   0.00     0.00   0.03  -0.06
    12   1     0.00   0.02   0.19     0.03  -0.01   0.01     0.01   0.03   0.02
    13   6     0.00   0.02   0.14     0.03  -0.01   0.00     0.00   0.05  -0.04
    14   1    -0.02  -0.05   0.19     0.05   0.06  -0.05     0.01   0.01   0.00
    15   1     0.03   0.10   0.18     0.02  -0.07  -0.04    -0.01   0.10  -0.01
    16   6     0.00   0.00  -0.09     0.01   0.04   0.06     0.01   0.03   0.02
    17   6    -0.01   0.00  -0.10     0.03   0.07  -0.15     0.00   0.01   0.19
    18   1    -0.09  -0.03  -0.07    -0.04   0.17  -0.18     0.03  -0.10   0.24
    19   1    -0.01  -0.01  -0.19     0.03   0.07  -0.22     0.00  -0.01   0.22
    20   1     0.05   0.02  -0.05     0.09  -0.03  -0.20    -0.04   0.10   0.26
    21   8     0.01   0.01   0.02     0.02   0.01   0.10     0.00   0.05  -0.10
    22   8     0.01   0.00  -0.19    -0.01   0.05   0.18     0.02   0.02  -0.02
    23   8    -0.02  -0.03   0.05    -0.03  -0.18  -0.07     0.01  -0.12  -0.09
    24   1    -0.01  -0.02  -0.08     0.00  -0.06   0.01     0.03  -0.06  -0.09
    25   1     0.21   0.49   0.59     0.15   0.48   0.56     0.18   0.43   0.44
    26   8     0.02  -0.01   0.08    -0.19  -0.04  -0.13     0.00   0.01   0.11
    27   1     0.03  -0.10   0.06    -0.16   0.06  -0.06    -0.08  -0.15  -0.03
    28   1     0.02   0.00  -0.02    -0.13  -0.01   0.01     0.02   0.02   0.03
                      7                      8                      9
                      A                      A                      A
 Frequencies --     79.3514                88.4683               125.4755
 Red. masses --      4.1257                 3.3329                 4.5873
 Frc consts  --      0.0153                 0.0154                 0.0426
 IR Inten    --      7.3208                21.1488                 0.1661
  Atom  AN      X      Y      Z        X      Y      Z        X      Y      Z
     1   6    -0.01   0.14   0.15    -0.08  -0.04  -0.11    -0.07  -0.11   0.07
     2   1     0.00   0.26   0.28    -0.15  -0.17  -0.24     0.01  -0.08   0.08
     3   6     0.00   0.15   0.14    -0.06   0.04  -0.12    -0.08  -0.15   0.07
     4   1    -0.01   0.17   0.23    -0.09   0.04  -0.26    -0.10  -0.14   0.01
     5   6    -0.03  -0.05  -0.03    -0.02   0.04   0.04    -0.16  -0.03   0.00
     6   1    -0.05  -0.18  -0.15     0.06   0.18   0.16    -0.29  -0.08  -0.01
     7   6    -0.04  -0.10  -0.07    -0.05  -0.08   0.05    -0.10   0.19  -0.06
     8   1    -0.13  -0.27  -0.04    -0.04   0.02   0.01    -0.08   0.26  -0.08
     9   1    -0.03   0.02   0.04    -0.14  -0.20  -0.05     0.06   0.22  -0.06
    10   1     0.03  -0.08  -0.26     0.00  -0.17   0.19    -0.24   0.29  -0.09
    11   6     0.00   0.12  -0.02    -0.03   0.09   0.06    -0.01  -0.11   0.09
    12   1     0.00   0.11  -0.14    -0.02   0.10   0.20     0.05  -0.15   0.18
    13   6    -0.01   0.07  -0.07    -0.03   0.09   0.06     0.04  -0.03  -0.05
    14   1    -0.05   0.08  -0.09    -0.05   0.06   0.08    -0.01  -0.03  -0.07
    15   1     0.00   0.04  -0.08    -0.04   0.11   0.07     0.16   0.00  -0.05
    16   6     0.04  -0.02   0.00     0.01  -0.01   0.01     0.02   0.03  -0.02
    17   6    -0.02  -0.06   0.11    -0.07  -0.04  -0.15     0.03   0.03   0.01
    18   1     0.01  -0.10   0.13    -0.11   0.09  -0.20     0.04   0.00   0.02
    19   1    -0.01  -0.10   0.16    -0.06  -0.10  -0.15     0.03   0.04   0.01
    20   1    -0.09   0.01   0.14    -0.10  -0.11  -0.23     0.05   0.05   0.02
    21   8     0.03   0.04  -0.06     0.01   0.06   0.04     0.00   0.01  -0.16
    22   8     0.08  -0.04  -0.04     0.08  -0.05   0.09     0.02   0.03   0.07
    23   8     0.12   0.00  -0.01     0.17   0.07   0.05     0.28  -0.03   0.00
    24   1     0.11  -0.05  -0.02     0.14  -0.04   0.11     0.28  -0.02   0.08
    25   1     0.13   0.15   0.10     0.00  -0.11  -0.20     0.23   0.02   0.01
    26   8    -0.18  -0.18  -0.07     0.03  -0.12  -0.01    -0.04   0.10   0.01
    27   1     0.07  -0.14   0.16    -0.09  -0.23  -0.15    -0.17   0.02  -0.13
    28   1    -0.09  -0.10  -0.11     0.09  -0.07   0.05    -0.04   0.10   0.03
                     10                     11                     12
                      A                      A                      A
 Frequencies --    138.4139               149.1199               164.7975
 Red. masses --      5.0067                 2.9942                 1.8230
 Frc consts  --      0.0565                 0.0392                 0.0292
 IR Inten    --      3.0613                 2.2096                14.2950
  Atom  AN      X      Y      Z        X      Y      Z        X      Y      Z
     1   6     0.04   0.04  -0.05    -0.03   0.00  -0.03    -0.02  -0.04   0.00
     2   1     0.00   0.02  -0.07    -0.01   0.18   0.17    -0.02  -0.19  -0.16
     3   6     0.04   0.04  -0.04    -0.03  -0.03  -0.07    -0.01   0.00   0.07
     4   1     0.06   0.04   0.05    -0.04  -0.01   0.03    -0.02   0.03   0.19
     5   6     0.08   0.02  -0.01    -0.03  -0.12  -0.13    -0.02   0.08   0.10
     6   1     0.15   0.06   0.01    -0.05  -0.32  -0.31    -0.01   0.25   0.26
     7   6     0.05  -0.08   0.04    -0.01   0.08   0.11    -0.03  -0.01  -0.06
     8   1     0.06  -0.10   0.05     0.15  -0.11   0.25    -0.08   0.26  -0.19
     9   1    -0.03  -0.11   0.03     0.00   0.30   0.32    -0.02  -0.25  -0.30
    10   1     0.11  -0.13   0.08    -0.16   0.23  -0.04     0.02  -0.12   0.18
    11   6    -0.02   0.01  -0.07    -0.01  -0.03  -0.10     0.00  -0.03  -0.07
    12   1    -0.06   0.04  -0.17     0.02  -0.06  -0.18     0.01  -0.05  -0.21
    13   6    -0.06  -0.04   0.04    -0.01   0.01   0.05     0.01  -0.02  -0.08
    14   1    -0.02  -0.06   0.07     0.10   0.05   0.06     0.04   0.10  -0.17
    15   1    -0.15  -0.04   0.06    -0.11  -0.02   0.05    -0.01  -0.16  -0.15
    16   6    -0.03  -0.09   0.00    -0.03   0.05   0.03    -0.02   0.02   0.02
    17   6    -0.07  -0.11  -0.01    -0.01   0.06   0.01     0.01   0.04   0.03
    18   1    -0.05  -0.08  -0.03     0.08   0.12  -0.05     0.21   0.15  -0.08
    19   1    -0.07  -0.15   0.02    -0.02   0.06   0.11     0.00   0.03   0.24
    20   1    -0.11  -0.12  -0.04    -0.07  -0.01  -0.07    -0.14  -0.06  -0.12
    21   8    -0.02  -0.07   0.11    -0.02   0.03   0.20    -0.01   0.00   0.10
    22   8    -0.01  -0.10  -0.09    -0.03   0.05  -0.11    -0.03   0.03  -0.07
    23   8     0.21   0.00   0.02     0.10  -0.01   0.00     0.05  -0.01   0.00
    24   1     0.19  -0.10  -0.01     0.12   0.03  -0.07     0.06   0.03  -0.06
    25   1     0.16   0.03   0.01     0.19  -0.01   0.05     0.12  -0.01   0.04
    26   8    -0.19   0.32   0.02     0.06  -0.08  -0.01     0.02  -0.05   0.00
    27   1    -0.05   0.47   0.19     0.06  -0.15  -0.04     0.17   0.03   0.15
    28   1    -0.26   0.26  -0.03     0.07  -0.06  -0.06     0.02  -0.05  -0.05
                     13                     14                     15
                      A                      A                      A
 Frequencies --    172.0570               193.5412               201.4054
 Red. masses --      1.1703                 4.1209                 1.3600
 Frc consts  --      0.0204                 0.0909                 0.0325
 IR Inten    --      3.2023                 3.5001                97.3799
  Atom  AN      X      Y      Z        X      Y      Z        X      Y      Z
     1   6     0.01  -0.01   0.01    -0.11  -0.08  -0.02     0.00  -0.02  -0.03
     2   1     0.01   0.01   0.03    -0.11  -0.08  -0.02     0.00  -0.01  -0.02
     3   6     0.00  -0.01   0.00    -0.07   0.01   0.01     0.00   0.00   0.03
     4   1     0.00  -0.02  -0.05    -0.15   0.10   0.07    -0.01   0.04   0.18
     5   6     0.00  -0.02  -0.01    -0.13  -0.06  -0.03     0.00  -0.03  -0.04
     6   1    -0.02  -0.05  -0.03    -0.17  -0.07  -0.03     0.00  -0.04  -0.04
     7   6     0.01   0.01   0.00    -0.11   0.09   0.03     0.00   0.02   0.03
     8   1     0.01  -0.02   0.01     0.05   0.35   0.00     0.11   0.18   0.02
     9   1     0.02   0.05   0.03    -0.09  -0.05  -0.11    -0.03  -0.09  -0.07
    10   1    -0.01   0.04  -0.04    -0.27   0.11   0.28    -0.08   0.01   0.22
    11   6     0.02   0.00   0.04     0.06   0.05  -0.06     0.00  -0.01  -0.05
    12   1     0.02   0.00   0.09     0.12  -0.01  -0.12     0.02  -0.03  -0.19
    13   6     0.02   0.02   0.02     0.07   0.07  -0.05    -0.01   0.02   0.09
    14   1     0.02   0.00   0.03     0.07   0.16  -0.13     0.03  -0.14   0.24
    15   1     0.04   0.05   0.03     0.02  -0.07  -0.12    -0.05   0.20   0.20
    16   6     0.01  -0.01   0.01     0.14  -0.06   0.02    -0.01   0.01  -0.01
    17   6    -0.02  -0.03   0.00     0.07  -0.10  -0.01     0.00   0.01  -0.02
    18   1     0.38   0.29  -0.26    -0.12  -0.18   0.08     0.02   0.03  -0.04
    19   1    -0.04  -0.11   0.51     0.08  -0.13  -0.21     0.00   0.01   0.00
    20   1    -0.43  -0.25  -0.36     0.18  -0.01   0.12    -0.02  -0.01  -0.04
    21   8     0.01   0.02  -0.03     0.14   0.03   0.14    -0.01   0.01  -0.08
    22   8     0.04  -0.02   0.00     0.19  -0.09  -0.04     0.00   0.00   0.04
    23   8    -0.05   0.00  -0.01    -0.15   0.02   0.00     0.00   0.00   0.00
    24   1    -0.05  -0.02  -0.04    -0.17  -0.05  -0.04     0.00  -0.01   0.02
    25   1    -0.03   0.02   0.01    -0.17   0.00  -0.03    -0.01   0.02   0.01
    26   8    -0.02   0.03   0.00    -0.06   0.08   0.00     0.00  -0.03  -0.01
    27   1    -0.05  -0.03  -0.05     0.05   0.06   0.09     0.46   0.35   0.53
    28   1    -0.01   0.04  -0.01    -0.03   0.12  -0.06    -0.03  -0.06  -0.04
                     16                     17                     18
                      A                      A                      A
 Frequencies --    227.9092               240.4052               258.9999
 Red. masses --      1.1842                 1.5942                 2.8544
 Frc consts  --      0.0362                 0.0543                 0.1128
 IR Inten    --     26.3179                13.6094                 8.0178
  Atom  AN      X      Y      Z        X      Y      Z        X      Y      Z
     1   6     0.03   0.04   0.03     0.03   0.01   0.01    -0.05   0.10  -0.01
     2   1     0.05   0.11   0.11     0.03   0.07   0.07    -0.05   0.15   0.05
     3   6     0.02   0.02   0.04     0.02  -0.01  -0.05    -0.04   0.07  -0.06
     4   1     0.03   0.02   0.09     0.04  -0.06  -0.26    -0.02   0.04  -0.20
     5   6     0.02  -0.05  -0.06     0.02  -0.06  -0.05    -0.06   0.03  -0.06
     6   1     0.01  -0.12  -0.12     0.01  -0.12  -0.11    -0.03  -0.03  -0.12
     7   6     0.03   0.00   0.00     0.03   0.00   0.00    -0.09  -0.04   0.03
     8   1     0.21   0.43  -0.08     0.14   0.18  -0.02     0.00   0.05   0.04
     9   1    -0.02  -0.30  -0.28     0.02  -0.11  -0.10    -0.21  -0.13  -0.03
    10   1    -0.10  -0.06   0.46    -0.05  -0.01   0.20    -0.08  -0.10   0.20
    11   6     0.00   0.00  -0.02    -0.01   0.02   0.15    -0.05   0.08   0.07
    12   1    -0.01   0.00  -0.09    -0.02   0.06   0.39    -0.10   0.13   0.23
    13   6    -0.01   0.00   0.02     0.01   0.00  -0.10    -0.05  -0.07   0.01
    14   1     0.00  -0.03   0.04    -0.09   0.18  -0.29    -0.12  -0.10   0.01
    15   1    -0.02   0.04   0.04     0.15  -0.21  -0.23    -0.09  -0.08   0.01
    16   6    -0.02   0.00   0.00    -0.03   0.02   0.00     0.06  -0.05   0.00
    17   6    -0.02   0.00   0.00    -0.07   0.00   0.02     0.24   0.04   0.00
    18   1    -0.03   0.00   0.00    -0.10  -0.02   0.04     0.43   0.10  -0.08
    19   1    -0.02  -0.01  -0.01    -0.06  -0.04  -0.01     0.22   0.19   0.15
    20   1    -0.02   0.00   0.00    -0.07   0.03   0.04     0.23  -0.08  -0.11
    21   8    -0.02   0.00  -0.02    -0.02   0.02   0.03     0.05  -0.15  -0.01
    22   8    -0.01   0.00   0.00    -0.01   0.01  -0.01    -0.06   0.02   0.00
    23   8     0.01   0.00   0.00     0.01   0.00   0.00     0.01  -0.01  -0.01
    24   1     0.01  -0.01   0.02     0.00  -0.02   0.01     0.05   0.15  -0.10
    25   1    -0.01   0.00  -0.01    -0.01   0.01   0.00     0.19  -0.07   0.05
    26   8     0.00   0.01   0.01     0.00  -0.01   0.00     0.01   0.00   0.00
    27   1    -0.31  -0.23  -0.35     0.33   0.21   0.36    -0.02   0.19   0.04
    28   1     0.02   0.02   0.04    -0.01  -0.01  -0.05    -0.09  -0.10   0.08
                     19                     20                     21
                      A                      A                      A
 Frequencies --    319.1463               329.0413               345.4810
 Red. masses --      1.0773                 1.0882                 2.5745
 Frc consts  --      0.0646                 0.0694                 0.1810
 IR Inten    --     21.0522               173.5645                 2.8761
  Atom  AN      X      Y      Z        X      Y      Z        X      Y      Z
     1   6     0.00  -0.02   0.00     0.00   0.00   0.01    -0.03  -0.01   0.18
     2   1    -0.01  -0.03  -0.01     0.00   0.01   0.01    -0.18   0.08   0.32
     3   6     0.00   0.00   0.00     0.00  -0.01   0.00    -0.01   0.01  -0.20
     4   1    -0.01   0.01   0.01     0.00  -0.01  -0.01    -0.03  -0.01  -0.41
     5   6     0.00  -0.02   0.01     0.00   0.00   0.01     0.00  -0.09   0.17
     6   1     0.00  -0.01   0.02     0.00  -0.01   0.00    -0.09  -0.20   0.10
     7   6     0.01   0.01   0.00     0.01   0.00   0.00     0.06   0.03  -0.10
     8   1     0.01   0.01  -0.01     0.00   0.01  -0.01    -0.11   0.23  -0.25
     9   1     0.04   0.02   0.00     0.01  -0.01  -0.01     0.34  -0.06  -0.25
    10   1    -0.01   0.03  -0.02     0.01   0.00   0.00     0.02   0.07  -0.12
    11   6     0.01   0.01   0.00    -0.01  -0.01   0.00     0.00   0.03  -0.11
    12   1     0.02   0.00  -0.01    -0.01  -0.01   0.00    -0.04   0.08   0.14
    13   6     0.01   0.02  -0.01    -0.01   0.00   0.00    -0.03   0.02   0.04
    14   1     0.01   0.03  -0.01    -0.01  -0.01   0.01     0.07  -0.09   0.17
    15   1     0.02   0.01  -0.01     0.00   0.01   0.00    -0.18   0.14   0.12
    16   6     0.00   0.00  -0.01     0.00  -0.01   0.01     0.00  -0.01   0.01
    17   6    -0.03  -0.01   0.00    -0.02  -0.01  -0.01     0.02   0.00  -0.01
    18   1    -0.04  -0.03   0.02    -0.06  -0.02   0.00     0.03   0.00  -0.01
    19   1    -0.02  -0.03   0.00    -0.02  -0.01  -0.04     0.02   0.03  -0.01
    20   1    -0.04   0.01   0.02     0.01   0.00   0.01     0.04  -0.01  -0.01
    21   8     0.00   0.02   0.00    -0.01   0.00  -0.01     0.00   0.00   0.02
    22   8     0.00   0.00  -0.01     0.01  -0.02   0.04    -0.01  -0.01   0.00
    23   8    -0.01   0.01   0.00    -0.03   0.03   0.00     0.00   0.00   0.00
    24   1     0.02   0.12  -0.23     0.05   0.29  -0.56     0.00  -0.02   0.04
    25   1     0.23  -0.12   0.05     0.59  -0.29   0.13    -0.04   0.02  -0.01
    26   8     0.02  -0.03   0.00    -0.01   0.02   0.00     0.00   0.00   0.00
    27   1    -0.35   0.56  -0.09     0.14  -0.23   0.03     0.08   0.05   0.08
    28   1    -0.25  -0.32   0.48     0.11   0.14  -0.18    -0.01   0.00  -0.02
                     22                     23                     24
                      A                      A                      A
 Frequencies --    376.6957               476.5906               543.0938
 Red. masses --      2.9841                 3.8414                 2.6422
 Frc consts  --      0.2495                 0.5141                 0.4592
 IR Inten    --      8.5465                 8.4246                12.3578
  Atom  AN      X      Y      Z        X      Y      Z        X      Y      Z
     1   6     0.04   0.18   0.08    -0.01   0.03  -0.04     0.05  -0.04   0.03
     2   1     0.18   0.35   0.22     0.00   0.04  -0.02     0.08  -0.04   0.01
     3   6    -0.01  -0.17  -0.09    -0.11  -0.07   0.05     0.09   0.02  -0.02
     4   1     0.10  -0.28  -0.16     0.00  -0.15   0.15     0.03   0.06  -0.09
     5   6    -0.04   0.17  -0.02     0.08  -0.02   0.01    -0.04   0.03  -0.01
     6   1    -0.04   0.01  -0.18     0.14  -0.01  -0.01    -0.10   0.02   0.00
     7   6    -0.12  -0.07   0.01     0.13  -0.01  -0.01    -0.08   0.00   0.01
     8   1    -0.17  -0.07  -0.01     0.11   0.03  -0.04    -0.06  -0.03   0.03
     9   1    -0.35  -0.21  -0.09     0.21  -0.01  -0.03    -0.17   0.00   0.02
    10   1     0.11  -0.26   0.16     0.10   0.02  -0.04    -0.05  -0.03   0.04
    11   6    -0.01  -0.17  -0.06    -0.19  -0.09   0.04     0.15   0.03  -0.02
    12   1     0.06  -0.22   0.10    -0.12  -0.15  -0.05     0.14   0.05   0.06
    13   6     0.06   0.00   0.02    -0.12   0.11  -0.03     0.11   0.08   0.00
    14   1     0.17  -0.03   0.09    -0.06   0.21  -0.09     0.18   0.10   0.00
    15   1     0.04   0.08   0.07    -0.02   0.05  -0.08     0.12   0.08   0.00
    16   6     0.02   0.03   0.00    -0.07  -0.05   0.00    -0.11  -0.09   0.02
    17   6    -0.04   0.00   0.00     0.18   0.06   0.00     0.05  -0.04  -0.01
    18   1    -0.07   0.00   0.01     0.37  -0.01  -0.02     0.17  -0.07  -0.03
    19   1    -0.03  -0.04  -0.03     0.13   0.43   0.01     0.02   0.25  -0.03
    20   1    -0.04   0.03   0.02     0.41  -0.07  -0.02     0.26  -0.15  -0.02
    21   8     0.01   0.06   0.02    -0.10   0.15   0.02    -0.08   0.10   0.00
    22   8     0.08   0.00  -0.01     0.11  -0.15  -0.01    -0.12  -0.11   0.01
    23   8    -0.01   0.00   0.00    -0.01   0.00   0.00     0.00  -0.01  -0.01
    24   1    -0.02  -0.03  -0.03    -0.02  -0.03   0.01     0.06   0.24   0.18
    25   1     0.00   0.00   0.00    -0.03   0.02   0.00     0.04  -0.01   0.01
    26   8     0.00  -0.01   0.00    -0.01   0.00   0.00     0.02   0.01   0.02
    27   1     0.01   0.15   0.06    -0.02   0.05   0.01    -0.02  -0.04  -0.04
    28   1    -0.02  -0.03   0.11     0.00   0.01   0.06    -0.37  -0.29  -0.44
                     25                     26                     27
                      A                      A                      A
 Frequencies --    556.3337               590.9783               605.9249
 Red. masses --      1.3513                 1.4145                 1.5536
 Frc consts  --      0.2464                 0.2911                 0.3361
 IR Inten    --     34.2303               141.1598               184.2830
  Atom  AN      X      Y      Z        X      Y      Z        X      Y      Z
     1   6    -0.02   0.03  -0.02     0.01  -0.01   0.01     0.01  -0.01   0.01
     2   1    -0.03   0.05   0.01     0.01  -0.02   0.00     0.01  -0.03  -0.01
     3   6    -0.06  -0.03   0.01     0.02   0.01   0.00     0.03   0.02   0.00
     4   1    -0.03  -0.04   0.06     0.01   0.02  -0.02     0.03   0.01  -0.03
     5   6     0.02   0.00   0.01    -0.01   0.00   0.00    -0.01   0.00   0.00
     6   1     0.06  -0.01  -0.02    -0.02   0.01   0.01    -0.03   0.01   0.02
     7   6     0.05   0.00   0.00    -0.01   0.00   0.00    -0.02   0.00   0.00
     8   1     0.02   0.01  -0.02     0.00   0.00   0.01     0.00   0.00   0.01
     9   1     0.08  -0.01  -0.02    -0.03   0.00   0.01    -0.03   0.01   0.01
    10   1     0.04   0.00  -0.02    -0.02   0.00   0.01    -0.03   0.00   0.01
    11   6    -0.05  -0.02   0.01     0.01   0.01   0.00     0.00   0.01  -0.01
    12   1    -0.02  -0.06  -0.03    -0.01   0.03   0.00    -0.03   0.04   0.00
    13   6    -0.03   0.01   0.00     0.00  -0.02  -0.01    -0.01  -0.03  -0.01
    14   1    -0.06   0.01  -0.01    -0.01  -0.03   0.00    -0.02  -0.04   0.00
    15   1    -0.01   0.00  -0.01     0.01  -0.01   0.00    -0.01  -0.02   0.00
    16   6     0.07   0.01   0.06    -0.01   0.00   0.16     0.00   0.00   0.17
    17   6    -0.02  -0.02   0.00     0.01   0.05   0.01    -0.02   0.03   0.02
    18   1    -0.16   0.10  -0.03    -0.17   0.29  -0.06    -0.20   0.31  -0.08
    19   1     0.00  -0.14  -0.08     0.02   0.03  -0.19    -0.02   0.06  -0.19
    20   1    -0.06  -0.06  -0.05     0.17  -0.16  -0.11     0.13  -0.20  -0.12
    21   8     0.04  -0.01  -0.01    -0.02   0.00  -0.04    -0.02  -0.01  -0.05
    22   8     0.01   0.05  -0.01     0.01  -0.01  -0.04     0.05  -0.03  -0.08
    23   8    -0.01   0.00  -0.01     0.01   0.02   0.02    -0.01  -0.01  -0.02
    24   1     0.06   0.28   0.20    -0.15  -0.66  -0.48     0.12   0.56   0.42
    25   1     0.04  -0.02   0.01    -0.10   0.03  -0.03     0.08  -0.02   0.03
    26   8     0.02   0.01   0.02     0.01   0.00   0.01    -0.01  -0.01  -0.01
    27   1    -0.05  -0.01  -0.05    -0.03   0.02  -0.02     0.01   0.03   0.02
    28   1    -0.51  -0.41  -0.56    -0.13  -0.11  -0.13     0.24   0.19   0.28
                     28                     29                     30
                      A                      A                      A
 Frequencies --    626.4681               716.3969               799.6845
 Red. masses --      3.4121                 3.0476                 1.6497
 Frc consts  --      0.7890                 0.9215                 0.6216
 IR Inten    --     40.7260                 8.8396                 2.8177
  Atom  AN      X      Y      Z        X      Y      Z        X      Y      Z
     1   6     0.05  -0.06   0.03     0.16  -0.10   0.10    -0.05   0.10   0.04
     2   1     0.03  -0.14  -0.05     0.18  -0.31  -0.15    -0.03  -0.22  -0.32
     3   6     0.12   0.07  -0.01     0.15   0.02   0.03    -0.08   0.00   0.11
     4   1     0.10   0.06  -0.11     0.26  -0.13  -0.21    -0.04  -0.09  -0.31
     5   6    -0.03  -0.01  -0.02    -0.02  -0.02  -0.06    -0.01  -0.04  -0.06
     6   1    -0.10   0.05   0.08    -0.16   0.17   0.19     0.11   0.28   0.21
     7   6    -0.07   0.01   0.00    -0.08   0.00  -0.01     0.05  -0.03  -0.02
     8   1     0.00  -0.02   0.05     0.11  -0.06   0.11     0.26   0.00   0.07
     9   1    -0.12   0.03   0.04    -0.23   0.07   0.09     0.10   0.08   0.08
    10   1    -0.10   0.02   0.03    -0.16   0.03   0.07    -0.16   0.10   0.01
    11   6    -0.01   0.02  -0.02    -0.15  -0.05  -0.06     0.03  -0.02  -0.09
    12   1    -0.18   0.17   0.06    -0.26   0.07   0.22     0.05   0.02   0.53
    13   6    -0.07  -0.16   0.01    -0.17   0.10  -0.05     0.06  -0.01  -0.05
    14   1    -0.03  -0.17   0.03    -0.07   0.04   0.05     0.22  -0.15   0.14
    15   1    -0.11  -0.12   0.04    -0.27   0.17   0.01    -0.13   0.16   0.07
    16   6    -0.05   0.08  -0.10     0.08   0.01   0.01    -0.02  -0.01   0.01
    17   6    -0.07   0.19   0.00     0.07  -0.11  -0.01    -0.03   0.03   0.00
    18   1     0.10   0.00   0.06    -0.01  -0.08  -0.01     0.00   0.02   0.00
    19   1    -0.09   0.28   0.14     0.09  -0.26  -0.02    -0.03   0.07  -0.01
    20   1    -0.11   0.31   0.09    -0.02  -0.08  -0.01     0.01   0.02   0.01
    21   8    -0.07  -0.04   0.03     0.02   0.06   0.02     0.01  -0.02   0.02
    22   8     0.23  -0.08   0.03    -0.03   0.09   0.00    -0.01  -0.02   0.00
    23   8    -0.01   0.00   0.00     0.00   0.00   0.00     0.00   0.00   0.00
    24   1     0.01   0.11   0.07     0.00  -0.02  -0.02     0.00   0.00   0.00
    25   1     0.01  -0.01   0.01    -0.01   0.00   0.00     0.00   0.00   0.00
    26   8     0.01   0.01   0.02     0.00   0.00   0.00     0.00   0.00   0.00
    27   1    -0.06   0.02  -0.04     0.01  -0.01   0.00     0.01   0.01   0.01
    28   1    -0.35  -0.28  -0.36     0.01   0.01   0.01     0.00   0.00   0.00
                     31                     32                     33
                      A                      A                      A
 Frequencies --    851.3090               875.7079               932.2551
 Red. masses --      2.1655                 2.7009                 1.6882
 Frc consts  --      0.9247                 1.2203                 0.8645
 IR Inten    --      3.8285                 2.3099                10.9829
  Atom  AN      X      Y      Z        X      Y      Z        X      Y      Z
     1   6    -0.04   0.14   0.03     0.05   0.07   0.09     0.01  -0.03   0.11
     2   1    -0.21  -0.15  -0.24    -0.02  -0.18  -0.17    -0.02  -0.13   0.01
     3   6     0.05   0.03  -0.08     0.02  -0.05  -0.10    -0.08  -0.02  -0.06
     4   1     0.14  -0.01   0.12     0.13  -0.10   0.16    -0.20   0.09  -0.03
     5   6     0.00  -0.08   0.00     0.01  -0.05  -0.02    -0.06   0.03  -0.06
     6   1     0.18   0.26   0.27     0.05   0.26   0.27    -0.33   0.18   0.17
     7   6    -0.06  -0.04  -0.01    -0.05  -0.02  -0.02     0.13   0.02  -0.07
     8   1     0.07   0.11  -0.01     0.14   0.02   0.05     0.44  -0.26   0.19
     9   1     0.19   0.08   0.05     0.00   0.08   0.07    -0.39   0.05   0.07
    10   1    -0.37   0.19  -0.07    -0.26   0.12   0.00     0.26  -0.16   0.22
    11   6    -0.03  -0.04   0.05    -0.02  -0.01   0.06     0.02   0.04   0.02
    12   1    -0.11  -0.01  -0.36     0.16  -0.21  -0.44     0.04  -0.01  -0.28
    13   6     0.06  -0.12   0.06    -0.01   0.17   0.02     0.00  -0.03   0.03
    14   1     0.05   0.05  -0.09    -0.19   0.20  -0.08    -0.06   0.03  -0.05
    15   1     0.28  -0.20  -0.02     0.06   0.03  -0.07     0.06  -0.10  -0.02
    16   6     0.00   0.05   0.00     0.01  -0.09  -0.02    -0.01   0.02   0.00
    17   6     0.04  -0.10  -0.01    -0.06   0.17   0.02     0.01  -0.03   0.00
    18   1     0.07  -0.12  -0.01    -0.12   0.19   0.02     0.03  -0.04   0.00
    19   1     0.05  -0.10  -0.01    -0.07   0.16   0.02     0.01  -0.02   0.00
    20   1     0.08  -0.12  -0.01    -0.14   0.19   0.01     0.03  -0.04   0.00
    21   8    -0.06   0.08  -0.01     0.11  -0.09  -0.01    -0.03   0.00  -0.01
    22   8     0.02   0.05   0.00    -0.06  -0.09   0.00     0.02   0.02   0.00
    23   8     0.00   0.00   0.00     0.00   0.00   0.00     0.00   0.00   0.00
    24   1     0.00   0.00   0.00     0.00  -0.01   0.00     0.00   0.00   0.00
    25   1     0.00   0.00   0.00     0.00   0.00   0.00     0.00   0.00   0.00
    26   8     0.00   0.00   0.00     0.00   0.00   0.00     0.00   0.00   0.00
    27   1    -0.01   0.00  -0.01     0.00  -0.01   0.00     0.00   0.01   0.00
    28   1    -0.01  -0.01  -0.01     0.02   0.01   0.01     0.00   0.00   0.00
                     34                     35                     36
[...]
 -0.00146568,0.00197335,0.00215372,-0.00265076,-0.00039254,-0.03360166,
 0.00043841,0.06933080,0.00010311,-0.00035844,0.00038772,-0.00025604,0.
 00009195,-0.00011244,0.00011297,0.00038579,-0.00006472,0.00052955,-0.0
 0039319,0.00013457,-0.00007654,0.00027296,-0.00010149,0.00004530,0.000
 01386,-0.00005497,-0.00013515,-0.00018120,0.00009221,-0.00012846,0.000
 07604,0.00002070,-0.00003708,0.00004560,-0.00004338,-0.00015913,0.0000
 2203,-0.00006265,-0.00019274,-0.00392258,0.00029998,-0.00143572,0.0004
 7384,-0.00023520,0.00376306,0.01330611,0.00103357,-0.00167000,-0.00212
 056,-0.00057044,-0.00216931,-0.00258926,0.00063378,-0.22049246,-0.2415
 2663,0.00042311,0.01267109,0.00455933,-0.00008266,0.00049557,0.0025114
 4,0.00077999,0.00256502,-0.00147802,0.00004186,0.00075128,0.00279050,-
 0.00003559,-0.09353031,-0.07951992,0.00434726,0.31554981,0.00011681,-0
 .00014302,0.00038288,-0.00031255,0.00006642,-0.00015865,-0.00045957,0.
 00003102,0.00003923,0.00022194,-0.00068982,0.00001286,-0.00012139,0.00
 029400,-0.00003790,0.00003806,-0.00000077,-0.00007853,-0.00010974,-0.0
 0017483,0.00005151,-0.00010695,0.00004276,0.00002291,-0.00004051,0.000
 03538,-0.00005310,-0.00011846,0.00003809,-0.00004621,0.00061146,-0.002
 00937,0.00011135,-0.00091030,0.00027850,-0.00018959,0.00565649,0.01076
 029,0.00025706,-0.00093756,-0.00090789,0.00011755,-0.00144508,-0.00145
 050,0.00001284,-0.21747778,-0.58150345,-0.00353372,-0.02122302,-0.0511
 1290,-0.00216517,0.00201060,-0.00469326,0.00147504,-0.00221383,0.00150
 892,0.00064326,0.00297623,-0.00577911,-0.00227801,-0.07337284,-0.00329
 132,0.00407534,0.30035950,0.64185081,-0.00000195,-0.00001877,-0.000006
 67,0.00002911,-0.00001788,-0.00000386,-0.00000913,0.00015410,0.0001053
 8,0.00003499,-0.00005188,-0.00012560,0.00000178,0.00000546,0.00000611,
 -0.00000498,-0.00001797,0.00000490,-0.00000363,0.00000010,0.00000167,-
 0.00000649,0.00000133,0.00000283,0.00000436,-0.00000710,0.00000187,0.0
 0000350,0.00000202,-0.00000221,0.00012685,0.00061798,0.00017025,0.0001
 6107,-0.00009651,-0.00016197,0.00057746,-0.00115234,0.00763442,0.00067
 985,0.00085000,-0.00019360,-0.00093490,-0.00095436,-0.00037508,0.00139
 602,-0.00150608,-0.08114235,-0.00093747,-0.00439324,0.02842772,-0.0019
 4580,0.00459085,-0.00072353,0.00015644,-0.00030737,-0.00049952,0.00252
 397,-0.00383699,-0.00126250,0.00473656,0.00493063,0.01449443,-0.006867
 52,0.00175376,0.03766161,0.00001504,-0.00009612,0.00007651,-0.00004314
 ,0.00001702,-0.00002303,-0.00001454,0.00007421,-0.00002110,0.00010160,
 -0.00007911,0.00003503,-0.00000149,0.00005131,-0.00002357,0.00000875,0
 .00000414,-0.00000756,-0.00003206,-0.00003892,0.00002225,-0.00002841,0
 .00001927,0.00000642,-0.00000732,0.00001072,-0.00001025,-0.00003612,0.
 00000295,-0.00001568,0.00006536,-0.00025041,0.00003146,-0.00016189,0.0
 0002467,-0.00002599,0.00089857,0.00148952,-0.00000395,-0.00012612,-0.0
 0019517,0.00002424,-0.00016717,-0.00026586,0.00003741,0.00607619,0.008
 74494,-0.00020786,-0.00020549,-0.00146582,-0.00014608,-0.00015478,-0.0
 0017522,-0.00001834,0.00003903,0.00107315,-0.00001848,-0.00024243,-0.0
 0021197,0.00000292,-0.00583082,-0.00233129,0.00030703,-0.01483702,-0.0
 0559651,-0.00020966,0.60368883,0.00000931,-0.00000064,0.00002880,-0.00
 002087,0.00000038,-0.00001567,-0.00004609,-0.00000426,0.00000522,0.000
 00793,-0.00002800,-0.00000885,-0.00000380,0.00002285,0.00000294,0.0000
 0129,-0.00000302,-0.00000793,-0.00000797,-0.00001406,0.00000189,-0.000
 00846,0.00000179,0.00000366,-0.00000284,0.00000183,-0.00000604,-0.0000
 0617,0.00000423,-0.00000329,0.00008311,0.00007776,0.00001875,-0.000008
 05,0.00000030,-0.00001114,0.00013657,0.00001455,-0.00004720,0.00001685
 ,0.00002289,0.00008603,0.00002009,-0.00002345,-0.00004980,0.00154391,-
 0.00239751,-0.00024592,0.00020005,-0.00031314,0.00028109,-0.00025517,0
 .00005852,-0.00005330,0.00053720,0.00102619,-0.00059813,-0.00057888,0.
 00002777,-0.00000210,-0.00029012,0.00072372,0.00012072,-0.00080442,0.0
 0409260,-0.00011109,-0.00278036,0.22855641,-0.00000081,0.00000972,0.00
 000219,0.00000545,-0.00001000,-0.00000630,0.00000500,0.00000357,0.0000
 2764,-0.00000159,-0.00000899,-0.00003003,0.00000317,0.00001257,0.00000
 445,-0.00000157,-0.00000980,-0.00000196,-0.00000233,-0.00000297,-0.000
 00086,-0.00000490,0.00000151,0.00000274,0.00000097,-0.00000400,-0.0000
 0004,0.00000065,0.00000231,-0.00000262,-0.00001118,0.00001045,0.000039
 72,0.00000454,-0.00000339,-0.00001278,-0.00002350,-0.00003460,-0.00023
 330,-0.00000955,0.00001417,0.00001250,0.00001859,0.00001235,0.00000879
 ,-0.00033997,-0.00054357,-0.00017853,0.00018392,0.00014040,0.00079599,
 0.00031788,0.00015001,0.00000515,-0.00022223,-0.00049054,-0.00117356,-
 0.00025257,-0.00004205,0.00002238,0.00013909,0.00012407,-0.00021582,0.
 00082808,0.00025147,0.00340556,-0.14237589,-0.24091553,0.30121100,-0.0
 0002143,0.00012925,-0.00010142,0.00005715,-0.00002299,0.00002858,0.000
 00303,-0.00010640,0.00003066,-0.00014711,0.00011120,-0.00005158,0.0000
 1052,-0.00006729,0.00003112,-0.00001140,-0.00000505,0.00001062,0.00003
 944,0.00004864,-0.00002921,0.00003608,-0.00002330,-0.00000707,0.000009
 37,-0.00001335,0.00001256,0.00004496,-0.00000425,0.00001881,-0.0000556
 3,0.00046339,-0.00003833,0.00023985,-0.00004149,0.00003707,-0.00127156
 ,-0.00223636,-0.00010412,0.00020631,0.00032632,0.00004294,0.00029819,0
 .00041480,-0.00009919,-0.01130400,-0.01580885,0.00015723,0.00028230,0.
 00120564,0.00052969,-0.00018658,0.00045392,-0.00003916,0.00052661,-0.0
 0059139,-0.00022573,-0.00029293,0.00047112,0.00000067,0.00917791,0.003
 95233,-0.00061208,0.00638237,0.00987489,0.00133899,-0.46158407,0.09463
 051,0.01007957,0.47643505,-0.00000847,0.00000773,-0.00002549,0.0000191
 8,-0.00000251,0.00001230,0.00004156,-0.00000136,-0.00000054,-0.0000122
 3,0.00002653,0.00000201,0.00000364,-0.00001977,0.00000066,-0.00000182,
 0.00000102,0.00000564,0.00000807,0.00001286,-0.00000312,0.00000774,-0.
 00000270,-0.00000266,0.00000263,-0.00000234,0.00000478,0.00000747,-0.0
 0000305,0.00000337,-0.00007391,-0.00006525,-0.00001246,0.00001530,-0.0
 0000036,0.00000833,-0.00018231,-0.00005985,0.00004311,-0.00000854,-0.0
 0000711,-0.00007751,-0.00001155,0.00003065,0.00004285,-0.00452341,0.00
 114048,0.00009329,-0.00107515,-0.00010000,0.00000925,0.00042213,0.0000
 4285,0.00005598,-0.00068606,-0.00307625,-0.00022749,0.00052847,0.00003
 169,-0.00000436,0.00044413,-0.00064365,-0.00011752,0.00380380,-0.00507
 966,-0.00001621,0.13223408,-0.05534362,0.01899247,-0.10223199,0.058624
 26,-0.00000022,-0.00000324,-0.00000331,-0.00000274,0.00000626,0.000004
 84,-0.00000194,-0.00000709,-0.00002143,-0.00000592,0.00000970,0.000022
 64,-0.00000137,-0.00001108,-0.00000149,0.00000102,0.00000715,0.0000015
 3,0.00000281,0.00000330,-0.00000055,0.00000452,-0.00000174,-0.00000180
 ,-0.00000060,0.00000248,0.00000004,0.00000086,-0.00000165,0.00000220,0
 .00001468,0.00002151,-0.00003086,0.00000986,-0.00000065,0.00000616,0.0
 0003276,-0.00004624,0.00036896,0.00002723,0.00001498,-0.00002135,-0.00
 002984,-0.00001884,-0.00000966,-0.00029437,-0.00011313,0.00019497,-0.0
 0000091,0.00010912,-0.00086224,-0.00013546,-0.00013819,-0.00000836,-0.
 00012089,-0.00033281,0.00078299,0.00024407,0.00015678,0.00001206,0.000
 27721,0.00009157,0.00051632,0.00013197,-0.00007065,-0.00477224,-0.0296
 3603,0.02853369,-0.03034880,-0.00670720,-0.02164643,0.03567588,0.00000
 045,0.00001697,-0.00000946,0.00000165,-0.00000101,0.00000302,-0.000007
 28,-0.00001325,-0.00000152,-0.00001265,0.00000861,-0.00000050,-0.00000
 477,-0.00000633,0.00000354,-0.00000097,0.,0.00000005,0.00000586,0.0000
 0568,-0.00000368,0.00000486,-0.00000415,-0.00000161,0.00000068,-0.0000
 0142,0.00000132,0.00000617,0.00000015,0.00000331,-0.00000389,0.0000142
 8,-0.00000620,0.00001540,0.00000114,0.00000240,-0.00010676,-0.00015284
 ,0.00006078,0.00001248,0.00001503,-0.00000083,0.00000650,0.00001721,-0
 .00000949,-0.00041320,-0.00023442,0.,0.00012530,0.00004773,-0.00007708
 ,-0.00003840,-0.00003292,0.00001512,-0.00023399,-0.00007049,0.00006099
 ,0.00000824,0.00001649,-0.00002640,0.00045994,0.00009498,0.00007014,-0
 .00079030,0.00081044,-0.00098481,-0.12772631,-0.09235876,0.13167770,-0
 .01838945,-0.02880614,0.03619457,0.14712516,-0.00000306,0.00000115,-0.
 00001047,0.00000523,0.00000114,0.00000533,0.00000299,0.00000013,-0.000
 00476,-0.00000495,0.00001066,0.00000585,0.00000152,-0.00000769,-0.0000
 0147,-0.00000020,0.00000155,0.00000293,0.00000220,0.00000410,-0.000000
 61,0.00000276,-0.00000036,-0.00000137,0.00000078,-0.00000006,0.0000019
 9,0.00000127,-0.00000162,0.00000109,-0.00001140,0.00001208,-0.00000873
 ,0.00000728,-0.00000255,0.00000558,-0.00004748,-0.00005762,0.00000967,
 0.00000810,0.00000692,0.00000018,0.00001148,0.00001647,-0.00000320,-0.
 00045793,-0.00051694,0.00009773,-0.00003915,-0.00011691,-0.00017813,-0
 .00015781,-0.00003817,-0.00000523,0.00013259,0.00018391,0.00031094,0.0
 0000093,0.00000052,-0.00001960,0.00034373,0.00010533,-0.00003379,0.001
 11832,0.00014769,0.00009806,-0.12972824,-0.17632041,0.22235350,0.00819
 207,0.00421532,-0.00661898,0.12064993,0.17228177,0.00000110,-0.0000072
 8,0.00000091,-0.00000372,0.00000446,0.00000217,-0.00000451,0.00000320,
 -0.00001199,0.00000579,0.00000119,0.00001307,-0.00000214,-0.00000201,-
 0.00000335,0.00000080,0.00000334,0.00000057,-0.00000025,-0.00000035,0.
 00000138,0.00000076,0.00000020,-0.00000115,-0.00000046,0.00000171,0.00
 000011,-0.00000145,-0.00000075,0.00000051,0.00000627,-0.00001693,-0.00
 000755,-0.00001014,0.00000223,0.00000387,0.00003591,0.00007583,0.00002
 801,-0.00000543,-0.00001621,0.00000445,-0.00000961,-0.00001430,-0.0000
 0298,0.00047362,0.00041825,0.00002422,-0.00018351,-0.00025101,-0.00004
 207,-0.00008243,-0.00005935,-0.00000015,0.00025517,0.00039506,0.000044
 87,-0.00004422,-0.00003075,-0.00001951,-0.00034222,-0.00012430,0.00001
 133,-0.00100582,-0.00021031,-0.00020693,0.17224102,0.21299759,-0.27328
 351,-0.00435348,0.00284708,-0.00157938,-0.16699373,-0.21600608,0.27501
 808,-0.00002911,-0.00036551,-0.00003053,0.00012726,0.00002618,0.000085
 56,0.00045094,0.00028851,-0.00012032,0.00002612,0.00026675,-0.00009196
 ,0.00006350,-0.00002536,-0.00009431,-0.00000650,-0.00000407,0.00004006
 ,-0.00003585,-0.00000308,0.00007057,-0.00003681,0.00004174,-0.00000156
 ,0.00001188,0.00001309,0.00001230,-0.00003939,-0.00002021,-0.00001625,
 -0.00062397,-0.00003308,-0.00003229,0.00012406,-0.00022279,0.00008853,
 -0.00057751,-0.00075867,-0.00008146,0.00016140,0.00005960,-0.00001719,
 0.00015831,0.00010150,0.00002969,-0.00836523,-0.00461261,0.00011908,0.
 00074649,0.00095047,0.00003333,-0.00010141,0.00020307,0.00001592,0.000
 11826,-0.00013060,-0.00002469,-0.00013115,0.00026729,0.00000490,0.0044
 2949,0.00002764,0.00001249,-0.00005794,0.01068350,0.00035670,-0.000484
 17,0.00021751,0.00010731,0.00067562,-0.00017458,-0.00005065,0.00012572
 ,-0.00006382,-0.00008741,0.44431516,0.00005338,-0.00044575,0.00023207,
 -0.00009166,0.00000995,-0.00010068,0.00008296,0.00047000,0.00003958,0.
 00057717,-0.00056369,-0.00036136,-0.00013946,0.00013569,-0.00003367,0.
 00001550,-0.00001305,-0.00003461,-0.00005464,-0.00005253,0.00008244,-0
 .00007566,0.00001859,0.00001311,-0.00001803,0.00001266,-0.00003297,-0.
 00004890,0.00001889,-0.00002047,-0.00009677,-0.00027726,0.00004215,-0.
 00013523,-0.00011263,-0.00001848,0.00148628,0.00143416,-0.00017262,-0.
 00017403,-0.00036526,-0.00000881,-0.00016169,-0.00031669,0.00008407,0.
 00232979,0.00451886,0.00000584,-0.00024432,-0.00093311,-0.00008810,0.0
 0007877,-0.00019064,0.00002019,-0.00005566,-0.00000337,0.00001265,0.00
 009572,-0.00024925,-0.00003292,-0.00202342,-0.00269704,0.00010465,0.00
 523931,-0.00801027,-0.00050741,0.00079715,0.00028050,0.00003586,-0.001
 25442,-0.00035309,-0.00006953,-0.00002822,-0.00011778,0.00000254,-0.16
 207673,0.37613213,-0.00002967,-0.00017746,0.00002995,0.00006483,-0.000
 02191,-0.00002383,0.00015377,0.00026481,0.00013278,0.00027294,0.000006
 22,-0.00033471,-0.00001941,0.00005133,0.00000509,-0.00000959,-0.000046
 06,0.00000175,-0.00003207,-0.00001621,0.00003633,-0.00004750,0.0000156
 0,0.00000928,0.00000469,-0.00000557,-0.00000455,-0.00002076,0.00000588
 ,-0.00001200,-0.00024562,-0.00011872,0.00014041,0.00000935,-0.00011772
 ,-0.00004585,0.00009605,0.00014938,-0.00011323,0.00001393,0.00001625,0
 .00000092,0.00000216,-0.00011896,0.00003703,-0.00013957,0.00048418,-0.
 00068233,-0.00001735,-0.00006544,-0.00049254,0.00004287,-0.00006616,0.
 00002087,-0.00000727,-0.00000705,-0.00001976,-0.00003715,0.00001537,0.
 00001460,0.00004596,-0.00021081,0.00113055,0.00055745,-0.00103374,0.00
 320470,0.00011865,0.00009799,0.00023982,-0.00017211,-0.00007175,-0.000
 23690,-0.00005579,-0.00002785,-0.00007569,-0.26993004,-0.10852677,0.31
 516402,0.00000814,0.00014552,0.00004159,-0.00005676,-0.00001837,-0.000
 08104,-0.00038264,-0.00012196,0.00017453,-0.00010908,-0.00058885,-0.00
 057866,-0.00009355,0.00003716,0.00008389,0.00000274,-0.00001516,-0.000
 02664,0.00001386,0.00000501,-0.00002817,0.00000702,-0.00002569,0.00000
 318,-0.00000610,-0.00000968,-0.00001019,0.00002229,0.00001397,0.000009
 27,0.00037003,0.00002864,0.00005839,-0.00006407,0.00008076,-0.00007717
 ,0.00055277,0.00040188,0.00000164,-0.00013127,-0.00010047,-0.00000675,
 -0.00008765,-0.00006655,-0.00000390,0.00049581,0.00134865,0.00023134,-
 0.00004278,-0.00015403,0.00008540,0.00001408,-0.00000721,-0.00001469,-
 0.00000942,-0.00000081,0.00001105,0.00004222,-0.00003879,0.00001056,-0
 .00089332,-0.00061821,-0.00019747,0.00028826,-0.00076201,-0.00080025,0
 .00012571,-0.00004590,-0.00007603,-0.00016086,0.00001938,0.00007120,-0
 .00001793,0.00000843,0.00002721,-0.21585634,-0.05653217,0.22502951,0.2
 3648519,-0.00007248,0.00030124,-0.00013073,0.00005633,-0.00001037,0.00
 005582,-0.00031662,-0.00032884,0.00020283,-0.00073016,-0.00043083,-0.0
 0054816,0.00007600,-0.00006121,0.00002036,-0.00001204,-0.00000136,0.00
 001957,0.00002829,0.00002414,-0.00005123,0.00004584,-0.00001012,-0.000
 00843,0.00001289,-0.00000856,0.00002177,0.00002944,-0.00001108,0.00001
 143,0.00023487,0.00005379,0.00005638,0.00003547,0.00007748,-0.00004387
 ,-0.00047403,-0.00044458,0.00008450,0.00003832,0.00016371,0.00001651,0
 .00003152,0.00006359,-0.00004479,0.00228619,0.00008048,-0.00033364,-0.
 00021209,0.00002040,-0.00009024,0.00000772,-0.00001968,-0.00000755,-0.
 00003164,0.00005513,0.00000404,-0.00000502,0.00000501,0.00000773,-0.00
 096143,0.00082781,0.00043206,-0.00066339,-0.00122181,0.00066720,-0.000
 14193,-0.00005193,-0.00001277,0.00019400,0.00005368,0.00000968,0.00001
 533,0.00001662,0.00000425,-0.09439039,-0.07410871,0.13174222,0.0696561
 1,0.06756465,0.00001881,0.00029486,-0.00004772,-0.00004456,-0.00000186
 ,-0.00001488,-0.00037842,-0.00042056,0.00022675,-0.00067732,-0.0007276
 9,-0.00053163,0.00003215,-0.00005561,0.00002903,0.00000503,0.00003621,
 -0.00000694,0.00003875,0.00002225,-0.00005542,0.00005270,-0.00002286,-
 0.00000365,-0.00000360,-0.00000318,0.00000176,0.00002975,-0.00000166,0
 .00001186,0.00035586,0.00022242,-0.00010766,-0.00000752,0.00015192,-0.
 00002778,-0.00021678,-0.00019167,0.00015065,-0.00001056,0.00008181,-0.
 00000426,-0.00001689,0.00010471,-0.00003490,0.00083978,-0.00031883,0.0
 0007588,-0.00008608,0.00008023,0.00003408,-0.00000368,0.00001117,-0.00
 001355,-0.00001208,0.00002615,0.00001101,0.00000329,0.00002737,0.00001
 099,-0.00024997,0.00060544,-0.00014109,-0.00078048,0.00041060,-0.00010
 542,-0.00011583,-0.00004217,-0.00005813,0.00018263,0.00003283,0.000057
 45,0.00001356,0.00001640,0.00001000,0.25105115,0.09876854,-0.28685129,
 -0.25118547,-0.10554673,0.29196985,0.00002932,0.00029917,-0.00001996,-
 0.00004133,-0.00000895,-0.00001884,-0.00025041,-0.00037030,0.00006309,
 -0.00056530,-0.00021634,-0.00008729,0.00001277,0.00000178,0.00004851,0
 .00000017,0.00000011,-0.00001397,0.00001883,-0.00000387,-0.00004794,0.
 00002270,-0.00001888,0.00000053,-0.00000246,-0.00000605,-0.00000206,0.
 00001860,0.00000865,0.00000849,0.00030421,-0.00011356,0.00003524,-0.00
 008305,0.00013886,-0.00004464,-0.00005763,0.00065048,0.00009999,-0.000
 05013,0.00004719,0.00002880,-0.00009434,-0.00006262,-0.00002880,0.0129
 9321,0.00574164,-0.00037212,-0.00106226,-0.00141168,-0.00016362,0.0001
 4760,-0.00030814,0.00000293,-0.00016715,0.00018148,0.00003125,0.000167
 39,-0.00036730,-0.00002063,-0.00586123,0.00037878,0.00030023,-0.007289
 16,-0.00815183,0.00057895,0.00066423,-0.00018649,-0.00004984,-0.000999
 76,0.00023859,-0.00002462,-0.00015251,0.00002443,0.00008289,-0.2251888
 1,0.21245496,0.04435171,-0.02051637,0.02526291,0.00116579,0.24800286,-
 0.00002923,0.00005545,-0.00013884,0.00010412,-0.00000762,0.00007383,0.
 00017054,-0.00013485,-0.00011198,-0.00017843,0.00049160,0.00019665,0.0
 0007455,-0.00009420,-0.00000250,-0.00001127,0.00000545,0.00002922,0.00
 002841,0.00004554,-0.00001567,0.00003269,-0.00000472,-0.00000811,0.000
 01342,-0.00000643,0.00001945,0.00002619,-0.00001552,0.00001066,-0.0002
 5712,0.00030199,-0.00006388,0.00020856,-0.00005683,0.00006427,-0.00178
 460,-0.00181770,0.00006413,0.00026823,0.00038476,0.00000361,0.00028788
 ,0.00042730,-0.00007123,-0.00690633,-0.01143791,0.00017780,0.00063785,
 0.00157191,0.00030182,-0.00015407,0.00035862,-0.00002303,0.00015130,-0
 .00004597,-0.00003192,-0.00016580,0.00039037,0.00002687,0.00535507,0.0
 0110921,-0.00032646,-0.00151277,0.00692150,-0.00067628,-0.00118619,-0.
 00041224,-0.00003622,0.00193906,0.00057348,0.00011403,-0.00000402,0.00
 017473,-0.00001732,0.24973466,-0.29422135,-0.02221705,-0.01263966,0.00
 740132,0.00643991,-0.23420305,0.28804210,0.00001186,0.00004647,-0.0000
 2502,-0.00001300,0.00001732,0.00001796,-0.00005798,-0.00015523,-0.0001
 4154,-0.00016897,0.00009882,0.00020937,0.00001185,-0.00002630,-0.00000
 356,0.00000393,0.00001834,0.00000335,0.00000819,0.00000568,-0.00000916
 ,0.00001363,-0.00000321,-0.00000378,-0.00000144,0.00000476,0.00000197,
 0.00000294,-0.00000382,0.00000426,0.00006253,0.00001352,-0.00007780,-0
 .00000517,0.00002946,0.00004059,-0.00001920,-0.00005950,-0.00007576,-0
 .00002528,-0.00007672,-0.00000079,0.00003672,0.00009236,-0.00001542,-0
 .00035583,-0.00039873,0.00101945,0.00004703,-0.00004163,0.00104687,-0.
 00008244,0.00014933,-0.00003378,0.00001630,-0.00000772,0.00000859,0.00
 007630,-0.00011265,-0.00005087,0.00017777,-0.00007562,-0.00102916,0.00
 030511,0.00023792,-0.00553997,-0.00004363,-0.00006021,-0.00023172,0.00
 003954,0.00005156,0.00025235,0.00006457,0.00001105,0.00007073,0.018551
 05,0.01056468,-0.03127540,0.02724767,-0.02653819,-0.00458497,-0.045904
 06,0.01621825,0.04042323\\-0.00000078,0.00000829,-0.00000187,-0.000000
 51,0.00000142,0.00001431,0.00000363,0.00000197,0.00000153,-0.00000499,
 0.00000004,0.00000783,-0.00000835,-0.00000393,0.00001107,0.00000139,-0
 .00000726,0.00000230,0.00000433,-0.00000364,0.00001878,0.00000337,-0.0
 0001022,0.00000804,-0.00000225,0.00000390,0.00001020,-0.00000146,-0.00
 000299,0.00000506,-0.00000462,-0.00000579,-0.00000286,0.00000493,0.000
 00340,-0.00000471,0.00000203,0.00000260,-0.00000941,0.00000142,0.00000
 373,-0.00001121,0.00000160,-0.00000689,-0.00001098,0.00001948,0.000005
 76,-0.00000008,-0.00000072,-0.00000306,-0.00001056,-0.00000116,0.00000
 522,-0.00001619,-0.00000037,0.00000305,-0.00001336,0.00000268,0.000002
 51,-0.00001778,0.00000080,-0.00000488,0.00000135,-0.00001850,0.0000013
 0,-0.00000551,-0.00000422,0.00000046,-0.00000228,-0.00000101,-0.000002
 42,-0.00000131,0.00000184,0.00000782,-0.00000806,-0.00000026,0.0000071
 4,0.00000579,-0.00000466,-0.00000651,0.00002012,0.00000636,-0.00000102
 ,0.00000978\\\@


 THE RARE EARTHS PERPLEX US IN OUR RESEARCHES,
 BAFFLE US IN OUR SPECULATIONS, AND HAUNT US IN OUR
 VERY DREAMS.  THEY STRETCH LIKE AN UNKNOWN BEFORE US,
 MOCKING, MYSTIFYING, AND MURMURING STRANGE REVELATIONS
 AND POSSIBILITIES.  -- SIR WILLIAM CROOKE, 1832-1919
 Job cpu time:       0 days  3 hours 56 minutes  6.3 seconds.
 File lengths (MBytes):  RWF=    635 Int=      0 D2E=      0 Chk=     20 Scr=      1
 Normal termination of Gaussian 09 at Thu Feb 24 23:48:44 2022.
