 Entering Gaussian System, Link 0=g09
 Input=dieneophile_water_freq3.com
 Output=dieneophile_water_freq3.log
 Initial command:
 /apps/applications/gaussian/G09.D01/2/default/g09/l1.exe "/nobackup/pmmass/Temp/Gau-43949.inp" -scrdir="/nobackup/pmmass/Temp/"
 Entering Link 1 = /apps/applications/gaussian/G09.D01/2/default/g09/l1.exe PID=     43950.
  
 Copyright (c) 1988,1990,1992,1993,1995,1998,2003,2009,2013,
            Gaussian, Inc.  All Rights Reserved.
  
 This is part of the Gaussian(R) 09 program.  It is based on
 the Gaussian(R) 03 system (copyright 2003, Gaussian, Inc.),
 the Gaussian(R) 98 system (copyright 1998, Gaussian, Inc.),
 the Gaussian(R) 94 system (copyright 1995, Gaussian, Inc.),
 the Gaussian 92(TM) system (copyright 1992, Gaussian, Inc.),
 the Gaussian 90(TM) system (copyright 1990, Gaussian, Inc.),
 the Gaussian 88(TM) system (copyright 1988, Gaussian, Inc.),
 the Gaussian 86(TM) system (copyright 1986, Carnegie Mellon
 University), and the Gaussian 82(TM) system (copyright 1983,
 Carnegie Mellon University). Gaussian is a federally registered
 trademark of Gaussian, Inc.
  
 This software contains proprietary and confidential information,
 including trade secrets, belonging to Gaussian, Inc.
  
 This software is provided under written license and may be
 used, copied, transmitted, or stored only in accord with that
 written license.
  
 The following legend is applicable only to US Government
 contracts under FAR:
  
                    RESTRICTED RIGHTS LEGEND
  
 Use, reproduction and disclosure by the US Government is
 subject to restrictions as set forth in subparagraphs (a)
 and (c) of the Commercial Computer Software - Restricted
 Rights clause in FAR 52.227-19.
  
 Gaussian, Inc.
 340 Quinnipiac St., Bldg. 40, Wallingford CT 06492
  
  
 ---------------------------------------------------------------
 Warning -- This program may not be used in any manner that
 competes with the business of Gaussian, Inc. or will provide
 assistance to any competitor of Gaussian, Inc.  The licensee
 of this program is prohibited from giving any competitor of
 Gaussian, Inc. access to this program.  By using this program,
 the user acknowledges that Gaussian, Inc. is engaged in the
 business of creating and licensing software in the field of
 computational chemistry and represents and warrants to the
 licensee that it is not a competitor of Gaussian, Inc. and that
 it will not use this program in any manner prohibited above.
 ---------------------------------------------------------------
  

 Cite this work as:
 Gaussian 09, Revision D.01,
 M. J. Frisch, G. W. Trucks, H. B. Schlegel, G. E. Scuseria, 
 M. A. Robb, J. R. Cheeseman, G. Scalmani, V. Barone, B. Mennucci, 
 G. A. Petersson, H. Nakatsuji, M. Caricato, X. Li, H. P. Hratchian, 
 A. F. Izmaylov, J. Bloino, G. Zheng, J. L. Sonnenberg, M. Hada, 
 M. Ehara, K. Toyota, R. Fukuda, J. Hasegawa, M. Ishida, T. Nakajima, 
 Y. Honda, O. Kitao, H. Nakai, T. Vreven, J. A. Montgomery, Jr., 
 J. E. Peralta, F. Ogliaro, M. Bearpark, J. J. Heyd, E. Brothers, 
 K. N. Kudin, V. N. Staroverov, T. Keith, R. Kobayashi, J. Normand, 
 K. Raghavachari, A. Rendell, J. C. Burant, S. S. Iyengar, J. Tomasi, 
 M. Cossi, N. Rega, J. M. Millam, M. Klene, J. E. Knox, J. B. Cross, 
 V. Bakken, C. Adamo, J. Jaramillo, R. Gomperts, R. E. Stratmann, 
 O. Yazyev, A. J. Austin, R. Cammi, C. Pomelli, J. W. Ochterski, 
 R. L. Martin, K. Morokuma, V. G. Zakrzewski, G. A. Voth, 
 P. Salvador, J. J. Dannenberg, S. Dapprich, A. D. Daniels, 
 O. Farkas, J. B. Foresman, J. V. Ortiz, J. Cioslowski, 
 and D. J. Fox, Gaussian, Inc., Wallingford CT, 2013.
 
 ******************************************
 Gaussian 09:  ES64L-G09RevD.01 24-Apr-2013
                 3-Mar-2022 
 ******************************************
 %nprocshared=8
 Will use up to    8 processors via shared memory.
 %mem=4GB
 %NoSave
 %chk="dieneophile_water_freq3.chk"
 ----------------------------------------------------------------------
 #n wB97XD/Def2TZVP scrf(smd,solvent=toluene) freq int=(grid=ultrafine)
 ----------------------------------------------------------------------
 1/10=4,30=1,38=1/1,3;
 2/12=2,17=6,18=5,40=1/2;
 3/5=44,7=101,11=2,16=1,25=1,30=1,70=32201,71=2,72=13,74=-58,75=-5,140=1/1,2,3;
 4//1;
 5/5=2,38=5,53=13,98=1/2;
 8/6=4,10=90,11=11/1;
 11/6=1,8=1,9=11,15=111,16=1/1,2,10;
 10/6=1/2;
 6/7=2,8=2,9=2,10=2,18=1,28=1/1;
 7/8=1,10=1,25=1/1,2,3,16;
 1/10=4,30=1/3;
 99//99;
 --------------------------------------
 dieneophile diels-alder toluene - freq
 --------------------------------------
 Symbolic Z-matrix:
 Charge =  0 Multiplicity = 1
 C                    -1.13121   0.32082  -0.02391 
 C                    -0.65899  -1.09885  -0.04333 
 C                     0.66537  -1.09414  -0.03258 
 C                     1.13042   0.32818  -0.00816 
 H                    -1.34997  -1.92851  -0.05988 
 H                     1.36265  -1.91875  -0.03886 
 C                    -0.02112   2.56149   0.02229 
 H                     1.00921   2.90974   0.01647 
 H                    -0.54095   2.9518   -0.85213 
 H                    -0.51885   2.91799   0.92389 
 N                    -0.00401   1.11741  -0.00664 
 O                     2.26572   0.73874   0.00824 
 O                    -2.26678   0.73202  -0.02218 
 O                     3.95287  -1.60853   0.1127 
 H                     4.54495  -1.63188  -0.6404 
 H                     3.55228  -0.72815   0.09576 
 O                    -3.93798  -1.62646  -0.04368 
 H                    -3.5456   -0.74216  -0.05497 
 H                    -4.50303  -1.64323   0.73006 
 

 GradGradGradGradGradGradGradGradGradGradGradGradGradGradGradGradGradGrad
 Berny optimization.
 Initialization pass.
 Trust Radius=3.00D-01 FncErr=1.00D-07 GrdErr=1.00D-07
 Number of steps in this run=      2 maximum allowed number of steps=      2.
 GradGradGradGradGradGradGradGradGradGradGradGradGradGradGradGradGradGrad

                          Input orientation:                          
 ---------------------------------------------------------------------
 Center     Atomic      Atomic             Coordinates (Angstroms)
 Number     Number       Type             X           Y           Z
 ---------------------------------------------------------------------
      1          6           0       -1.131210    0.320820   -0.023910
      2          6           0       -0.658990   -1.098850   -0.043330
      3          6           0        0.665370   -1.094140   -0.032580
      4          6           0        1.130420    0.328180   -0.008160
      5          1           0       -1.349970   -1.928510   -0.059880
      6          1           0        1.362650   -1.918750   -0.038860
      7          6           0       -0.021120    2.561490    0.022290
      8          1           0        1.009210    2.909740    0.016470
      9          1           0       -0.540950    2.951800   -0.852130
     10          1           0       -0.518850    2.917990    0.923890
     11          7           0       -0.004010    1.117410   -0.006640
     12          8           0        2.265720    0.738740    0.008240
     13          8           0       -2.266780    0.732020   -0.022180
     14          8           0        3.952870   -1.608530    0.112700
     15          1           0        4.544950   -1.631880   -0.640400
     16          1           0        3.552280   -0.728150    0.095760
     17          8           0       -3.937980   -1.626460   -0.043680
     18          1           0       -3.545600   -0.742160   -0.054970
     19          1           0       -4.503030   -1.643230    0.730060
 ---------------------------------------------------------------------
                    Distance matrix (angstroms):
                    1          2          3          4          5
     1  C    0.000000
     2  C    1.496273   0.000000
     3  C    2.286895   1.324412   0.000000
     4  C    2.261697   2.289026   1.496617   0.000000
     5  H    2.260229   1.079844   2.181402   3.353753   0.000000
     6  H    3.351900   2.181578   1.079917   2.259108   2.712719
     7  C    2.501007   3.716083   3.719934   2.512896   4.683235
     8  H    3.359395   4.342265   4.018916   2.584521   5.383328
     9  H    2.820711   4.132294   4.300756   3.223220   5.009950
    10  H    2.831714   4.134024   4.291200   3.208726   5.014691
    11  N    1.380374   2.311310   2.310778   1.381962   3.330476
    12  O    3.422693   3.454465   2.433564   1.207367   4.493560
    13  O    1.207728   2.436703   3.454341   3.421148   2.814317
    14  O    5.439570   4.642561   3.330670   3.425154   5.315288
    15  H    6.034227   5.265131   3.963553   3.987553   5.930858
    16  H    4.801014   4.229842   2.912846   2.644246   5.049470
    17  O    3.416174   3.321167   4.634039   5.432362   2.605627
    18  H    2.638213   2.908587   4.225714   4.797185   2.495645
    19  H    3.974309   3.958677   5.253140   6.013916   3.263001
                    6          7          8          9         10
     6  H    0.000000
     7  C    4.689468   0.000000
     8  H    4.841725   1.087608   0.000000
     9  H    5.292198   1.089576   1.777423   0.000000
    10  H    5.278350   1.089821   1.777202   1.776479   0.000000
    11  N    3.329724   1.444471   2.059028   2.090011   2.091180
    12  O    2.807135   2.924423   2.508411   3.676312   3.652585
    13  O    4.494399   2.896882   3.933963   2.931677   2.954450
    14  O    2.613130   5.761062   5.393437   6.474714   6.414335
    15  H    3.251335   6.234782   5.793034   6.849915   6.985012
    16  H    2.496023   4.857604   4.439340   5.585254   5.527589
    17  O    5.308685   5.734551   6.712333   5.757940   5.768767
    18  H    5.047330   4.831359   5.838473   4.827911   4.849338
    19  H    5.922276   6.186124   7.184952   6.270224   6.059372
                   11         12         13         14         15
    11  N    0.000000
    12  O    2.301149   0.000000
    13  O    2.295407   4.532607   0.000000
    14  O    4.806443   2.892588   6.646835   0.000000
    15  H    5.352876   3.351934   7.236704   0.958261   0.000000
    16  H    4.007964   1.953116   6.000622   0.967382   1.531030
    17  O    4.796490   6.639485   2.890640   7.892420   8.503894
    18  H    4.000399   5.997374   1.951836   7.550216   8.160351
    19  H    5.329638   7.211850   3.347909   8.478478   9.151187
                   16         17         18         19
    16  H    0.000000
    17  O    7.545224   0.000000
    18  H    7.099494   0.967510   0.000000
    19  H    8.131896   0.958246   1.531297   0.000000
 Stoichiometry    C5H9NO4
 Framework group  C1[X(C5H9NO4)]
 Deg. of freedom    51
 Full point group                 C1      NOp   1
 Largest Abelian subgroup         C1      NOp   1
 Largest concise Abelian subgroup C1      NOp   1
                         Standard orientation:                         
 ---------------------------------------------------------------------
 Center     Atomic      Atomic             Coordinates (Angstroms)
 Number     Number       Type             X           Y           Z
 ---------------------------------------------------------------------
      1          6           0       -1.131211    0.320822   -0.023909
      2          6           0       -0.658992   -1.098848   -0.043329
      3          6           0        0.665368   -1.094139   -0.032579
      4          6           0        1.130419    0.328181   -0.008159
      5          1           0       -1.349972   -1.928508   -0.059879
      6          1           0        1.362648   -1.918749   -0.038859
      7          6           0       -0.021120    2.561492    0.022291
      8          1           0        1.009211    2.909741    0.016471
      9          1           0       -0.540949    2.951802   -0.852129
     10          1           0       -0.518849    2.917992    0.923891
     11          7           0       -0.004010    1.117412   -0.006639
     12          8           0        2.265719    0.738740    0.008241
     13          8           0       -2.266781    0.732023   -0.022179
     14          8           0        3.952868   -1.608531    0.112701
     15          1           0        4.544948   -1.631881   -0.640399
     16          1           0        3.552279   -0.728150    0.095761
     17          8           0       -3.937982   -1.626456   -0.043679
     18          1           0       -3.545601   -0.742156   -0.054969
     19          1           0       -4.503032   -1.643226    0.730061
 ---------------------------------------------------------------------
 Rotational constants (GHZ):      1.8630831      0.6493561      0.4841197
 Standard basis: def2TZVP (5D, 7F)
 There are   414 symmetry adapted cartesian basis functions of A   symmetry.
 There are   364 symmetry adapted basis functions of A   symmetry.
   364 basis functions,   582 primitive gaussians,   414 cartesian basis functions
    39 alpha electrons       39 beta electrons
       nuclear repulsion energy       526.3673252582 Hartrees.
 NAtoms=   19 NActive=   19 NUniq=   19 SFac= 1.00D+00 NAtFMM=   60 NAOKFM=F Big=F
 Integral buffers will be    131072 words long.
 Raffenetti 2 integral format.
 Two-electron integral symmetry is turned on.
 Nuclear repulsion after empirical dispersion term =      526.3587694058 Hartrees.
 Force inversion solution in PCM.
 ------------------------------------------------------------------------------
 Polarizable Continuum Model (PCM)
 =================================
 Model                : PCM (using non-symmetric T matrix).
 Atomic radii         : SMD-Coulomb.
 Polarization charges : Total charges.
 Charge compensation  : None.
 Solution method      : Matrix inversion.
 Cavity type          : VdW (van der Waals Surface) (Alpha=1.000).
 Cavity algorithm     : GePol (No added spheres)
                        Default sphere list used, NSphG=   19.
                        Lebedev-Laikov grids with approx.  5.0 points / Ang**2.
                        Smoothing algorithm: Karplus/York (Gamma=1.0000).
                        Polarization charges: spherical gaussians, with
                                              point-specific exponents (IZeta= 3).
                        Self-potential: point-specific (ISelfS= 7).
                        Self-field    : sphere-specific E.n sum rule (ISelfD= 2).
 1st derivatives      : Analytical E(r).r(x)/FMM algorithm (CHGder, D1EAlg=3).
                        Cavity 1st derivative terms included.
 2nd derivatives      : Analytical E(r).r(xy)/FMM algorithm (CHGder, D2EAlg=3).
                        Cavity 2nd derivative terms included.
 Solvent              : Toluene, Eps=   2.374100 Eps(inf)=   2.238315
 ------------------------------------------------------------------------------
 Spheres list:
 ISph  on   Nord     Re0    Alpha      Xe            Ye            Ze
    1   C      1    1.8500  1.000     -1.131211      0.320822     -0.023909
    2   C      2    1.8500  1.000     -0.658992     -1.098848     -0.043329
    3   C      3    1.8500  1.000      0.665368     -1.094139     -0.032579
    4   C      4    1.8500  1.000      1.130419      0.328181     -0.008159
    5   H      5    1.2000  1.000     -1.349972     -1.928508     -0.059879
    6   H      6    1.2000  1.000      1.362648     -1.918749     -0.038859
    7   C      7    1.8500  1.000     -0.021120      2.561492      0.022291
    8   H      8    1.2000  1.000      1.009211      2.909741      0.016471
    9   H      9    1.2000  1.000     -0.540949      2.951802     -0.852129
   10   H     10    1.2000  1.000     -0.518849      2.917992      0.923891
   11   N     11    1.8900  1.000     -0.004010      1.117412     -0.006639
   12   O     12    2.2940  1.000      2.265719      0.738740      0.008241
   13   O     13    2.2940  1.000     -2.266781      0.732023     -0.022179
   14   O     14    2.2940  1.000      3.952868     -1.608531      0.112701
   15   H     15    1.2000  1.000      4.544948     -1.631881     -0.640399
   16   H     16    1.2000  1.000      3.552279     -0.728150      0.095761
   17   O     17    2.2940  1.000     -3.937982     -1.626456     -0.043679
   18   H     18    1.2000  1.000     -3.545601     -0.742156     -0.054969
   19   H     19    1.2000  1.000     -4.503032     -1.643226      0.730061
 ------------------------------------------------------------------------------
 ------------------------------------------------------------------------------
 Atomic radii for non-electrostatic terms: SMD-CDS.
 ------------------------------------------------------------------------------
 Nuclear repulsion after PCM non-electrostatic terms =      526.3519135258 Hartrees.
 One-electron integrals computed using PRISM.
   1 Symmetry operations used in ECPInt.
 ECPInt:  NShTT=   10731 NPrTT=   32632 LenC2=    9846 LenP2D=   22775.
 LDataN:  DoStor=T MaxTD1= 6 Len=  172
 NBasis=   364 RedAO= T EigKep=  3.88D-05  NBF=   364
 NBsUse=   364 1.00D-06 EigRej= -1.00D+00 NBFU=   364
 ExpMin= 9.52D-02 ExpMax= 2.70D+04 ExpMxC= 9.22D+02 IAcc=3 IRadAn=         5 AccDes= 0.00D+00
 Harris functional with IExCor= 4639 and IRadAn=       5 diagonalized for initial guess.
 HarFok:  IExCor= 4639 AccDes= 0.00D+00 IRadAn=         5 IDoV= 1 UseB2=F ITyADJ=14
 ICtDFT=  3500011 ScaDFX=  1.000000  1.000000  1.000000  1.000000
 FoFCou: FMM=F IPFlag=           0 FMFlag=      100000 FMFlg1=           0
         NFxFlg=           0 DoJE=T BraDBF=F KetDBF=T FulRan=T
         wScrn=  0.000000 ICntrl=     500 IOpCl=  0 I1Cent=   200000004 NGrid=           0
         NMat0=    1 NMatS0=      1 NMatT0=    0 NMatD0=    1 NMtDS0=    0 NMtDT0=    0
 Petite list used in FoFCou.
 Requested convergence on RMS density matrix=1.00D-08 within 128 cycles.
 Requested convergence on MAX density matrix=1.00D-06.
 Requested convergence on             energy=1.00D-06.
 No special actions if energy rises.
 Inv3:  Mode=1 IEnd=     9590832.
 Iteration    1 A*A^-1 deviation from unit magnitude is 4.55D-15 for   1784.
 Iteration    1 A*A^-1 deviation from orthogonality  is 1.08D-15 for   1023     93.
 Iteration    1 A^-1*A deviation from unit magnitude is 4.77D-15 for   1784.
 Iteration    1 A^-1*A deviation from orthogonality  is 3.41D-15 for    464    444.
 Error on total polarization charges =  0.00776
 SCF Done:  E(RwB97XD) =  -551.680965035     A.U. after   13 cycles
            NFock= 13  Conv=0.59D-08     -V/T= 2.0042
 SMD-CDS (non-electrostatic) energy       (kcal/mol) =      -4.30
 (included in total energy above)
 DoSCS=F DFT=T ScalE2(SS,OS)=  1.000000  1.000000
 Range of M.O.s used for correlation:     1   364
 NBasis=   364 NAE=    39 NBE=    39 NFC=     0 NFV=     0
 NROrb=    364 NOA=    39 NOB=    39 NVA=   325 NVB=   325

 **** Warning!!: The largest alpha MO coefficient is  0.35764777D+02

   1 Symmetry operations used in ECPInt.
 ECPInt:  NShTT=   10731 NPrTT=   32632 LenC2=    9846 LenP2D=   22775.
 LDataN:  DoStor=T MaxTD1= 7 Len=  274
 Symmetrizing basis deriv contribution to polar:
 IMax=3 JMax=2 DiffMx= 0.00D+00
 G2DrvN: will do    20 centers at a time, making    1 passes.
 Calling FoFCou, ICntrl=  3107 FMM=F I1Cent=   0 AccDes= 0.00D+00.
 NEqPCM:  Using equilibrium solvation (IEInf=0, Eps=   2.3741, EpsInf=   2.2383)
 G2PCM: DoFxE=T DoFxN=T DoGrad=T DoDP/DQ/DG/TGxP=FFFF NFrqRd=   0 IEInf=0 SqF1=F DoCFld=F IF1Alg=4.
 End of G2Drv F.D. properties file   721 does not exist.
 End of G2Drv F.D. properties file   722 does not exist.
 End of G2Drv F.D. properties file   788 does not exist.
          IDoAtm=1111111111111111111
 NEqPCM:  Using equilibrium solvation (IEInf=0, Eps=   2.3741, EpsInf=   2.2383)
          Differentiating once with respect to electric field.
                with respect to dipole field.
          Differentiating once with respect to nuclear coordinates.
          There are    60 degrees of freedom in the 1st order CPHF.  IDoFFX=6 NUNeed=     3.
     57 vectors produced by pass  0 Test12= 2.11D-14 1.67D-09 XBig12= 5.80D+01 5.43D+00.
 AX will form    57 AO Fock derivatives at one time.
     57 vectors produced by pass  1 Test12= 2.11D-14 1.67D-09 XBig12= 1.09D+01 4.92D-01.
     57 vectors produced by pass  2 Test12= 2.11D-14 1.67D-09 XBig12= 4.71D-01 1.94D-01.
     57 vectors produced by pass  3 Test12= 2.11D-14 1.67D-09 XBig12= 7.20D-03 1.39D-02.
     57 vectors produced by pass  4 Test12= 2.11D-14 1.67D-09 XBig12= 5.50D-05 1.44D-03.
     57 vectors produced by pass  5 Test12= 2.11D-14 1.67D-09 XBig12= 3.97D-07 1.29D-04.
     53 vectors produced by pass  6 Test12= 2.11D-14 1.67D-09 XBig12= 2.01D-09 7.46D-06.
     20 vectors produced by pass  7 Test12= 2.11D-14 1.67D-09 XBig12= 1.04D-11 4.30D-07.
      3 vectors produced by pass  8 Test12= 2.11D-14 1.67D-09 XBig12= 5.70D-14 3.35D-08.
      1 vectors produced by pass  9 Test12= 2.11D-14 1.67D-09 XBig12= 3.98D-16 2.23D-09.
 InvSVY:  IOpt=1 It=  1 EMax= 7.11D-15
 Solved reduced A of dimension   419 with    60 vectors.
 Isotropic polarizability for W=    0.000000       92.96 Bohr**3.
 End of Minotr F.D. properties file   721 does not exist.
 End of Minotr F.D. properties file   722 does not exist.
 End of Minotr F.D. properties file   788 does not exist.

 **********************************************************************

            Population analysis using the SCF density.

 **********************************************************************

 Orbital symmetries:
       Occupied  (A) (A) (A) (A) (A) (A) (A) (A) (A) (A) (A) (A)
                 (A) (A) (A) (A) (A) (A) (A) (A) (A) (A) (A) (A)
                 (A) (A) (A) (A) (A) (A) (A) (A) (A) (A) (A) (A)
                 (A) (A) (A)
       Virtual   (A) (A) (A) (A) (A) (A) (A) (A) (A) (A) (A) (A)
                 (A) (A) (A) (A) (A) (A) (A) (A) (A) (A) (A) (A)
                 (A) (A) (A) (A) (A) (A) (A) (A) (A) (A) (A) (A)
                 (A) (A) (A) (A) (A) (A) (A) (A) (A) (A) (A) (A)
                 (A) (A) (A) (A) (A) (A) (A) (A) (A) (A) (A) (A)
                 (A) (A) (A) (A) (A) (A) (A) (A) (A) (A) (A) (A)
                 (A) (A) (A) (A) (A) (A) (A) (A) (A) (A) (A) (A)
                 (A) (A) (A) (A) (A) (A) (A) (A) (A) (A) (A) (A)
                 (A) (A) (A) (A) (A) (A) (A) (A) (A) (A) (A) (A)
                 (A) (A) (A) (A) (A) (A) (A) (A) (A) (A) (A) (A)
                 (A) (A) (A) (A) (A) (A) (A) (A) (A) (A) (A) (A)
                 (A) (A) (A) (A) (A) (A) (A) (A) (A) (A) (A) (A)
                 (A) (A) (A) (A) (A) (A) (A) (A) (A) (A) (A) (A)
                 (A) (A) (A) (A) (A) (A) (A) (A) (A) (A) (A) (A)
                 (A) (A) (A) (A) (A) (A) (A) (A) (A) (A) (A) (A)
                 (A) (A) (A) (A) (A) (A) (A) (A) (A) (A) (A) (A)
                 (A) (A) (A) (A) (A) (A) (A) (A) (A) (A) (A) (A)
                 (A) (A) (A) (A) (A) (A) (A) (A) (A) (A) (A) (A)
                 (A) (A) (A) (A) (A) (A) (A) (A) (A) (A) (A) (A)
                 (A) (A) (A) (A) (A) (A) (A) (A) (A) (A) (A) (A)
                 (A) (A) (A) (A) (A) (A) (A) (A) (A) (A) (A) (A)
                 (A) (A) (A) (A) (A) (A) (A) (A) (A) (A) (A) (A)
                 (A) (A) (A) (A) (A) (A) (A) (A) (A) (A) (A) (A)
                 (A) (A) (A) (A) (A) (A) (A) (A) (A) (A) (A) (A)
                 (A) (A) (A) (A) (A) (A) (A) (A) (A) (A) (A) (A)
                 (A) (A) (A) (A) (A) (A) (A) (A) (A) (A) (A) (A)
                 (A) (A) (A) (A) (A) (A) (A) (A) (A) (A) (A) (A)
                 (A)
 The electronic state is 1-A.
 Alpha  occ. eigenvalues --  -19.26905 -19.26871 -19.23149 -19.23132 -14.49846
 Alpha  occ. eigenvalues --  -10.42844 -10.42718 -10.32777 -10.32775 -10.32679
 Alpha  occ. eigenvalues --   -1.20246  -1.18293  -1.09687  -1.09607  -1.08639
 Alpha  occ. eigenvalues --   -0.94614  -0.82368  -0.78673  -0.72050  -0.66454
 Alpha  occ. eigenvalues --   -0.61380  -0.60781  -0.60719  -0.59954  -0.57121
 Alpha  occ. eigenvalues --   -0.55216  -0.54542  -0.52781  -0.51510  -0.50959
 Alpha  occ. eigenvalues --   -0.49532  -0.46455  -0.46272  -0.40507  -0.40023
 Alpha  occ. eigenvalues --   -0.39215  -0.38895  -0.37378  -0.36964
 Alpha virt. eigenvalues --   -0.03751   0.11524   0.11554   0.12624   0.12703
 Alpha virt. eigenvalues --    0.13056   0.16370   0.17387   0.18655   0.20376
 Alpha virt. eigenvalues --    0.21107   0.21291   0.21382   0.23117   0.24101
 Alpha virt. eigenvalues --    0.25595   0.27505   0.29079   0.29584   0.31286
 Alpha virt. eigenvalues --    0.32137   0.33525   0.35057   0.36133   0.36499
 Alpha virt. eigenvalues --    0.36941   0.38961   0.40517   0.42183   0.42673
 Alpha virt. eigenvalues --    0.43478   0.44159   0.45617   0.46033   0.48173
 Alpha virt. eigenvalues --    0.49122   0.49703   0.49975   0.51142   0.52687
 Alpha virt. eigenvalues --    0.52984   0.53381   0.53533   0.54881   0.55632
 Alpha virt. eigenvalues --    0.56806   0.57600   0.59055   0.60446   0.60919
 Alpha virt. eigenvalues --    0.63272   0.65413   0.65945   0.66465   0.67092
 Alpha virt. eigenvalues --    0.68070   0.68635   0.70522   0.71486   0.72664
 Alpha virt. eigenvalues --    0.72829   0.74042   0.77559   0.77908   0.81749
 Alpha virt. eigenvalues --    0.84190   0.86001   0.87368   0.88801   0.92764
 Alpha virt. eigenvalues --    0.94598   0.96745   0.98276   0.98414   1.00200
 Alpha virt. eigenvalues --    1.00318   1.03629   1.06872   1.07082   1.09503
 Alpha virt. eigenvalues --    1.10773   1.11956   1.12075   1.16394   1.18757
 Alpha virt. eigenvalues --    1.21503   1.22533   1.24878   1.27000   1.28303
 Alpha virt. eigenvalues --    1.28586   1.32800   1.34411   1.35750   1.40177
 Alpha virt. eigenvalues --    1.40887   1.43917   1.44590   1.46513   1.46931
 Alpha virt. eigenvalues --    1.47678   1.50672   1.51131   1.54697   1.55845
 Alpha virt. eigenvalues --    1.56795   1.59038   1.59738   1.61557   1.62130
 Alpha virt. eigenvalues --    1.62616   1.68256   1.69475   1.69921   1.70804
 Alpha virt. eigenvalues --    1.71273   1.73736   1.76106   1.77749   1.81887
 Alpha virt. eigenvalues --    1.82584   1.84855   1.86305   1.87467   1.87902
 Alpha virt. eigenvalues --    1.90964   1.94003   1.97299   1.97939   2.00320
 Alpha virt. eigenvalues --    2.01197   2.02241   2.04595   2.08659   2.11665
 Alpha virt. eigenvalues --    2.12120   2.13890   2.14051   2.17559   2.18806
 Alpha virt. eigenvalues --    2.19119   2.20829   2.23813   2.25042   2.25342
 Alpha virt. eigenvalues --    2.26051   2.27866   2.32492   2.34430   2.34855
 Alpha virt. eigenvalues --    2.38030   2.39366   2.40921   2.41945   2.42676
 Alpha virt. eigenvalues --    2.47554   2.50458   2.50812   2.53209   2.53891
 Alpha virt. eigenvalues --    2.55451   2.56299   2.58086   2.60520   2.61171
 Alpha virt. eigenvalues --    2.64867   2.64892   2.68423   2.70431   2.70717
 Alpha virt. eigenvalues --    2.72561   2.73145   2.73538   2.74317   2.75238
 Alpha virt. eigenvalues --    2.78048   2.79989   2.80398   2.82436   2.85213
 Alpha virt. eigenvalues --    2.86525   2.88376   2.89392   2.92249   2.95544
 Alpha virt. eigenvalues --    2.97397   2.99481   3.00625   3.02731   3.06219
 Alpha virt. eigenvalues --    3.06666   3.07871   3.07991   3.09392   3.10287
 Alpha virt. eigenvalues --    3.12610   3.14287   3.17236   3.20464   3.20780
 Alpha virt. eigenvalues --    3.22101   3.23398   3.25874   3.26377   3.30542
 Alpha virt. eigenvalues --    3.31675   3.36610   3.37695   3.40591   3.41316
 Alpha virt. eigenvalues --    3.43062   3.43610   3.44394   3.45092   3.54241
 Alpha virt. eigenvalues --    3.54781   3.55948   3.58554   3.58749   3.60511
 Alpha virt. eigenvalues --    3.65866   3.66280   3.68909   3.72718   3.76133
 Alpha virt. eigenvalues --    3.77824   3.78099   3.81693   3.83329   3.94188
 Alpha virt. eigenvalues --    3.96607   3.98419   4.05603   4.06232   4.09663
 Alpha virt. eigenvalues --    4.12222   4.13975   4.16305   4.17391   4.24728
 Alpha virt. eigenvalues --    4.26135   4.28931   4.31932   4.41669   4.43482
 Alpha virt. eigenvalues --    4.45572   4.51512   4.54013   4.62565   4.72911
 Alpha virt. eigenvalues --    4.79624   4.81520   4.82804   4.86818   4.95648
 Alpha virt. eigenvalues --    5.02824   5.08146   5.15317   5.18019   5.18430
 Alpha virt. eigenvalues --    5.19825   5.20328   5.21250   5.23505   5.29777
 Alpha virt. eigenvalues --    5.30250   5.30822   5.31152   5.33882   5.39384
 Alpha virt. eigenvalues --    5.45101   5.49268   5.49388   5.52771   5.53411
 Alpha virt. eigenvalues --    5.58110   5.58228   5.63829   5.70704   5.71939
 Alpha virt. eigenvalues --    5.78345   5.80537   5.84314   5.97804   6.09770
 Alpha virt. eigenvalues --    6.14913   6.16428   6.23037   6.25078   6.33858
 Alpha virt. eigenvalues --    6.33958   6.41330   6.41682   6.42174   6.42876
 Alpha virt. eigenvalues --    6.45104   6.49826   6.50725   6.53423   6.53871
 Alpha virt. eigenvalues --    6.57593   6.69376   6.71013   6.84782   6.85880
 Alpha virt. eigenvalues --    6.87932   6.98981   7.03955   7.04490   7.11354
 Alpha virt. eigenvalues --    7.12835   7.15942   7.19035   7.20326   7.24799
 Alpha virt. eigenvalues --   22.28459  22.56891  22.89978  23.26031  23.71153
 Alpha virt. eigenvalues --   32.97324  43.49138  43.53234  44.05156  44.05370
          Condensed to atoms (all electrons):
               1          2          3          4          5          6
     1  C    4.555124   0.316599   0.007983  -0.089580  -0.024681   0.003029
     2  C    0.316599   5.270592   0.367029   0.000058   0.388066  -0.005239
     3  C    0.007983   0.367029   5.269512   0.315732  -0.003586   0.389674
     4  C   -0.089580   0.000058   0.315732   4.567151   0.002412  -0.028068
     5  H   -0.024681   0.388066  -0.003586   0.002412   0.415645  -0.001806
     6  H    0.003029  -0.005239   0.389674  -0.028068  -0.001806   0.419128
     7  C   -0.052437   0.008243   0.004524  -0.053178   0.000089   0.000124
     8  H    0.008323  -0.001513   0.003757  -0.020108   0.000007   0.000019
     9  H   -0.006692   0.000627  -0.000371   0.004515  -0.000003   0.000000
    10  H   -0.006490   0.000813  -0.000563   0.004913   0.000000  -0.000002
    11  N    0.390489  -0.083571  -0.105354   0.409964   0.002634   0.002828
    12  O    0.001042   0.010969  -0.069220   0.538573  -0.000026  -0.002032
    13  O    0.542860  -0.068655   0.009672   0.001424  -0.001479  -0.000058
    14  O    0.000195   0.001236  -0.003845  -0.002054  -0.000020   0.020846
    15  H    0.000004  -0.000162  -0.000322   0.000796   0.000001  -0.000810
    16  H   -0.000209  -0.000117   0.000554  -0.008431   0.000007  -0.005917
    17  O   -0.000523  -0.003154   0.001105   0.000176   0.018837  -0.000014
    18  H   -0.008427  -0.000215  -0.000009  -0.000233  -0.005564   0.000005
    19  H    0.000821  -0.000330  -0.000209   0.000010  -0.000784   0.000001
               7          8          9         10         11         12
     1  C   -0.052437   0.008323  -0.006692  -0.006490   0.390489   0.001042
     2  C    0.008243  -0.001513   0.000627   0.000813  -0.083571   0.010969
     3  C    0.004524   0.003757  -0.000371  -0.000563  -0.105354  -0.069220
     4  C   -0.053178  -0.020108   0.004515   0.004913   0.409964   0.538573
     5  H    0.000089   0.000007  -0.000003   0.000000   0.002634  -0.000026
     6  H    0.000124   0.000019   0.000000  -0.000002   0.002828  -0.002032
     7  C    4.884159   0.406897   0.411103   0.411334   0.261114  -0.004209
     8  H    0.406897   0.486859  -0.019595  -0.019786  -0.027307   0.014014
     9  H    0.411103  -0.019595   0.516393  -0.028584  -0.035062   0.000158
    10  H    0.411334  -0.019786  -0.028584   0.517778  -0.035682   0.000229
    11  N    0.261114  -0.027307  -0.035062  -0.035682   6.470234  -0.079187
    12  O   -0.004209   0.014014   0.000158   0.000229  -0.079187   7.996821
    13  O    0.009423   0.000575   0.002153   0.001769  -0.083554  -0.000102
    14  O    0.000020   0.000010   0.000000   0.000000   0.000206  -0.018512
    15  H    0.000000  -0.000002   0.000000   0.000000   0.000017   0.000970
    16  H   -0.000106   0.000012   0.000001   0.000004  -0.000028   0.028996
    17  O    0.000048   0.000000   0.000000  -0.000001   0.000183   0.000000
    18  H   -0.000108   0.000002  -0.000002  -0.000012   0.000046   0.000000
    19  H   -0.000002   0.000000   0.000000   0.000000   0.000016   0.000000
              13         14         15         16         17         18
     1  C    0.542860   0.000195   0.000004  -0.000209  -0.000523  -0.008427
     2  C   -0.068655   0.001236  -0.000162  -0.000117  -0.003154  -0.000215
     3  C    0.009672  -0.003845  -0.000322   0.000554   0.001105  -0.000009
     4  C    0.001424  -0.002054   0.000796  -0.008431   0.000176  -0.000233
     5  H   -0.001479  -0.000020   0.000001   0.000007   0.018837  -0.005564
     6  H   -0.000058   0.020846  -0.000810  -0.005917  -0.000014   0.000005
     7  C    0.009423   0.000020   0.000000  -0.000106   0.000048  -0.000108
     8  H    0.000575   0.000010  -0.000002   0.000012   0.000000   0.000002
     9  H    0.002153   0.000000   0.000000   0.000001   0.000000  -0.000002
    10  H    0.001769   0.000000   0.000000   0.000004  -0.000001  -0.000012
    11  N   -0.083554   0.000206   0.000017  -0.000028   0.000183   0.000046
    12  O   -0.000102  -0.018512   0.000970   0.028996   0.000000   0.000000
    13  O    7.985054   0.000000   0.000000   0.000000  -0.019258   0.030280
    14  O    0.000000   8.077946   0.306511   0.303970   0.000000   0.000000
    15  H    0.000000   0.306511   0.376281  -0.019642   0.000000   0.000000
    16  H    0.000000   0.303970  -0.019642   0.361674   0.000000   0.000000
    17  O   -0.019258   0.000000   0.000000   0.000000   8.080291   0.303115
    18  H    0.030280   0.000000   0.000000   0.000000   0.303115   0.361563
    19  H    0.000922   0.000000   0.000000   0.000000   0.306262  -0.019485
              19
     1  C    0.000821
     2  C   -0.000330
     3  C   -0.000209
     4  C    0.000010
     5  H   -0.000784
     6  H    0.000001
     7  C   -0.000002
     8  H    0.000000
     9  H    0.000000
    10  H    0.000000
    11  N    0.000016
    12  O    0.000000
    13  O    0.000922
    14  O    0.000000
    15  H    0.000000
    16  H    0.000000
    17  O    0.306262
    18  H   -0.019485
    19  H    0.376472
 Mulliken charges:
               1
     1  C    0.362567
     2  C   -0.201277
     3  C   -0.186062
     4  C    0.355928
     5  H    0.210250
     6  H    0.208293
     7  C   -0.287040
     8  H    0.167835
     9  H    0.155359
    10  H    0.154281
    11  N   -0.087985
    12  O   -0.418484
    13  O   -0.411026
    14  O   -0.686508
    15  H    0.336357
    16  H    0.339232
    17  O   -0.687068
    18  H    0.339044
    19  H    0.336306
 Sum of Mulliken charges =   0.00000
 Mulliken charges with hydrogens summed into heavy atoms:
               1
     1  C    0.362567
     2  C    0.008972
     3  C    0.022231
     4  C    0.355928
     7  C    0.190434
    11  N   -0.087985
    12  O   -0.418484
    13  O   -0.411026
    14  O   -0.010919
    17  O   -0.011718
 APT charges:
               1
     1  C    1.251386
     2  C   -0.156097
     3  C   -0.151492
     4  C    1.260326
     5  H    0.139219
     6  H    0.139600
     7  C    0.333978
     8  H    0.056496
     9  H    0.003092
    10  H    0.000802
    11  N   -1.017515
    12  O   -0.966285
    13  O   -0.955304
    14  O   -0.701411
    15  H    0.291105
    16  H    0.441258
    17  O   -0.700997
    18  H    0.441004
    19  H    0.290835
 Sum of APT charges =   0.00000
 APT charges with hydrogens summed into heavy atoms:
               1
     1  C    1.251386
     2  C   -0.016878
     3  C   -0.011892
     4  C    1.260326
     7  C    0.394367
    11  N   -1.017515
    12  O   -0.966285
    13  O   -0.955304
    14  O    0.030953
    17  O    0.030842
 Electronic spatial extent (au):  <R**2>=           2208.5701
 Charge=              0.0000 electrons
 Dipole moment (field-independent basis, Debye):
    X=              0.0684    Y=              2.1992    Z=             -0.0481  Tot=              2.2008
 Quadrupole moment (field-independent basis, Debye-Ang):
   XX=            -70.8177   YY=            -57.8550   ZZ=            -57.1771
   XY=             -0.0619   XZ=            -13.7696   YZ=              0.2242
 Traceless Quadrupole moment (field-independent basis, Debye-Ang):
   XX=             -8.8678   YY=              4.0950   ZZ=              4.7728
   XY=             -0.0619   XZ=            -13.7696   YZ=              0.2242
 Octapole moment (field-independent basis, Debye-Ang**2):
  XXX=              4.0814  YYY=             23.2573  ZZZ=              0.5924  XYY=              0.7767
  XXY=             10.1874  XXZ=             -0.2164  XZZ=             -2.0557  YZZ=              0.1314
  YYZ=             -0.1476  XYZ=             23.7229
 Hexadecapole moment (field-independent basis, Debye-Ang**3):
 XXXX=          -1681.3284 YYYY=           -707.9348 ZZZZ=            -62.9053 XXXY=             -3.9580
 XXXZ=           -308.2495 YYYX=             -0.2344 YYYZ=              0.5059 ZZZX=            -13.5166
 ZZZY=             -0.6555 XXYY=           -499.0474 XXZZ=           -283.9706 YYZZ=           -130.2877
 XXYZ=              0.4971 YYXZ=            -42.6463 ZZXY=             -0.0630
 N-N= 5.263519135258D+02 E-N=-2.346322798284D+03  KE= 5.493637907793D+02
  Exact polarizability: 128.284  -0.725  92.369  -2.027   0.440  58.215
 Approx polarizability: 125.436  -0.543  83.807  -1.806   0.262  62.577
   1 Symmetry operations used in ECPInt.
 ECPInt:  NShTT=   10731 NPrTT=   32632 LenC2=    9846 LenP2D=   22775.
 LDataN:  DoStor=T MaxTD1= 8 Len=  415
 D2PCM: PCM CHGder 2nd derivatives, FixD1E=F FixD2E=F DoIter=F DoCFld=F I1PDM=0
 Calling FoFJK, ICntrl=    100127 FMM=F ISym2X=0 I1Cent= 0 IOpClX= 0 NMat=1 NMatS=1 NMatT=0.
 Full mass-weighted force constant matrix:
 Low frequencies ---  -26.6692   -0.0009   -0.0008   -0.0007    5.9450   10.9110
 Low frequencies ---   23.1660   39.9737   48.2512
 Diagonal vibrational polarizability:
      597.5840782     140.9726531     147.9160308
 Harmonic frequencies (cm**-1), IR intensities (KM/Mole), Raman scattering
 activities (A**4/AMU), depolarization ratios for plane and unpolarized
 incident light, reduced masses (AMU), force constants (mDyne/A),
 and normal coordinates:
                      1                      2                      3
                      A                      A                      A
 Frequencies --     17.1141                39.7535                48.2144
 Red. masses --      5.5141                 7.0298                 7.4573
 Frc consts  --      0.0010                 0.0065                 0.0102
 IR Inten    --      2.3688                 2.1468                 0.4054
  Atom  AN      X      Y      Z        X      Y      Z        X      Y      Z
     1   6     0.00   0.00   0.18     0.00   0.01  -0.08     0.00  -0.07  -0.01
     2   6    -0.01   0.00   0.28     0.00   0.01   0.09    -0.01  -0.08   0.00
     3   6    -0.01  -0.01   0.19     0.00   0.01   0.25    -0.01  -0.08   0.02
     4   6     0.00   0.00   0.01     0.00   0.01   0.21     0.00  -0.08   0.02
     5   1    -0.01   0.00   0.41     0.00   0.01   0.06    -0.01  -0.08  -0.01
     6   1    -0.01  -0.01   0.21    -0.01   0.00   0.37    -0.01  -0.09   0.03
     7   6     0.00   0.00  -0.16     0.00   0.01  -0.11     0.00  -0.08   0.00
     8   1     0.00   0.00  -0.21     0.00   0.01  -0.02     0.01  -0.08   0.01
     9   1     0.00  -0.11  -0.22     0.10  -0.06  -0.20     0.02  -0.08  -0.01
    10   1     0.00   0.12  -0.21    -0.11   0.09  -0.20    -0.01  -0.08  -0.01
    11   7     0.00   0.00   0.03     0.00   0.01   0.02     0.00  -0.08   0.00
    12   8     0.00  -0.01  -0.12     0.00   0.01   0.32     0.00  -0.08   0.04
    13   8     0.00   0.01   0.20     0.00   0.01  -0.27     0.00  -0.06  -0.04
    14   8     0.02   0.01  -0.10    -0.01  -0.04  -0.35     0.38   0.24  -0.03
    15   1    -0.03  -0.03  -0.14    -0.18   0.10  -0.48     0.28   0.38  -0.11
    16   1     0.01   0.00  -0.13     0.00  -0.03  -0.07     0.14   0.13   0.01
    17   8     0.01   0.01  -0.32     0.04  -0.03   0.05    -0.36   0.23   0.01
    18   1     0.01   0.01  -0.12     0.01  -0.02  -0.10    -0.14   0.13  -0.02
    19   1    -0.15  -0.10  -0.44     0.05   0.07   0.06    -0.28   0.36   0.07
                      4                      5                      6
                      A                      A                      A
 Frequencies --     73.9704                80.1441               133.8484
 Red. masses --      7.1253                 1.0380                 6.0960
 Frc consts  --      0.0230                 0.0039                 0.0643
 IR Inten    --     37.0072                 0.7411                 0.7833
  Atom  AN      X      Y      Z        X      Y      Z        X      Y      Z
     1   6     0.11  -0.10   0.01     0.00   0.00   0.01     0.00   0.11   0.00
     2   6     0.23  -0.06   0.01     0.01   0.00   0.00    -0.01   0.11  -0.02
     3   6     0.23   0.06   0.01     0.01   0.00  -0.01    -0.01   0.10  -0.01
     4   6     0.11   0.10   0.01     0.00   0.00  -0.01     0.01   0.09   0.00
     5   1     0.31  -0.12   0.01     0.01   0.00  -0.01    -0.01   0.11  -0.02
     6   1     0.31   0.13   0.02     0.01   0.01  -0.02    -0.02   0.09  -0.01
     7   6    -0.12   0.00  -0.01     0.00   0.00  -0.01     0.04   0.11  -0.02
     8   1    -0.16   0.11  -0.17     0.01  -0.01   0.57     0.05   0.09  -0.04
     9   1    -0.29  -0.07   0.06     0.50   0.02  -0.30     0.04   0.11  -0.02
    10   1    -0.02  -0.04   0.06    -0.50   0.00  -0.28     0.06   0.13  -0.02
    11   7     0.03   0.00   0.00     0.00   0.00   0.03     0.01   0.10  -0.01
    12   8     0.07   0.20   0.01     0.00   0.01  -0.02     0.02   0.04   0.02
    13   8     0.07  -0.20   0.00     0.00  -0.01   0.01    -0.02   0.07   0.03
    14   8    -0.28  -0.09  -0.03    -0.01   0.00   0.00     0.24  -0.24   0.02
    15   1    -0.13  -0.21   0.09     0.00  -0.01   0.01     0.03  -0.25  -0.14
    16   1     0.00   0.04  -0.03     0.00   0.00  -0.01     0.21  -0.25   0.08
    17   8    -0.31   0.08  -0.02    -0.01   0.00   0.01    -0.28  -0.30  -0.01
    18   1    -0.02  -0.05  -0.04     0.00   0.00   0.01    -0.27  -0.31  -0.06
    19   1    -0.14   0.22   0.11     0.00   0.01   0.02     0.05  -0.39   0.23
                      7                      8                      9
                      A                      A                      A
 Frequencies --    141.9830               144.4886               163.8964
 Red. masses --      5.5292                 4.7651                 1.1158
 Frc consts  --      0.0657                 0.0586                 0.0177
 IR Inten    --      4.9619                 2.6921               168.8842
  Atom  AN      X      Y      Z        X      Y      Z        X      Y      Z
     1   6     0.00   0.01  -0.02     0.04   0.04   0.00    -0.01  -0.01   0.01
     2   6     0.00   0.01   0.18    -0.02   0.02   0.00     0.00  -0.01   0.00
     3   6     0.00   0.00   0.18    -0.02  -0.05   0.00     0.00   0.00   0.01
     4   6     0.00   0.00  -0.02     0.03  -0.07   0.01    -0.01   0.00   0.01
     5   1     0.00   0.01   0.25    -0.06   0.06  -0.01    -0.01   0.00  -0.02
     6   1     0.00   0.00   0.24    -0.06  -0.08  -0.01     0.00   0.00   0.00
     7   6     0.02   0.00   0.28     0.24  -0.01  -0.02    -0.02   0.00  -0.01
     8   1     0.03  -0.01   0.31     0.27  -0.13  -0.04    -0.02   0.00  -0.03
     9   1     0.01   0.15   0.36     0.26   0.04  -0.01    -0.03  -0.04  -0.02
    10   1     0.05  -0.13   0.35     0.30   0.06  -0.01    -0.02   0.02  -0.02
    11   7     0.01   0.01   0.09     0.08  -0.01   0.00    -0.01  -0.01   0.04
    12   8     0.01   0.00  -0.31     0.05  -0.09   0.02    -0.01   0.00  -0.02
    13   8     0.00   0.01  -0.30     0.05   0.07   0.01     0.00   0.00  -0.02
    14   8     0.00   0.01   0.01    -0.23   0.25  -0.02     0.00  -0.01   0.00
    15   1    -0.07  -0.20  -0.04     0.05   0.32   0.19     0.11   0.01   0.08
    16   1     0.02   0.01  -0.18    -0.24   0.25  -0.07     0.01  -0.01  -0.03
    17   8    -0.03  -0.05   0.01    -0.16  -0.19  -0.01    -0.01   0.05  -0.04
    18   1    -0.03  -0.05  -0.18    -0.18  -0.18  -0.05     0.03   0.03  -0.11
    19   1    -0.12   0.15  -0.06     0.11  -0.27   0.19     0.79  -0.20   0.54
                     10                     11                     12
                      A                      A                      A
 Frequencies --    167.3132               183.3686               287.0335
 Red. masses --      1.0987                 3.6885                 3.4470
 Frc consts  --      0.0181                 0.0731                 0.1673
 IR Inten    --     97.2489                23.7797                31.4704
  Atom  AN      X      Y      Z        X      Y      Z        X      Y      Z
     1   6     0.00   0.00   0.01     0.00   0.00   0.09    -0.07  -0.03   0.01
     2   6     0.00   0.01   0.01     0.00   0.00  -0.10     0.02  -0.02   0.01
     3   6     0.00   0.01   0.00     0.00   0.00  -0.10     0.02   0.02  -0.02
     4   6     0.00   0.01   0.01     0.00   0.00   0.09    -0.07   0.03   0.00
     5   1     0.00   0.00   0.00     0.00   0.00  -0.23     0.04  -0.04   0.03
     6   1    -0.01   0.00  -0.03     0.00   0.00  -0.22     0.05   0.05  -0.04
     7   6    -0.01   0.01  -0.01     0.00   0.00  -0.14     0.30   0.01   0.00
     8   1    -0.01   0.01  -0.04     0.00   0.01  -0.37     0.42  -0.34  -0.03
     9   1    -0.02  -0.03  -0.02    -0.10  -0.33  -0.23     0.43   0.19   0.00
    10   1     0.00   0.03  -0.02     0.10   0.34  -0.22     0.46   0.19   0.01
    11   7    -0.01   0.01   0.04     0.00  -0.01   0.38    -0.08   0.01   0.01
    12   8     0.00   0.00  -0.01     0.01   0.00  -0.08    -0.11   0.14   0.01
    13   8    -0.01   0.00  -0.02     0.00   0.01  -0.08    -0.12  -0.17  -0.01
    14   8    -0.01  -0.04  -0.04     0.01   0.02   0.03     0.02  -0.03   0.00
    15   1     0.77   0.22   0.56    -0.26  -0.16  -0.17     0.03  -0.05   0.01
    16   1     0.03  -0.02  -0.11     0.00   0.01  -0.05     0.08  -0.01   0.02
    17   8     0.00  -0.01   0.01     0.00  -0.02   0.02     0.02   0.04   0.00
    18   1     0.00  -0.01   0.00    -0.01  -0.02  -0.07     0.11   0.00  -0.04
    19   1    -0.13   0.05  -0.09    -0.20   0.14  -0.12     0.05   0.12   0.02
                     13                     14                     15
                      A                      A                      A
 Frequencies --    296.3233               325.7457               330.3153
 Red. masses --      2.8480                 1.1271                 1.1424
 Frc consts  --      0.1473                 0.0705                 0.0734
 IR Inten    --     17.0960               110.1097               115.4480
  Atom  AN      X      Y      Z        X      Y      Z        X      Y      Z
     1   6     0.00   0.00   0.10     0.00   0.00   0.01     0.00   0.01  -0.01
     2   6     0.00   0.00   0.25    -0.01   0.00   0.03     0.00   0.01  -0.05
     3   6     0.00   0.00  -0.25    -0.01   0.00  -0.04    -0.01   0.00   0.04
     4   6     0.00   0.00  -0.10     0.00  -0.01  -0.01     0.00   0.00   0.01
     5   1     0.00   0.00   0.48    -0.01   0.00   0.08     0.00   0.00  -0.07
     6   1     0.00   0.00  -0.47     0.00   0.00  -0.05    -0.01   0.00   0.09
     7   6    -0.02   0.00   0.00    -0.01   0.00   0.00    -0.01   0.01   0.00
     8   1    -0.02   0.02   0.00    -0.01   0.00   0.01    -0.01   0.01   0.00
     9   1    -0.03  -0.01   0.00    -0.01   0.01   0.00    -0.01   0.01   0.00
    10   1    -0.02  -0.01   0.00    -0.01  -0.02   0.00    -0.01  -0.01   0.00
    11   7     0.01   0.00   0.00     0.00   0.00  -0.02     0.00   0.00  -0.01
    12   8     0.01  -0.01   0.09     0.00  -0.01   0.05     0.00  -0.01  -0.02
    13   8     0.01   0.01  -0.09     0.00   0.01   0.00     0.00   0.00   0.05
    14   8     0.00  -0.02   0.00     0.00   0.04   0.01     0.00  -0.01   0.00
    15   1    -0.08   0.34  -0.08     0.08  -0.68   0.09    -0.02   0.15  -0.02
    16   1    -0.11  -0.06   0.33     0.22   0.13  -0.61    -0.05  -0.03   0.13
    17   8     0.00  -0.02   0.00     0.00  -0.01   0.00     0.00  -0.04   0.01
    18   1     0.06  -0.05  -0.26     0.05  -0.04  -0.17     0.20  -0.14  -0.62
    19   1     0.08   0.25   0.06     0.03   0.18   0.03     0.09   0.69   0.09
                     16                     17                     18
                      A                      A                      A
 Frequencies --    410.0869               575.4280               589.5773
 Red. masses --      7.8626                 1.3672                 1.1890
 Frc consts  --      0.7791                 0.2667                 0.2435
 IR Inten    --     36.0753               371.7721                 0.2091
  Atom  AN      X      Y      Z        X      Y      Z        X      Y      Z
     1   6     0.03   0.05   0.00     0.04   0.04   0.00     0.05   0.01   0.00
     2   6     0.01   0.11   0.01    -0.07   0.06   0.00    -0.02   0.00   0.00
     3   6    -0.02   0.11   0.00    -0.07  -0.06   0.00    -0.03  -0.03   0.00
     4   6    -0.01   0.04   0.00     0.04  -0.04   0.00    -0.02  -0.01   0.00
     5   1    -0.04   0.16   0.01    -0.15   0.12  -0.01    -0.05   0.02   0.00
     6   1     0.03   0.15   0.00    -0.14  -0.11  -0.02    -0.08  -0.07   0.00
     7   6    -0.03   0.28   0.00    -0.01   0.00   0.00     0.00   0.01   0.00
     8   1    -0.04   0.32  -0.01    -0.03   0.06   0.00    -0.01   0.03   0.00
     9   1    -0.05   0.27   0.00    -0.04  -0.03   0.00    -0.01  -0.01   0.00
    10   1    -0.03   0.27   0.01    -0.04  -0.03   0.00    -0.01  -0.01   0.00
    11   7     0.01   0.21   0.00     0.04   0.00   0.00     0.02   0.00   0.00
    12   8     0.14  -0.40   0.00     0.01   0.05  -0.01    -0.04   0.05   0.01
    13   8    -0.12  -0.37  -0.01     0.00  -0.05  -0.01     0.05  -0.01  -0.01
    14   8    -0.01   0.04   0.01    -0.02   0.00  -0.02     0.02  -0.01   0.02
    15   1    -0.03   0.01   0.00     0.02  -0.08   0.02    -0.02   0.08  -0.02
    16   1    -0.26  -0.07  -0.19     0.61   0.29   0.37    -0.54  -0.26  -0.33
    17   8     0.01   0.04  -0.01    -0.01   0.00  -0.01    -0.02   0.00  -0.02
    18   1     0.24  -0.06   0.19     0.43  -0.19   0.25     0.56  -0.25   0.32
    19   1     0.02  -0.01  -0.01     0.02   0.06   0.01     0.02   0.08   0.02
                     19                     20                     21
                      A                      A                      A
 Frequencies --    598.2344               628.8358               657.4717
 Red. masses --      2.0044                 5.7095                 2.1110
 Frc consts  --      0.4226                 1.3302                 0.5377
 IR Inten    --    178.1361                 1.5466                 1.7605
  Atom  AN      X      Y      Z        X      Y      Z        X      Y      Z
     1   6    -0.05  -0.02   0.00    -0.21   0.05   0.00     0.00   0.00   0.19
     2   6     0.10  -0.07   0.00    -0.01   0.16   0.01     0.00   0.00   0.02
     3   6     0.10   0.06   0.00     0.01   0.16   0.00     0.00   0.00   0.02
     4   6    -0.08   0.01   0.00     0.20   0.05   0.01     0.00   0.00   0.19
     5   1     0.26  -0.20  -0.04     0.18   0.01  -0.03     0.00   0.01  -0.67
     6   1     0.25   0.19  -0.03    -0.16   0.02  -0.02     0.00   0.00  -0.66
     7   6     0.00   0.01   0.00     0.00  -0.27  -0.01     0.00   0.00  -0.01
     8   1     0.04  -0.10   0.00     0.00  -0.25   0.00     0.00   0.01   0.03
     9   1     0.04   0.06   0.00     0.01  -0.25   0.00     0.01   0.09   0.02
    10   1     0.05   0.06   0.00     0.01  -0.25  -0.01    -0.01  -0.08   0.02
    11   7    -0.08   0.00   0.00     0.00  -0.13  -0.01     0.00   0.00  -0.14
    12   8    -0.04  -0.12  -0.01     0.26   0.02   0.00     0.00   0.00  -0.05
    13   8    -0.01   0.13  -0.01    -0.27   0.03  -0.01     0.00   0.00  -0.05
    14   8    -0.01   0.00  -0.01     0.01   0.01   0.01     0.00   0.00   0.00
    15   1     0.01  -0.04   0.01    -0.02   0.07  -0.02    -0.01  -0.01  -0.01
    16   1     0.29   0.14   0.18    -0.31  -0.14  -0.17    -0.01  -0.01  -0.02
    17   8    -0.02  -0.01  -0.02    -0.01   0.00  -0.01     0.00   0.00   0.00
    18   1     0.60  -0.27   0.34     0.39  -0.17   0.21    -0.03   0.01  -0.03
    19   1     0.02   0.08   0.02     0.03   0.08   0.02    -0.01   0.01  -0.01
                     22                     23                     24
                      A                      A                      A
 Frequencies --    717.5873               756.9477               799.7310
 Red. masses --      7.0059                 5.6105                 7.5131
 Frc consts  --      2.1255                 1.8940                 2.8311
 IR Inten    --     38.9492                 0.1815                 0.0288
  Atom  AN      X      Y      Z        X      Y      Z        X      Y      Z
     1   6     0.00   0.30   0.01     0.17   0.05   0.00     0.00  -0.01   0.49
     2   6     0.27   0.26   0.00     0.02   0.28   0.00     0.00   0.00  -0.18
     3   6     0.27  -0.27   0.00    -0.02   0.27   0.00     0.00   0.00   0.19
     4   6     0.01  -0.30   0.00    -0.17   0.04   0.00     0.00   0.01  -0.49
     5   1     0.11   0.39   0.00    -0.09   0.39   0.01     0.01   0.00  -0.48
     6   1     0.11  -0.41  -0.01     0.08   0.37   0.00    -0.01  -0.01   0.43
     7   6    -0.04   0.01   0.00     0.00  -0.31  -0.01     0.00   0.00  -0.01
     8   1    -0.09   0.15   0.00     0.00  -0.32   0.00     0.00   0.00   0.03
     9   1    -0.11  -0.07   0.01     0.00  -0.31   0.00    -0.01   0.05   0.02
    10   1    -0.11  -0.06  -0.01     0.00  -0.30  -0.01     0.01  -0.04   0.02
    11   7    -0.02   0.00   0.00     0.00  -0.03   0.00     0.00   0.00   0.00
    12   8    -0.17   0.00   0.00    -0.17  -0.10   0.00     0.00   0.00   0.13
    13   8    -0.18   0.01   0.00     0.17  -0.10   0.00     0.00   0.00  -0.12
    14   8     0.00   0.00   0.00     0.00   0.00   0.00     0.00   0.00   0.00
    15   1    -0.01   0.03  -0.01     0.01  -0.02   0.01     0.00  -0.01   0.00
    16   1    -0.14  -0.07  -0.08     0.07   0.03   0.04    -0.02  -0.01  -0.02
    17   8     0.01   0.00   0.00     0.00   0.00   0.00     0.00   0.00   0.00
    18   1    -0.15   0.07  -0.08    -0.08   0.03  -0.04     0.02  -0.01   0.02
    19   1    -0.01  -0.04  -0.01    -0.01  -0.02   0.00     0.00  -0.01   0.00
                     25                     26                     27
                      A                      A                      A
 Frequencies --    878.0570               975.4540              1015.9374
 Red. masses --      2.0664                 2.0896                 1.3037
 Frc consts  --      0.9386                 1.1715                 0.7928
 IR Inten    --     90.6757                41.3592                 0.0679
  Atom  AN      X      Y      Z        X      Y      Z        X      Y      Z
     1   6     0.00   0.00   0.17    -0.04   0.05   0.00     0.00   0.00  -0.01
     2   6     0.00   0.00  -0.13    -0.02  -0.09   0.00     0.00   0.00   0.11
     3   6     0.00   0.00  -0.12    -0.02   0.09   0.00     0.00   0.00  -0.12
     4   6     0.00   0.00   0.16    -0.04  -0.04   0.00     0.00   0.00   0.01
     5   1    -0.01   0.00   0.68     0.16  -0.24   0.00     0.02   0.00  -0.68
     6   1     0.00  -0.01   0.65     0.18   0.26   0.02    -0.02  -0.02   0.71
     7   6     0.00   0.00  -0.01     0.10   0.00   0.00     0.00   0.00   0.00
     8   1     0.00   0.00   0.03    -0.12   0.64   0.01     0.00   0.00   0.00
     9   1     0.00   0.08   0.02    -0.22  -0.34   0.04     0.00   0.01   0.00
    10   1     0.00  -0.07   0.02    -0.23  -0.31  -0.06     0.00   0.00   0.00
    11   7     0.00   0.00  -0.07     0.20  -0.01   0.00     0.00   0.00   0.00
    12   8     0.00   0.00  -0.04    -0.08   0.01   0.00     0.00   0.00   0.00
    13   8     0.00   0.00  -0.04    -0.08  -0.01   0.00     0.00   0.00   0.00
    14   8     0.00   0.00   0.00     0.00   0.00   0.00     0.00   0.00   0.00
    15   1     0.01   0.02   0.00     0.00   0.00   0.00     0.00   0.01   0.00
    16   1     0.01   0.01   0.02     0.00   0.00   0.00     0.01   0.00   0.01
    17   8     0.00   0.00   0.00     0.00   0.00   0.00     0.00   0.00   0.00
    18   1     0.02  -0.01   0.02     0.00   0.00   0.00    -0.01   0.00  -0.01
    19   1     0.01  -0.02   0.00     0.00   0.00   0.00     0.00   0.01   0.00
                     28                     29                     30
                      A                      A                      A
 Frequencies --   1074.6935              1143.9667              1162.8283
 Red. masses --      1.5487                 2.4893                 1.3067
 Frc consts  --      1.0538                 1.9193                 1.0410
 IR Inten    --     17.4370                37.6031                 0.6541
  Atom  AN      X      Y      Z        X      Y      Z        X      Y      Z
     1   6    -0.02  -0.08   0.00     0.08   0.20   0.00     0.00   0.01   0.01
     2   6     0.03   0.09   0.00    -0.06  -0.11   0.00     0.00  -0.01   0.00
     3   6    -0.04   0.10   0.00    -0.06   0.10   0.00     0.00   0.00   0.00
     4   6     0.02  -0.09   0.00     0.08  -0.19   0.00     0.00   0.00   0.00
     5   1     0.59  -0.35   0.02     0.28  -0.40   0.00     0.03  -0.03   0.01
     6   1    -0.58  -0.34  -0.03     0.24   0.36   0.00    -0.02  -0.02   0.03
     7   6     0.00   0.08   0.00    -0.11  -0.01  -0.01     0.00  -0.01   0.14
     8   1     0.00   0.09   0.00     0.05  -0.49   0.00     0.00  -0.03  -0.33
     9   1     0.00   0.08   0.00     0.18   0.27  -0.05     0.13  -0.61  -0.21
    10   1     0.00   0.07   0.00     0.20   0.20   0.08    -0.12   0.62  -0.17
    11   7     0.00  -0.06   0.00     0.01   0.02   0.00     0.00   0.01  -0.07
    12   8    -0.04   0.00   0.00    -0.01   0.03   0.00     0.00   0.00   0.00
    13   8     0.04   0.00   0.00     0.00  -0.03   0.00     0.00   0.00   0.00
    14   8     0.00   0.00   0.00     0.00   0.00   0.00     0.00   0.00   0.00
    15   1     0.00  -0.01   0.00     0.00   0.02   0.00     0.00   0.00   0.00
    16   1     0.03   0.01   0.01    -0.03  -0.02  -0.03     0.00   0.00   0.00
    17   8     0.00   0.00   0.00     0.00   0.00   0.00     0.00   0.00   0.00
    18   1    -0.03   0.01  -0.01    -0.04   0.02  -0.02     0.00   0.00   0.00
    19   1     0.00  -0.01   0.00     0.00  -0.02   0.00     0.00   0.00   0.00
                     31                     32                     33
                      A                      A                      A
 Frequencies --   1170.1844              1305.9674              1341.4596
 Red. masses --      2.4846                 3.3389                 1.7376
 Frc consts  --      2.0045                 3.3552                 1.8423
 IR Inten    --      1.8801                69.3471                 5.4181
  Atom  AN      X      Y      Z        X      Y      Z        X      Y      Z
     1   6     0.04   0.14   0.00    -0.08  -0.12   0.00    -0.02  -0.03   0.00
     2   6     0.05  -0.09   0.00     0.02   0.06   0.00    -0.07   0.16   0.00
     3   6    -0.04  -0.10   0.00     0.03  -0.05   0.00    -0.07  -0.16   0.00
     4   6    -0.06   0.17   0.00    -0.06   0.08   0.00    -0.02   0.04   0.00
     5   1     0.43  -0.41   0.00     0.00   0.08   0.00     0.58  -0.36   0.01
     6   1    -0.46  -0.47  -0.02     0.03  -0.05   0.00     0.58   0.36   0.01
     7   6     0.01  -0.15  -0.02    -0.17  -0.01   0.00     0.02   0.00   0.00
     8   1     0.00  -0.14   0.03     0.01  -0.49  -0.01     0.00   0.03   0.00
     9   1    -0.02  -0.10   0.02     0.40   0.29  -0.20    -0.04  -0.03   0.02
    10   1     0.00  -0.22   0.01     0.41   0.27   0.20    -0.04  -0.02  -0.02
    11   7     0.01   0.17   0.01     0.33   0.01   0.00    -0.02   0.00   0.00
    12   8     0.00  -0.03   0.00    -0.08  -0.01   0.00     0.03   0.01   0.00
    13   8    -0.01  -0.02   0.00    -0.07   0.02   0.00     0.03  -0.01   0.00
    14   8     0.00   0.00   0.00     0.00   0.00   0.00     0.00   0.00   0.00
    15   1     0.00  -0.02   0.00     0.00  -0.01   0.00     0.00   0.01   0.00
    16   1     0.04   0.02   0.03     0.01   0.01   0.01    -0.02   0.00  -0.01
    17   8     0.00   0.00   0.00     0.00   0.00   0.00     0.00   0.00   0.00
    18   1    -0.03   0.01  -0.02     0.01  -0.01   0.02    -0.02   0.00  -0.01
    19   1     0.00  -0.02   0.00     0.00   0.02   0.00     0.00  -0.01   0.00
                     34                     35                     36
                      A                      A                      A
 Frequencies --   1447.1640              1487.3722              1494.6383
 Red. masses --      1.4962                 1.0602                 1.7996
 Frc consts  --      1.8462                 1.3819                 2.3686
 IR Inten    --     51.0660                23.7865               179.5830
  Atom  AN      X      Y      Z        X      Y      Z        X      Y      Z
     1   6     0.03   0.05   0.00    -0.01  -0.02   0.00    -0.04  -0.12   0.00
     2   6     0.00  -0.01   0.00     0.00   0.00   0.00     0.00   0.02   0.00
     3   6     0.00   0.00   0.00     0.00   0.00   0.00     0.01   0.02   0.00
     4   6    -0.03   0.05   0.00     0.01  -0.02   0.00     0.03  -0.11   0.00
     5   1     0.01  -0.01   0.00    -0.01   0.01   0.00    -0.03   0.04   0.00
     6   1    -0.02  -0.02   0.00     0.00   0.01   0.00     0.02   0.03   0.00
     7   6     0.00   0.16   0.00     0.00  -0.01  -0.05     0.04  -0.03   0.01
     8   1     0.26  -0.63   0.03     0.03  -0.06   0.70     0.20  -0.51  -0.18
     9   1    -0.22  -0.45  -0.13    -0.41  -0.31   0.08    -0.36   0.08   0.28
    10   1    -0.17  -0.42   0.13     0.32   0.34   0.01    -0.54  -0.06  -0.29
    11   7     0.02  -0.09   0.00     0.00   0.03  -0.02     0.04   0.18   0.01
    12   8     0.01  -0.01   0.00     0.00   0.00   0.00    -0.01   0.02   0.00
    13   8    -0.01  -0.01   0.00     0.00   0.00   0.00    -0.01   0.02   0.00
    14   8     0.00   0.00   0.00     0.00   0.00   0.00     0.00   0.00   0.00
    15   1     0.00  -0.01   0.00     0.00   0.00   0.00     0.00   0.02   0.00
    16   1     0.00   0.00   0.01     0.00   0.00   0.00     0.00   0.00  -0.02
    17   8     0.00   0.00   0.00     0.00   0.00   0.00     0.00   0.00   0.00
    18   1     0.00   0.00  -0.01     0.00   0.00   0.00     0.00   0.00   0.02
    19   1     0.00  -0.01   0.00     0.00   0.00   0.00     0.00   0.02   0.00
                     37                     38                     39
                      A                      A                      A
 Frequencies --   1515.5489              1644.8110              1645.8176
 Red. masses --      1.4903                 1.0800                 1.0793
 Frc consts  --      2.0168                 1.7214                 1.7225
 IR Inten    --     82.5482                87.8144                79.5578
  Atom  AN      X      Y      Z        X      Y      Z        X      Y      Z
     1   6     0.03   0.08   0.00     0.00   0.00   0.00     0.00  -0.01   0.00
     2   6     0.01  -0.01   0.00     0.00   0.00   0.00     0.00   0.00   0.00
     3   6     0.00  -0.01   0.00     0.00   0.00   0.00     0.00   0.00   0.00
     4   6    -0.03   0.09   0.00    -0.01  -0.01   0.00     0.00   0.00   0.00
     5   1     0.02  -0.02   0.00     0.00   0.00   0.00    -0.01   0.01   0.00
     6   1    -0.03  -0.03   0.00     0.01   0.00   0.00     0.00   0.00   0.00
     7   6     0.03  -0.01   0.00     0.00   0.00   0.00     0.00   0.00   0.00
     8   1     0.05  -0.10   0.01     0.00   0.00   0.00     0.00   0.00   0.00
     9   1    -0.33   0.44   0.40     0.00   0.00   0.00     0.00   0.00   0.00
    10   1    -0.33   0.48  -0.38     0.00   0.00   0.00     0.00   0.00   0.00
    11   7     0.04  -0.14   0.00     0.00   0.00   0.00     0.00   0.00   0.00
    12   8    -0.01  -0.02   0.00     0.01   0.00   0.00     0.00   0.00   0.00
    13   8    -0.01  -0.01   0.00     0.00   0.00   0.00     0.00   0.00   0.00
    14   8     0.00   0.00   0.00     0.01   0.05  -0.04     0.00   0.01  -0.01
    15   1     0.00  -0.01   0.00     0.16  -0.59   0.15     0.05  -0.17   0.04
    16   1     0.00   0.00   0.01    -0.39  -0.17   0.58    -0.11  -0.05   0.17
    17   8     0.00   0.00   0.00     0.00  -0.01  -0.01    -0.01   0.05   0.04
    18   1     0.00   0.00  -0.01    -0.11   0.05   0.17     0.37  -0.17  -0.59
    19   1     0.00  -0.01   0.00     0.05   0.17   0.04    -0.16  -0.60  -0.13
                     40                     41                     42
                      A                      A                      A
 Frequencies --   1687.6905              1786.2554              1865.2445
 Red. masses --      6.7152                11.7657                11.4773
 Frc consts  --     11.2692                22.1185                23.5268
 IR Inten    --      4.5929              1322.6485                 3.4438
  Atom  AN      X      Y      Z        X      Y      Z        X      Y      Z
     1   6     0.03  -0.04   0.00     0.52  -0.22   0.00     0.54  -0.17   0.00
     2   6     0.50  -0.04   0.00    -0.06   0.03   0.00    -0.09   0.03   0.00
     3   6    -0.50  -0.05   0.00    -0.06  -0.03   0.00     0.09   0.03   0.00
     4   6    -0.03  -0.04   0.00     0.51   0.22   0.01    -0.54  -0.18  -0.01
     5   1     0.01   0.49   0.01     0.13  -0.12   0.00     0.13  -0.14   0.00
     6   1    -0.01   0.49   0.01     0.13   0.11   0.00    -0.12  -0.14   0.00
     7   6     0.00   0.00   0.00     0.02   0.00   0.00     0.00  -0.03   0.00
     8   1    -0.01   0.01   0.00     0.01   0.09   0.00    -0.07   0.11   0.00
     9   1     0.01   0.02   0.00     0.02  -0.07  -0.02     0.05   0.11   0.04
    10   1     0.01   0.02   0.00     0.02  -0.06   0.01     0.05   0.11  -0.04
    11   7     0.00  -0.01   0.00    -0.08   0.00   0.00     0.00   0.01   0.00
    12   8     0.05   0.03   0.00    -0.32  -0.13   0.00     0.31   0.11   0.00
    13   8    -0.05   0.03   0.00    -0.33   0.13   0.00    -0.31   0.11   0.00
    14   8     0.00   0.00   0.00     0.00   0.01   0.00     0.00   0.00   0.00
    15   1     0.00   0.00   0.00     0.01  -0.05   0.01    -0.01   0.02  -0.01
    16   1     0.00   0.00   0.00    -0.07  -0.07   0.05     0.03   0.04  -0.02
    17   8     0.00   0.00   0.00     0.00  -0.01   0.00     0.00   0.00   0.00
    18   1     0.00   0.00   0.00    -0.07   0.07   0.05    -0.03   0.04   0.02
    19   1     0.00   0.00   0.00     0.01   0.05   0.01     0.01   0.02   0.01
                     43                     44                     45
                      A                      A                      A
 Frequencies --   3076.6045              3151.4664              3182.0602
 Red. masses --      1.0337                 1.1066                 1.1040
 Frc consts  --      5.7649                 6.4754                 6.5862
 IR Inten    --     27.3395                10.2874                 0.6882
  Atom  AN      X      Y      Z        X      Y      Z        X      Y      Z
     1   6     0.00   0.00   0.00     0.00   0.00   0.00     0.00   0.00   0.00
     2   6     0.00   0.00   0.00     0.00   0.00   0.00     0.00   0.00   0.00
     3   6     0.00   0.00   0.00     0.00   0.00   0.00     0.00   0.00   0.00
     4   6     0.00   0.00   0.00     0.00   0.00   0.00     0.00   0.00   0.00
     5   1     0.00   0.00   0.00     0.00   0.00   0.00     0.00   0.00   0.00
     6   1     0.00   0.00   0.00     0.00   0.00   0.00     0.00   0.00   0.00
     7   6    -0.01   0.05   0.00     0.00   0.00  -0.09    -0.09  -0.01   0.00
     8   1    -0.43  -0.15   0.00    -0.02  -0.01  -0.02     0.84   0.29  -0.01
     9   1     0.29  -0.21   0.50     0.35  -0.25   0.56     0.15  -0.12   0.27
    10   1     0.29  -0.20  -0.53    -0.33   0.22   0.58     0.13  -0.09  -0.26
    11   7     0.00   0.00   0.00     0.00   0.00   0.00     0.00   0.00   0.00
    12   8     0.00   0.00   0.00     0.00   0.00   0.00     0.00   0.00   0.00
    13   8     0.00   0.00   0.00     0.00   0.00   0.00     0.00   0.00   0.00
    14   8     0.00   0.00   0.00     0.00   0.00   0.00     0.00   0.00   0.00
    15   1     0.00   0.00   0.00     0.00   0.00   0.00     0.00   0.00   0.00
    16   1     0.00   0.00   0.00     0.00   0.00   0.00     0.00   0.00   0.00
    17   8     0.00   0.00   0.00     0.00   0.00   0.00     0.00   0.00   0.00
    18   1     0.00   0.00   0.00     0.00   0.00   0.00     0.00   0.00   0.00
    19   1     0.00   0.00   0.00     0.00   0.00   0.00     0.00   0.00   0.00
                     46                     47                     48
                      A                      A                      A
 Frequencies --   3251.6840              3270.3667              3728.8080
 Red. masses --      1.0915                 1.1116                 1.0563
 Frc consts  --      6.7996                 7.0045                 8.6528
 IR Inten    --     14.5645                 8.0959               464.6079
  Atom  AN      X      Y      Z        X      Y      Z        X      Y      Z
     1   6     0.00   0.00   0.00     0.00   0.00   0.00     0.00   0.00   0.00
     2   6    -0.04  -0.05   0.00    -0.05  -0.05   0.00     0.00   0.00   0.00
     3   6    -0.04   0.05   0.00     0.05  -0.05   0.00     0.00   0.00   0.00
     4   6     0.00   0.00   0.00     0.00   0.00   0.00     0.00   0.00   0.00
     5   1     0.44   0.54   0.01     0.45   0.55   0.01     0.00   0.00   0.00
     6   1     0.45  -0.55   0.00    -0.45   0.54   0.00     0.00   0.00   0.00
     7   6     0.00   0.00   0.00     0.00   0.00   0.00     0.00   0.00   0.00
     8   1     0.00   0.00   0.00     0.00   0.00   0.00     0.00   0.00   0.00
     9   1     0.00   0.00   0.00     0.00   0.00   0.00     0.00   0.00   0.00
    10   1     0.00   0.00   0.00     0.00   0.00   0.00     0.00   0.00   0.00
    11   7     0.00   0.00   0.00     0.00   0.00   0.00     0.00   0.00   0.00
    12   8     0.00   0.00   0.00     0.00   0.00   0.00     0.00   0.00   0.00
    13   8     0.00   0.00   0.00     0.00   0.00   0.00     0.00   0.00   0.00
    14   8     0.00   0.00   0.00     0.00   0.00   0.00    -0.01   0.02   0.00
    15   1     0.00   0.00   0.00     0.00   0.00   0.00    -0.06   0.01   0.07
    16   1     0.00   0.00   0.00     0.00   0.00   0.00     0.16  -0.34  -0.01
    17   8     0.00   0.00   0.00     0.00   0.00   0.00    -0.02  -0.05  -0.01
    18   1     0.00   0.00   0.00     0.00   0.00   0.00     0.37   0.81  -0.04
    19   1     0.00   0.00   0.00     0.00   0.00   0.00    -0.14  -0.03   0.17
                     49                     50                     51
                      A                      A                      A
 Frequencies --   3733.1071              3925.8023              3926.2128
 Red. masses --      1.0558                 1.0722                 1.0724
 Frc consts  --      8.6692                 9.7359                 9.7396
 IR Inten    --    355.4002               201.1428                47.3975
  Atom  AN      X      Y      Z        X      Y      Z        X      Y      Z
     1   6     0.00   0.00   0.00     0.00   0.00   0.00     0.00   0.00   0.00
     2   6     0.00   0.00   0.00     0.00   0.00   0.00     0.00   0.00   0.00
     3   6     0.00   0.00   0.00     0.00   0.00   0.00     0.00   0.00   0.00
     4   6     0.00   0.00   0.00     0.00   0.00   0.00     0.00   0.00   0.00
     5   1     0.00   0.00   0.00     0.00   0.00   0.00     0.00   0.00   0.00
     6   1     0.00   0.00   0.00     0.00   0.00   0.00     0.00   0.00   0.00
     7   6     0.00   0.00   0.00     0.00   0.00   0.00     0.00   0.00   0.00
     8   1     0.00   0.00   0.00     0.00   0.00   0.00     0.00   0.00   0.00
     9   1     0.00   0.00   0.00     0.00   0.00   0.00     0.00   0.00   0.00
    10   1     0.00   0.00   0.00     0.00   0.00   0.00     0.00   0.00   0.00
    11   7     0.00   0.00   0.00     0.00   0.00   0.00     0.00   0.00   0.00
    12   8     0.00   0.00   0.00     0.00   0.00   0.00     0.00   0.00   0.00
    13   8     0.00   0.00   0.00     0.00   0.00   0.00     0.00   0.00   0.00
    14   8    -0.01   0.05  -0.01     0.03  -0.01  -0.03    -0.03   0.01   0.03
    15   1    -0.15   0.03   0.17    -0.43   0.03   0.54     0.42  -0.03  -0.53
    16   1     0.38  -0.81  -0.01    -0.06   0.15  -0.02     0.06  -0.15   0.02
    17   8     0.01   0.02   0.00     0.03   0.01  -0.03     0.03   0.01  -0.03
    18   1    -0.16  -0.34   0.02    -0.05  -0.15  -0.01    -0.06  -0.16  -0.01
    19   1     0.06   0.01  -0.08    -0.41  -0.03   0.55    -0.41  -0.03   0.55

 -------------------
 - Thermochemistry -
 -------------------
 Temperature   298.150 Kelvin.  Pressure   1.00000 Atm.
 Atom     1 has atomic number  6 and mass  12.00000
 Atom     2 has atomic number  6 and mass  12.00000
 Atom     3 has atomic number  6 and mass  12.00000
 Atom     4 has atomic number  6 and mass  12.00000
 Atom     5 has atomic number  1 and mass   1.00783
 Atom     6 has atomic number  1 and mass   1.00783
 Atom     7 has atomic number  6 and mass  12.00000
 Atom     8 has atomic number  1 and mass   1.00783
 Atom     9 has atomic number  1 and mass   1.00783
 Atom    10 has atomic number  1 and mass   1.00783
 Atom    11 has atomic number  7 and mass  14.00307
 Atom    12 has atomic number  8 and mass  15.99491
 Atom    13 has atomic number  8 and mass  15.99491
 Atom    14 has atomic number  8 and mass  15.99491
 Atom    15 has atomic number  1 and mass   1.00783
 Atom    16 has atomic number  1 and mass   1.00783
 Atom    17 has atomic number  8 and mass  15.99491
 Atom    18 has atomic number  1 and mass   1.00783
 Atom    19 has atomic number  1 and mass   1.00783
 Molecular mass:   147.05316 amu.
 Principal axes and moments of inertia in atomic units:
                           1         2         3
     Eigenvalues --   968.685302779.277983727.88228
           X            0.99997  -0.00030  -0.00723
           Y            0.00030   1.00000   0.00088
           Z            0.00723  -0.00088   0.99997
 This molecule is an asymmetric top.
 Rotational symmetry number  1.
 Warning -- assumption of classical behavior for rotation
           may cause significant error
 Rotational temperatures (Kelvin)      0.08941     0.03116     0.02323
 Rotational constants (GHZ):           1.86308     0.64936     0.48412
 Zero-point vibrational energy     383143.6 (Joules/Mol)
                                   91.57353 (Kcal/Mol)
 Warning -- explicit consideration of  19 degrees of freedom as
           vibrations may cause significant error
 Vibrational temperatures:     24.62    57.20    69.37   106.43   115.31
          (Kelvin)            192.58   204.28   207.89   235.81   240.73
                              263.83   412.98   426.34   468.67   475.25
                              590.02   827.91   848.27   860.72   904.75
                              945.95  1032.45  1089.08  1150.63  1263.33
                             1403.46  1461.71  1546.24  1645.91  1673.05
                             1683.63  1878.99  1930.06  2082.14  2139.99
                             2150.45  2180.53  2366.51  2367.96  2428.21
                             2570.02  2683.67  4426.54  4534.25  4578.27
                             4678.44  4705.32  5364.92  5371.10  5648.35
                             5648.94
 
 Zero-point correction=                           0.145932 (Hartree/Particle)
 Thermal correction to Energy=                    0.159985
 Thermal correction to Enthalpy=                  0.160929
 Thermal correction to Gibbs Free Energy=         0.102840
 Sum of electronic and zero-point Energies=           -551.535033
 Sum of electronic and thermal Energies=              -551.520980
 Sum of electronic and thermal Enthalpies=            -551.520036
 Sum of electronic and thermal Free Energies=         -551.578125
 
                     E (Thermal)             CV                S
                      KCal/Mol        Cal/Mol-Kelvin    Cal/Mol-Kelvin
 Total                  100.392             45.565            122.258
 Electronic               0.000              0.000              0.000
 Translational            0.889              2.981             40.868
 Rotational               0.889              2.981             30.685
 Vibrational             98.615             39.603             50.705
 Vibration     1          0.593              1.986              6.944
 Vibration     2          0.594              1.981              5.271
 Vibration     3          0.595              1.978              4.889
 Vibration     4          0.599              1.966              4.045
 Vibration     5          0.600              1.963              3.887
 Vibration     6          0.613              1.920              2.890
 Vibration     7          0.615              1.911              2.777
 Vibration     8          0.616              1.909              2.744
 Vibration     9          0.623              1.887              2.504
 Vibration    10          0.624              1.883              2.465
 Vibration    11          0.631              1.862              2.294
 Vibration    12          0.684              1.698              1.491
 Vibration    13          0.690              1.681              1.438
 Vibration    14          0.710              1.624              1.281
 Vibration    15          0.713              1.615              1.259
 Vibration    16          0.774              1.448              0.926
 Vibration    17          0.932              1.084              0.494
 Vibration    18          0.947              1.054              0.468
 Vibration    19          0.956              1.036              0.453
                       Q            Log10(Q)             Ln(Q)
 Total Bot       0.497494D-47        -47.303212       -108.919671
 Total V=0       0.661562D+20         19.820570         45.638550
 Vib (Bot)       0.625873D-61        -61.203514       -140.926298
 Vib (Bot)    1  0.121050D+02          1.082965          2.493620
 Vib (Bot)    2  0.520476D+01          0.716401          1.649574
 Vib (Bot)    3  0.428830D+01          0.632286          1.455891
 Vib (Bot)    4  0.278664D+01          0.445081          1.024836
 Vib (Bot)    5  0.256961D+01          0.409867          0.943753
 Vib (Bot)    6  0.152162D+01          0.182305          0.419774
 Vib (Bot)    7  0.143134D+01          0.155744          0.358613
 Vib (Bot)    8  0.140555D+01          0.147846          0.340429
 Vib (Bot)    9  0.123200D+01          0.090611          0.208640
 Vib (Bot)   10  0.120553D+01          0.081179          0.186921
 Vib (Bot)   11  0.109406D+01          0.039039          0.089891
 Vib (Bot)   12  0.667314D+00         -0.175670         -0.404495
 Vib (Bot)   13  0.643110D+00         -0.191715         -0.441440
 Vib (Bot)   14  0.575089D+00         -0.240265         -0.553231
 Vib (Bot)   15  0.565551D+00         -0.247528         -0.569955
 Vib (Bot)   16  0.431398D+00         -0.365122         -0.840724
 Vib (Bot)   17  0.266027D+00         -0.575074         -1.324158
 Vib (Bot)   18  0.255977D+00         -0.591799         -1.362669
 Vib (Bot)   19  0.250054D+00         -0.601966         -1.386079
 Vib (V=0)       0.832278D+06          5.920269         13.631922
 Vib (V=0)    1  0.126153D+02          1.100899          2.534913
 Vib (V=0)    2  0.572872D+01          0.758058          1.745493
 Vib (V=0)    3  0.481735D+01          0.682809          1.572225
 Vib (V=0)    4  0.333114D+01          0.522593          1.203314
 Vib (V=0)    5  0.311780D+01          0.493848          1.137128
[...]
 ,-0.00969743,-0.00032628,-0.00539880,-0.19570369,-0.00143647,0.1728700
 8,0.58910364,0.00006874,0.00100535,-0.01798348,-0.00063875,-0.00050770
 ,0.00424375,-0.00024698,-0.00151253,-0.08055512,0.00932610,0.00692097,
 0.20778422,0.01246356,0.00925732,0.00017717,-0.17865784,-0.14938885,-0
 .00324597,-0.00713369,-0.02302278,-0.00046686,-0.00472269,0.00313866,-
 0.00005926,0.17808268,-0.02004791,-0.00975792,-0.00027083,-0.14759233,
 -0.23967474,-0.00394888,0.00542146,0.01072211,0.00011458,0.00308294,-0
 .00266369,-0.00019825,0.15831331,0.24319837,-0.00033367,-0.00000455,0.
 00136316,-0.00324842,-0.00382105,-0.03923533,-0.00005330,-0.00020930,0
 .00856661,-0.00010834,-0.00022837,0.01295906,0.00365724,0.00411370,0.0
 2548532,-0.00468582,-0.00315920,-0.00020320,-0.00726381,0.02287822,0.0
 0017933,-0.18064099,0.14987707,0.00109487,0.01228086,-0.00919600,-0.00
 007979,0.00105987,-0.00061592,0.00005702,0.18040431,-0.00306260,-0.002
 68874,-0.00024249,-0.00553141,0.01083775,-0.00001492,0.14795606,-0.237
 41125,-0.00162813,0.02013251,-0.00977800,-0.00000458,0.00062356,0.0000
 6110,0.00009362,-0.15884196,0.24084354,-0.00017783,-0.00027320,0.01294
 784,-0.00017921,0.00022957,0.00866979,0.00081097,-0.00156954,-0.039443
 06,0.00036226,-0.00031309,0.00139557,0.00005218,0.00006674,-0.00583608
 ,-0.00089914,0.00178416,0.02605057,0.00794067,-0.02940134,-0.00041418,
 -0.00580185,-0.00308905,-0.00010635,-0.00377523,0.00418391,-0.00000701
 ,0.01387641,0.02557371,0.00060504,0.00097668,-0.00126831,-0.00002069,0
 .00084881,0.00102741,0.00002922,0.61968172,-0.01659925,-0.02261049,-0.
 00048947,0.00024038,0.00267140,-0.00001796,-0.00015130,0.00266059,-0.0
 0001898,0.01936342,-0.02186695,-0.00024379,-0.00004092,0.00040567,-0.0
 0000503,0.00004385,0.00045452,-0.00001824,-0.00339228,0.49907071,-0.00
 007873,-0.00046277,-0.00058586,0.00005076,-0.00005237,0.00233293,-0.00
 017540,0.00002129,0.00334158,0.00021645,0.00008798,-0.00582065,-0.0000
 0434,-0.00000039,0.00091381,0.00000503,0.00001564,0.00127959,0.0003782
 9,-0.00199142,0.58458848,0.00003899,0.00151293,0.00003426,-0.00006823,
 0.00000816,0.00000370,0.00001462,-0.00007165,0.00001344,-0.00174029,0.
 00082902,-0.00002113,-0.00004253,0.00002795,0.00000091,-0.00001020,-0.
 00004808,-0.00000230,-0.30371105,-0.08658924,0.00153338,0.32204531,0.0
 0522468,-0.00471523,0.00001835,-0.00153348,-0.00123954,-0.00004820,-0.
 00016253,0.00014348,-0.00000815,-0.00447689,0.00024039,-0.00004696,0.0
 0035722,-0.00041136,-0.00001169,0.00007066,0.00006509,0.00000156,-0.07
 374507,-0.07498388,0.00036099,0.09161918,0.08973898,0.00005080,-0.0001
 1673,-0.00015497,-0.00004187,-0.00002385,0.00022170,-0.00000350,0.0000
 0616,0.00006281,-0.00000476,0.00000559,0.00140852,0.00000668,-0.000009
 50,0.00001440,0.00000151,0.00000087,-0.00004019,0.00177400,0.00046313,
 -0.04875614,-0.00166580,-0.00013163,0.04584554,0.00057176,-0.00079386,
 0.00077451,0.00023960,-0.00009652,-0.00029498,-0.00024130,-0.00015564,
 -0.00018271,-0.00061153,0.00010788,-0.00059857,-0.00000352,0.00002007,
 -0.00002493,0.00001526,0.00003797,0.00002476,-0.11239311,0.04476758,-0
 .10700928,-0.01100080,0.01062836,-0.02454452,0.11366562,0.00494073,0.0
 0147880,0.00071019,0.00054979,-0.00072068,-0.00037058,0.00042275,-0.00
 139909,-0.00083203,-0.00644344,-0.00138244,0.00279373,0.00000262,0.000
 00482,-0.00009653,-0.00020844,-0.00023049,-0.00027593,0.03985711,-0.07
 611269,0.06840739,-0.00354440,0.00450438,-0.00965097,-0.05042055,0.094
 45241,-0.00196138,0.00013600,0.00057892,0.00007788,0.00012418,-0.00023
 429,0.00021978,-0.00000146,-0.00023276,0.00074552,-0.00136114,-0.00006
 197,-0.00002040,0.00001477,-0.00000207,-0.00000712,-0.00003654,-0.0000
 0907,-0.10752166,0.07475353,-0.23182531,0.00163802,-0.00173512,0.00200
 781,0.11597505,-0.08067985,0.24152447,0.00064314,-0.00078884,-0.000832
 15,0.00022451,-0.00009764,0.00029878,-0.00023816,-0.00015577,0.0001614
 8,-0.00055074,0.00015601,0.00061791,-0.00000283,0.00001709,0.00002710,
 0.00001613,0.00003939,-0.00002692,-0.10722491,0.03874709,0.10520059,-0
 .01050152,0.00965043,0.02532567,0.00802735,-0.00542782,-0.01377986,0.1
 0817639,0.00501325,0.00135745,-0.00080427,0.00055816,-0.00077301,0.000
 38110,0.00032855,-0.00141560,0.00082276,-0.00638472,-0.00109386,-0.002
 94973,0.00000582,-0.00000049,0.00010224,-0.00020270,-0.00022506,0.0002
 6226,0.03405558,-0.07070168,-0.06273724,-0.00325584,0.00406546,0.00978
 169,-0.00576826,0.00455994,0.00806461,-0.04359885,0.08904225,0.0021140
 7,-0.00012383,0.00042493,-0.00004940,-0.00014854,-0.00023409,-0.000193
 00,-0.00005245,-0.00022816,-0.00093917,0.00127503,-0.00011840,0.000020
 81,-0.00001488,0.00000101,-0.00000185,0.00002535,0.00000139,0.10533945
 ,-0.06911565,-0.24192382,-0.00142772,0.00154033,0.00182136,0.01289086,
 -0.00696488,-0.01991808,-0.11414379,0.07556390,0.25315504,-0.15416817,
 -0.04486234,-0.00104623,0.01072156,-0.00954447,-0.00017408,0.00958563,
 0.00984234,0.00003298,-0.15600350,0.04374637,-0.00020366,-0.00018796,0
 .00058044,0.00003927,-0.00012745,-0.00045941,0.00000688,-0.11030618,0.
 00400421,-0.00017948,0.00411064,-0.03908977,-0.00089324,0.00106760,0.0
 2049015,0.00387956,0.00105001,0.01965618,-0.00299966,0.61798636,-0.070
 88191,-0.21720740,-0.00260109,-0.02135209,-0.05381661,-0.00114892,0.02
 148373,-0.05391366,-0.00081014,0.06735213,-0.21442611,-0.00168239,0.00
 435152,-0.00420376,-0.00003076,-0.00431812,-0.00429542,-0.00008864,0.0
 0737607,-0.23950775,-0.00388601,-0.00169150,-0.02040468,-0.00033912,0.
 00039904,-0.02726085,0.00137703,0.00048416,-0.02652054,-0.00277302,-0.
 00489072,0.79803225,-0.00180376,-0.00266730,-0.06583764,-0.00045206,-0
 .00107773,0.01736581,0.00037619,-0.00085735,0.01629540,0.00037990,-0.0
 0213364,-0.05985027,0.00009527,-0.00008092,-0.00052617,-0.00004769,-0.
 00007501,-0.00087203,-0.00008695,-0.00342415,-0.05917227,-0.00013606,-
 0.00000650,-0.00165827,0.00268053,0.02669780,0.00800695,-0.00259689,-0
 .02835150,0.00714189,0.00330063,0.01160120,0.10051354,0.02511069,0.025
 71318,0.00042996,0.00475557,-0.00401420,-0.00004270,-0.02322840,-0.024
 22134,-0.00084505,-0.63205572,-0.21873415,-0.00833249,-0.00080526,-0.0
 0000995,0.00001775,-0.00089042,-0.00218233,0.00001239,-0.00160094,-0.0
 1093740,-0.00006263,0.00070100,0.00170161,-0.00000637,0.00021364,0.001
 77428,-0.00008852,0.00020867,0.00184626,0.00016416,-0.11418296,-0.0023
 0609,-0.00123128,0.75905909,0.00022859,-0.01281786,-0.00028529,-0.0018
 2798,-0.00804926,-0.00016031,-0.04698986,-0.00379626,-0.00075119,-0.20
 918450,-0.19427961,-0.00333771,-0.00219344,0.00135546,0.00003081,0.001
 81422,0.00203318,0.00005551,-0.00208417,-0.00047423,0.00004924,0.00155
 329,0.00170457,0.00003853,0.00068491,0.00103495,0.00004600,0.00062228,
 0.00101105,-0.00005257,0.02172087,0.03171642,0.00022441,0.22963496,0.1
 8698202,0.00017380,-0.00003099,0.00889341,0.00000653,-0.00016879,0.000
 46891,-0.00106907,-0.00062584,0.02075623,-0.00803781,-0.00353500,-0.07
 230969,-0.00002841,0.00005998,-0.00260072,0.00001582,0.00002181,-0.001
 13422,-0.00006540,-0.00010470,-0.00151810,0.00003976,0.00003279,-0.000
 90475,0.00036458,0.00026244,-0.00003675,-0.00036324,-0.00019801,-0.000
 04784,-0.00097379,0.00015955,0.01840091,0.00982872,0.00419556,0.033868
 41,-0.63372066,0.21697398,0.00115267,-0.02300517,0.02436366,0.00006351
 ,0.00460659,0.00399039,0.00011501,0.02468082,-0.02553383,-0.00020114,-
 0.00098192,0.00225868,0.00013076,-0.00080939,0.00002804,0.00000914,0.0
 0136512,0.01057234,0.00011395,0.00019244,-0.00038617,-0.00000576,0.000
 45516,-0.00195139,0.00082148,0.00017758,-0.00220701,-0.00074838,-0.115
 38510,0.00402408,-0.00048647,-0.01865563,0.00232793,-0.00015873,0.7595
 6376,0.20790463,-0.19387045,-0.00123202,0.04666606,-0.00348812,-0.0002
 1298,0.00168716,-0.00802249,-0.00014446,-0.00049629,-0.01247497,-0.000
 27390,-0.00188441,0.00202421,0.00006145,0.00217450,0.00137056,0.000095
 43,0.00089034,0.00149923,0.00018890,-0.00040690,0.00132248,-0.00001664
 ,0.00063771,0.00100746,-0.00070508,0.00040850,0.00063045,0.00083925,-0
 .02119345,0.03226111,0.00014767,-0.00237242,0.00374637,0.00004750,-0.2
 3049530,0.18417978,0.00090596,-0.00104901,-0.07259878,0.00049703,-0.00
 024333,0.02068257,0.00003904,-0.00014743,0.00056870,0.00003499,-0.0003
 7591,0.00882885,-0.00003815,0.00007088,-0.00113755,0.00005724,0.000057
 38,-0.00263070,0.00009534,0.00020079,-0.00287313,-0.00000883,0.0000268
 2,0.00012522,-0.00003392,0.00001040,0.00021033,0.00008453,0.00005082,-
 0.00006678,-0.00080335,0.00022538,0.01913711,-0.00007905,0.00009284,-0
 .00224673,-0.00085738,0.00076730,0.03356896,0.00147332,-0.00090818,-0.
 00003833,-0.00052869,0.00167568,-0.00005976,-0.00126988,-0.00223781,0.
 00019458,0.00636672,0.00029484,-0.00011209,0.00001607,0.00007194,0.000
 00240,0.00066976,0.00147177,-0.00029504,-0.00010251,-0.00075794,-0.000
 02223,0.00007673,-0.00012162,-0.00000720,-0.00005954,0.00013972,-0.000
 01265,-0.00006209,0.00014325,0.00002461,-0.00250376,0.00093656,0.00001
 170,-0.00724093,0.00677182,-0.00006524,-0.00171679,0.00076242,0.000013
 74,0.30917497,-0.00201689,-0.00122815,-0.00006443,0.00009096,0.0003548
 7,0.00002908,0.00032043,0.00015789,0.00019747,-0.00792481,-0.00359995,
 -0.00021204,0.00008405,-0.00003979,-0.00000939,0.00082913,-0.00023024,
 -0.00019109,-0.00000201,0.00050407,0.00000489,-0.00008442,0.00015067,-
 0.00000585,0.00004755,-0.00006925,0.00001483,0.00003860,-0.00007033,-0
 .00001804,0.00413509,0.00050288,0.00009462,0.01169436,-0.00332013,0.00
 002391,0.00153948,0.00004439,0.00002168,-0.19935807,0.46215418,-0.0001
 1829,-0.00022334,-0.00030823,0.00000643,0.00008671,-0.00004194,0.00028
 424,-0.00010227,0.00103188,-0.00081156,-0.00019884,-0.00046685,0.00001
 626,0.00000356,-0.00002344,-0.00018321,0.00006331,-0.00104397,-0.00000
 761,-0.00000601,-0.00002926,-0.00000707,0.00001338,-0.00004514,0.00003
 613,0.00000221,0.00000718,-0.00003334,0.00000301,0.00000872,0.00033614
 ,0.00013293,-0.00028293,0.00098883,-0.00056449,0.00330650,0.00006973,0
 .00005184,0.00012141,-0.26941743,-0.02111315,0.36654875,-0.00028501,0.
 00009208,0.00009381,0.00000852,-0.00002998,-0.00003175,-0.00016077,-0.
 00012711,-0.00025824,-0.00067170,-0.00002145,0.00013036,-0.00001236,-0
 .00001166,0.00000735,-0.00018115,0.00012127,0.00035623,0.00001473,0.00
 011513,0.00001137,-0.00000649,0.00001188,0.00000914,-0.00000084,-0.000
 01862,0.00000398,0.00001220,-0.00001990,-0.00000906,0.00035634,-0.0001
 2779,0.00005113,0.00054242,0.00025982,-0.00059239,0.00023617,-0.000083
 23,-0.00002881,-0.20678349,0.03189635,0.24725799,0.21937199,0.00012277
 ,-0.00002082,-0.00000933,-0.00004241,0.00010185,-0.00000287,-0.0002474
 1,-0.00004549,-0.00010134,-0.00005287,-0.00006756,0.00010883,-0.000003
 86,0.00001204,0.00000198,0.00035390,0.00007886,0.00021477,0.00001069,0
 .00000157,0.00000466,0.00000344,0.00000224,-0.00000582,0.00000632,0.00
 000220,-0.00000301,-0.00000294,-0.00000069,0.00000450,-0.00009451,0.00
 000256,-0.00012129,0.00050659,-0.00118949,0.00081197,-0.00012009,0.000
 03118,0.00000307,-0.00024820,-0.03837407,0.02191824,-0.02825827,0.0408
 8259,0.00013325,0.00004887,0.00004463,-0.00006861,0.00008087,-0.000020
 49,-0.00028480,-0.00006892,-0.00006862,0.00076309,0.00009484,0.0000504
 6,-0.00001088,0.00000215,0.00001370,0.00029793,0.00006091,0.00006782,-
 0.00000346,-0.00003989,0.00000747,0.00000907,-0.00001208,0.00001356,-0
 .00001475,0.00001061,-0.00000107,0.00000185,0.00000917,-0.00000322,-0.
 00033006,0.00000133,-0.00000766,-0.00097117,0.00062905,-0.00018732,-0.
 00014548,0.00002662,-0.00002010,0.26685907,-0.01977414,-0.33406306,-0.
 26552507,0.01322356,0.33634970,-0.00278308,-0.00028027,-0.00006237,0.0
 0047070,-0.00037918,0.00009105,-0.00058654,0.00066934,-0.00005708,-0.0
 1479567,-0.00003487,-0.00024220,0.00010162,-0.00009809,-0.00001525,-0.
 00079328,-0.00134879,-0.00010003,0.00014336,0.00096564,0.00002291,-0.0
 0012281,0.00023576,0.00000350,0.00009745,-0.00017233,0.00001372,0.0000
 8687,-0.00017819,-0.00002656,0.00508406,-0.00068189,-0.00007925,0.0071
 4417,-0.00314533,0.00091835,0.00241588,-0.00050291,0.00001538,-0.09757
 760,0.15880263,0.02159761,-0.01243535,0.02805522,-0.00072093,0.1136614
 5,0.00299144,0.00216482,0.00008019,-0.00003384,-0.00100859,0.00003936,
 -0.00086102,0.00103349,-0.00025347,0.01126080,0.00535938,0.00012736,-0
 .00011117,0.00001398,0.00000513,-0.00153102,-0.00087092,0.00001472,-0.
 00002693,-0.00075161,-0.00001472,0.00011828,-0.00019412,0.00000482,-0.
 00007212,0.00010719,-0.00001740,-0.00005723,0.00011425,0.00002364,-0.0
 0649735,-0.00073280,0.00008136,-0.00883550,-0.00554044,-0.00095839,-0.
 00216013,-0.00018124,-0.00002937,0.19131119,-0.41688135,-0.00006449,-0
 .00378900,-0.00142029,0.00570209,-0.18182523,0.41870204,-0.00002270,0.
 00011137,0.00028548,0.00009129,-0.00011259,0.00005191,-0.00002568,0.00
 017987,-0.00095703,-0.00025432,0.00007469,0.00047188,0.00000367,-0.000
 00826,0.00007320,-0.00028958,-0.00011954,0.00053168,0.00001382,0.00004
 658,0.00002596,-0.00000238,0.00000738,0.00003869,-0.00003343,-0.000016
 67,-0.00000728,0.00004500,-0.00000282,-0.00000686,0.00006697,-0.000111
 18,0.00079997,0.00024226,-0.00020868,-0.00467498,0.00007325,-0.0000553
 7,-0.00013436,0.00292714,0.04099935,-0.03472806,0.01852540,-0.03604665
 ,-0.00217313,-0.02136333,-0.00473695,0.04040825,0.00627593,-0.00023779
 ,-0.00018276,-0.00121778,0.00228099,0.00060328,-0.00052135,-0.00166385
 ,-0.00013127,0.00146444,0.00096075,-0.00007067,0.00078773,-0.00136798,
 -0.00046998,0.00001441,-0.00007323,0.00000833,-0.00009321,0.00081251,0
 .00000303,-0.00005266,-0.00004902,-0.00000401,0.00006267,-0.00008949,0
 .00000977,0.00005590,-0.00008904,-0.00001203,-0.00249906,-0.00092991,-
 0.00004392,-0.00172691,-0.00079145,-0.00000253,-0.00710538,-0.00680721
 ,0.00032537,-0.00040717,0.00015952,-0.00000262,0.00007034,-0.00002779,
 -0.00001457,0.00040961,-0.00018513,0.00001430,0.28604359,0.00791008,-0
 .00366953,0.00016708,-0.00034049,0.00015952,-0.00016831,-0.00010605,0.
 00033805,-0.00001702,0.00203028,-0.00122882,0.00001992,-0.00060113,-0.
 00023768,0.00031140,-0.00008550,-0.00004041,0.00000964,-0.00003440,0.0
 0052774,0.00002305,-0.00004372,-0.00001159,-0.00000077,0.00008112,-0.0
 0001656,-0.00003566,0.00007658,-0.00002604,0.00003201,-0.00417410,0.00
 055885,-0.00013264,-0.00157790,0.00003712,-0.00002781,-0.01174867,-0.0
 0349878,0.00052264,-0.00016391,0.00018404,0.00000072,0.00002095,-0.000
 02984,-0.00001282,0.00023815,-0.00021080,0.00001157,0.19369043,0.46619
 314,-0.00104973,0.00024185,-0.00046677,0.00036881,-0.00011086,0.000795
 61,0.00004615,0.00005013,-0.00000519,-0.00016204,0.00017589,-0.0003208
 2,-0.00026724,0.00012871,-0.00060110,0.00001566,-0.00000134,-0.0000338
 0,0.00000309,-0.00003370,-0.00007777,0.00000329,0.00000029,-0.00000333
 ,0.00000536,-0.00001215,0.00002224,-0.00002252,0.00001596,0.00000843,0
 .00045894,-0.00007878,-0.00031045,0.00015833,-0.00000988,0.00012747,0.
 00140285,0.00093879,0.00330566,0.00001287,-0.00000961,0.00006103,-0.00
 001415,-0.00000414,-0.00001499,-0.00001762,0.00001874,-0.00003817,-0.2
 6996731,0.01009389,0.38512219,-0.01466332,-0.00002243,-0.00007708,-0.0
 0067530,-0.00069983,-0.00013463,0.00048554,0.00038390,0.00009888,-0.00
 273894,0.00024062,-0.00003538,-0.00079241,0.00136700,-0.00000172,0.000
 10512,0.00009840,-0.00000427,0.00015374,-0.00104567,-0.00002195,0.0000
 6843,0.00005954,0.00000440,-0.00009547,0.00008616,0.00001782,-0.000095
 55,0.00009311,-0.00000750,0.00505015,0.00064946,0.00001243,0.00242389,
 0.00051957,0.00003666,0.00717298,0.00339783,0.00039172,0.00040629,-0.0
 0023260,0.00000075,-0.00006326,0.00003433,0.00002154,-0.00045892,0.000
 28016,-0.00001910,-0.09317410,-0.15627553,0.02620109,0.10844598,-0.011
 27919,0.00544513,-0.00004197,0.00094539,0.00099886,0.00025004,0.000046
 03,-0.00101500,-0.00007827,-0.00298742,0.00217512,-0.00002155,0.001501
 76,-0.00088305,-0.00011569,0.00011356,0.00001392,0.00000014,0.00006568
 ,-0.00079733,-0.00002690,0.00005731,0.00002520,0.00000267,-0.00010123,
 0.00004035,0.00004030,-0.00010218,0.00004906,-0.00003013,0.00653509,-0
 .00078910,-0.00003995,0.00219342,-0.00018727,0.00003649,0.00906043,-0.
 00534920,0.00059768,0.00018835,-0.00020936,-0.00000852,-0.00002541,0.0
 0002618,0.00001753,-0.00028427,0.00027009,-0.00000792,-0.18760854,-0.4
 2023297,0.01307736,0.17788908,0.42153573,0.00027918,-0.00018866,0.0004
 1217,0.00008466,-0.00004556,-0.00097961,0.00005331,0.00008473,0.000011
 99,0.00007160,-0.00013179,0.00030976,-0.00017329,0.00001695,0.00053950
 ,-0.00000219,0.00000291,0.00008278,0.00000803,-0.00000505,0.00006878,-
 0.00000025,0.00000157,0.00000258,-0.00002272,0.00000793,-0.00001899,0.
 00002530,-0.00000190,-0.00001887,-0.00017468,0.00005745,0.00087008,-0.
 00002551,0.00003989,-0.00014057,-0.00036546,0.00008690,-0.00472811,0.0
 0000088,-0.00000175,-0.00003646,0.00000828,0.00000317,0.00001019,-0.00
 000203,-0.00000386,0.00002136,0.00840029,-0.02927602,-0.03542136,-0.02
 659338,-0.00780891,0.04231958,-0.00065720,0.00002460,0.00014113,-0.000
 18200,0.00017363,-0.00021317,-0.00000322,0.00000131,-0.00003572,-0.000
 28407,-0.00008625,0.00009396,-0.00014520,-0.00014872,0.00033649,-0.000
 01203,0.00001142,0.00001238,0.00000774,-0.00011815,0.00001828,0.000008
 40,0.00000522,0.00000132,-0.00001001,0.00001316,-0.00001101,-0.0000029
 6,0.00000434,0.00000418,0.00035178,0.00012325,0.00005657,0.00022804,0.
 00007848,-0.00002762,0.00051355,-0.00028703,-0.00061084,0.00006859,-0.
 00001936,-0.00001300,-0.00001231,0.00000508,0.00000395,-0.00006194,0.0
 0002380,0.00000742,-0.18838700,-0.02889618,0.24282416,-0.01155484,0.00
 379213,0.01842797,0.20013470,0.00005455,-0.00007088,-0.00011575,0.0002
 5914,-0.00003955,0.00008678,0.00004536,0.00010775,0.00000826,-0.000129
 26,-0.00001917,0.00001497,-0.00038928,0.00007471,-0.00018798,0.0000037
 5,0.00001203,-0.00000476,0.00000305,0.00001110,0.00000779,0.00000620,-
 0.00000254,-0.00000260,-0.00001034,-0.00000047,0.00000402,-0.00000887,
 -0.00000260,-0.00001003,0.00009539,0.00000462,0.00012091,0.00012663,0.
 00003341,-0.00000247,-0.00053642,-0.00123198,-0.00080262,0.00002818,-0
 .00003035,0.00000521,-0.00000507,0.00000701,0.00000026,-0.00003539,0.0
 0002691,-0.00000419,0.00201624,-0.03879545,-0.02448113,-0.02682311,-0.
 00111637,0.03716202,0.02529925,0.04103182,0.00078504,-0.00009316,0.000
 04054,-0.00028831,0.00006755,-0.00003093,-0.00007134,-0.00008659,-0.00
 002557,0.00014078,-0.00004092,0.00003518,0.00028552,-0.00006011,0.0000
 3267,-0.00001064,-0.00000340,0.00001608,-0.00001298,0.00005001,0.00002
 371,-0.00000430,-0.00000312,0.00000059,0.00000803,-0.00000311,-0.00001
 030,0.00001050,-0.00001204,0.00000336,-0.00034315,-0.00000482,-0.00001
 399,-0.00015764,-0.00003172,-0.00002018,-0.00098355,-0.00061120,-0.000
 11258,-0.00001703,0.00001369,-0.00001614,0.00000441,-0.00000031,0.0000
 0214,0.00002413,-0.00001877,0.00001148,0.26153730,0.01847912,-0.352148
 87,0.00010970,-0.00584240,-0.00330481,-0.26101647,-0.01179867,0.355517
 59\\-0.00000324,0.00000327,0.00000170,0.00001257,-0.00000188,0.0000015
 3,-0.00001074,-0.00000116,0.00000143,0.00000270,-0.00001246,0.00000273
 ,-0.00000508,-0.00000006,0.00001041,0.00000494,0.00000157,0.00000374,0
 .00000802,-0.00000880,-0.00000759,-0.00000397,0.00000011,-0.00001200,-
 0.00000669,-0.00000020,-0.00001037,0.00000115,0.00000385,-0.00000742,-
 0.00000914,0.00001409,-0.00000196,0.00000096,0.00001060,-0.00000575,0.
 00000630,-0.00000791,-0.00000111,0.00000383,-0.00000530,-0.00000179,-0
 .00000156,0.00000052,0.00000056,-0.00000061,0.00000309,-0.00000639,-0.
 00000778,-0.00001059,0.00001682,0.00000416,0.00001091,0.00000626,0.000
 00419,0.00000034,0.00000919\\\@


 ... SUBJECTS WHICH DISCLOSE THEIR FULL POWER, MEANING AND BEAUTY AS SOON
 AS THEY ARE PRESENTED TO THE MIND HAVE VERY LITTLE OF THOSE QUALITIES
 TO DISCLOSE.
                           -- CHARLES DUTTON (1882)
 Job cpu time:       0 days  2 hours 24 minutes 56.1 seconds.
 File lengths (MBytes):  RWF=    280 Int=      0 D2E=      0 Chk=     13 Scr=      1
 Normal termination of Gaussian 09 at Thu Mar  3 19:19:13 2022.
