 Entering Gaussian System, Link 0=g09
 Input=diene_water.com
 Output=diene_water.log
 Initial command:
 /apps/applications/gaussian/G09.D01/2/default/g09/l1.exe "/nobackup/pmmass/Temp/Gau-18073.inp" -scrdir="/nobackup/pmmass/Temp/"
 Entering Link 1 = /apps/applications/gaussian/G09.D01/2/default/g09/l1.exe PID=     18074.
  
 Copyright (c) 1988,1990,1992,1993,1995,1998,2003,2009,2013,
            Gaussian, Inc.  All Rights Reserved.
  
 This is part of the Gaussian(R) 09 program.  It is based on
 the Gaussian(R) 03 system (copyright 2003, Gaussian, Inc.),
 the Gaussian(R) 98 system (copyright 1998, Gaussian, Inc.),
 the Gaussian(R) 94 system (copyright 1995, Gaussian, Inc.),
 the Gaussian 92(TM) system (copyright 1992, Gaussian, Inc.),
 the Gaussian 90(TM) system (copyright 1990, Gaussian, Inc.),
 the Gaussian 88(TM) system (copyright 1988, Gaussian, Inc.),
 the Gaussian 86(TM) system (copyright 1986, Carnegie Mellon
 University), and the Gaussian 82(TM) system (copyright 1983,
 Carnegie Mellon University). Gaussian is a federally registered
 trademark of Gaussian, Inc.
  
 This software contains proprietary and confidential information,
 including trade secrets, belonging to Gaussian, Inc.
  
 This software is provided under written license and may be
 used, copied, transmitted, or stored only in accord with that
 written license.
  
 The following legend is applicable only to US Government
 contracts under FAR:
  
                    RESTRICTED RIGHTS LEGEND
  
 Use, reproduction and disclosure by the US Government is
 subject to restrictions as set forth in subparagraphs (a)
 and (c) of the Commercial Computer Software - Restricted
 Rights clause in FAR 52.227-19.
  
 Gaussian, Inc.
 340 Quinnipiac St., Bldg. 40, Wallingford CT 06492
  
  
 ---------------------------------------------------------------
 Warning -- This program may not be used in any manner that
 competes with the business of Gaussian, Inc. or will provide
 assistance to any competitor of Gaussian, Inc.  The licensee
 of this program is prohibited from giving any competitor of
 Gaussian, Inc. access to this program.  By using this program,
 the user acknowledges that Gaussian, Inc. is engaged in the
 business of creating and licensing software in the field of
 computational chemistry and represents and warrants to the
 licensee that it is not a competitor of Gaussian, Inc. and that
 it will not use this program in any manner prohibited above.
 ---------------------------------------------------------------
  

 Cite this work as:
 Gaussian 09, Revision D.01,
 M. J. Frisch, G. W. Trucks, H. B. Schlegel, G. E. Scuseria, 
 M. A. Robb, J. R. Cheeseman, G. Scalmani, V. Barone, B. Mennucci, 
 G. A. Petersson, H. Nakatsuji, M. Caricato, X. Li, H. P. Hratchian, 
 A. F. Izmaylov, J. Bloino, G. Zheng, J. L. Sonnenberg, M. Hada, 
 M. Ehara, K. Toyota, R. Fukuda, J. Hasegawa, M. Ishida, T. Nakajima, 
 Y. Honda, O. Kitao, H. Nakai, T. Vreven, J. A. Montgomery, Jr., 
 J. E. Peralta, F. Ogliaro, M. Bearpark, J. J. Heyd, E. Brothers, 
 K. N. Kudin, V. N. Staroverov, T. Keith, R. Kobayashi, J. Normand, 
 K. Raghavachari, A. Rendell, J. C. Burant, S. S. Iyengar, J. Tomasi, 
 M. Cossi, N. Rega, J. M. Millam, M. Klene, J. E. Knox, J. B. Cross, 
 V. Bakken, C. Adamo, J. Jaramillo, R. Gomperts, R. E. Stratmann, 
 O. Yazyev, A. J. Austin, R. Cammi, C. Pomelli, J. W. Ochterski, 
 R. L. Martin, K. Morokuma, V. G. Zakrzewski, G. A. Voth, 
 P. Salvador, J. J. Dannenberg, S. Dapprich, A. D. Daniels, 
 O. Farkas, J. B. Foresman, J. V. Ortiz, J. Cioslowski, 
 and D. J. Fox, Gaussian, Inc., Wallingford CT, 2013.
 
 ******************************************
 Gaussian 09:  ES64L-G09RevD.01 24-Apr-2013
                23-Feb-2022 
 ******************************************
 %nprocshared=8
 Will use up to    8 processors via shared memory.
 %mem=4GB
 %NoSave
 %chk="diene_water.chk"
 ------------------------------------------------
 #n wB97XD/Def2TZVP scrf(smd,solvent=toluene) opt
 ------------------------------------------------
 1/14=-1,18=20,19=15,26=3,38=1/1,3;
 2/9=110,12=2,17=6,18=5,40=1/2;
 3/5=44,7=101,11=2,16=1,25=1,30=1,70=32201,71=1,72=13,74=-58/1,2,3;
 4//1;
 5/5=2,38=5,53=13/2;
 6/7=2,8=2,9=2,10=2,28=1/1;
 7//1,2,3,16;
 1/14=-1,18=20,19=15,26=3/3(2);
 2/9=110/2;
 99//99;
 2/9=110/2;
 3/5=44,7=101,11=2,16=1,25=1,30=1,70=32205,71=1,72=13,74=-58/1,2,3;
 4/5=5,16=3,69=1/1;
 5/5=2,38=5,53=13/2;
 7//1,2,3,16;
 1/14=-1,18=20,19=15,26=3/3(-5);
 2/9=110/2;
 6/7=2,8=2,9=2,10=2,19=2,28=1/1;
 99/9=1/99;
 -------------------------------------
 diene diels-alder toluene 2 h2o - opt
 -------------------------------------
 Symbolic Z-matrix:
 Charge =  0 Multiplicity = 1
 C                    -3.315     0.5126   -0.22244 
 H                    -3.54135   1.45609  -0.71334 
 C                    -1.90284   0.12071  -0.22936 
 H                    -1.18025   0.93149  -0.21401 
 C                    -4.30615  -0.16156   0.35528 
 H                    -4.07319  -1.07581   0.8968 
 C                    -5.74113   0.24688   0.3361 
 H                    -6.13125   0.36111   1.35142 
 H                    -5.88397   1.18946  -0.19438 
 H                    -6.35577  -0.51584  -0.15121 
 C                    -1.46181  -1.13226  -0.27754 
 H                    -2.15994  -1.96134  -0.34721 
 C                    -0.0294   -1.54724  -0.25869 
 H                     0.20947  -2.12814  -1.1555 
 H                     0.16714  -2.17854   0.61329 
 C                     2.10377  -0.44144  -0.02205 
 C                     2.75995  -1.77208   0.16784 
 H                     2.48833  -2.46267  -0.63092 
 H                     3.8383   -1.64121   0.19221 
 H                     2.43198  -2.21086   1.11273 
 O                     0.79608  -0.38463  -0.2168 
 O                     2.70595   0.61256   0.00254 
 O                     5.53505   0.42289   0.35436 
 H                     4.59084   0.60212   0.22981 
 H                     5.99013   1.02489  -0.23626 
 O                     0.77709   2.85809  -0.17097 
 H                     1.03615   3.45258   0.5348 
 H                     1.41557   2.13172  -0.13607 
 
 Add virtual bond connecting atoms H24        and O22        Dist= 3.59D+00.
 Add virtual bond connecting atoms H28        and O22        Dist= 3.78D+00.

 GradGradGradGradGradGradGradGradGradGradGradGradGradGradGradGradGradGrad
 Berny optimization.
 Initialization pass.
                           ----------------------------
                           !    Initial Parameters    !
                           ! (Angstroms and Degrees)  !
 --------------------------                            --------------------------
 ! Name  Definition              Value          Derivative Info.                !
 --------------------------------------------------------------------------------
 ! R1    R(1,2)                  1.0874         estimate D2E/DX2                !
 ! R2    R(1,3)                  1.4655         estimate D2E/DX2                !
 ! R3    R(1,5)                  1.3307         estimate D2E/DX2                !
 ! R4    R(3,4)                  1.0862         estimate D2E/DX2                !
 ! R5    R(3,11)                 1.3292         estimate D2E/DX2                !
 ! R6    R(5,6)                  1.0878         estimate D2E/DX2                !
 ! R7    R(5,7)                  1.4921         estimate D2E/DX2                !
 ! R8    R(7,8)                  1.0937         estimate D2E/DX2                !
 ! R9    R(7,9)                  1.091          estimate D2E/DX2                !
 ! R10   R(7,10)                 1.0941         estimate D2E/DX2                !
 ! R11   R(11,12)                1.0861         estimate D2E/DX2                !
 ! R12   R(11,13)                1.4914         estimate D2E/DX2                !
 ! R13   R(13,14)                1.0949         estimate D2E/DX2                !
 ! R14   R(13,15)                1.0943         estimate D2E/DX2                !
 ! R15   R(13,21)                1.4265         estimate D2E/DX2                !
 ! R16   R(16,17)                1.4957         estimate D2E/DX2                !
 ! R17   R(16,21)                1.3233         estimate D2E/DX2                !
 ! R18   R(16,22)                1.2141         estimate D2E/DX2                !
 ! R19   R(17,18)                1.0903         estimate D2E/DX2                !
 ! R20   R(17,19)                1.0865         estimate D2E/DX2                !
 ! R21   R(17,20)                1.0922         estimate D2E/DX2                !
 ! R22   R(22,24)                1.8986         estimate D2E/DX2                !
 ! R23   R(22,28)                1.998          estimate D2E/DX2                !
 ! R24   R(23,24)                0.9691         estimate D2E/DX2                !
 ! R25   R(23,25)                0.9583         estimate D2E/DX2                !
 ! R26   R(26,27)                0.9585         estimate D2E/DX2                !
 ! R27   R(26,28)                0.9677         estimate D2E/DX2                !
 ! A1    A(2,1,3)              115.4971         estimate D2E/DX2                !
 ! A2    A(2,1,5)              118.7214         estimate D2E/DX2                !
 ! A3    A(3,1,5)              125.7537         estimate D2E/DX2                !
 ! A4    A(1,3,4)              116.191          estimate D2E/DX2                !
 ! A5    A(1,3,11)             124.8866         estimate D2E/DX2                !
 ! A6    A(4,3,11)             118.9098         estimate D2E/DX2                !
 ! A7    A(1,5,6)              118.843          estimate D2E/DX2                !
 ! A8    A(1,5,7)              124.8955         estimate D2E/DX2                !
 ! A9    A(6,5,7)              116.2577         estimate D2E/DX2                !
 ! A10   A(5,7,8)              111.0823         estimate D2E/DX2                !
 ! A11   A(5,7,9)              111.6331         estimate D2E/DX2                !
 ! A12   A(5,7,10)             110.8044         estimate D2E/DX2                !
 ! A13   A(8,7,9)              108.3283         estimate D2E/DX2                !
 ! A14   A(8,7,10)             106.6138         estimate D2E/DX2                !
 ! A15   A(9,7,10)             108.1904         estimate D2E/DX2                !
 ! A16   A(3,11,12)            120.5724         estimate D2E/DX2                !
 ! A17   A(3,11,13)            125.4857         estimate D2E/DX2                !
 ! A18   A(12,11,13)           113.9389         estimate D2E/DX2                !
 ! A19   A(11,13,14)           110.2922         estimate D2E/DX2                !
 ! A20   A(11,13,15)           110.0647         estimate D2E/DX2                !
 ! A21   A(11,13,21)           109.2312         estimate D2E/DX2                !
 ! A22   A(14,13,15)           107.9037         estimate D2E/DX2                !
 ! A23   A(14,13,21)           109.2821         estimate D2E/DX2                !
 ! A24   A(15,13,21)           110.0505         estimate D2E/DX2                !
 ! A25   A(17,16,21)           119.3661         estimate D2E/DX2                !
 ! A26   A(17,16,22)           123.5131         estimate D2E/DX2                !
 ! A27   A(21,16,22)           117.1179         estimate D2E/DX2                !
 ! A28   A(16,17,18)           111.1733         estimate D2E/DX2                !
 ! A29   A(16,17,19)           109.3349         estimate D2E/DX2                !
 ! A30   A(16,17,20)           109.6024         estimate D2E/DX2                !
 ! A31   A(18,17,19)           109.8754         estimate D2E/DX2                !
 ! A32   A(18,17,20)           107.7301         estimate D2E/DX2                !
 ! A33   A(19,17,20)           109.0871         estimate D2E/DX2                !
 ! A34   A(13,21,16)           122.7638         estimate D2E/DX2                !
 ! A35   A(16,22,24)           119.3438         estimate D2E/DX2                !
 ! A36   A(16,22,28)           109.7749         estimate D2E/DX2                !
 ! A37   A(24,22,28)           130.8179         estimate D2E/DX2                !
 ! A38   A(24,23,25)           105.5032         estimate D2E/DX2                !
 ! A39   A(27,26,28)           105.1102         estimate D2E/DX2                !
 ! A40   L(22,24,23,19,-1)     169.6447         estimate D2E/DX2                !
 ! A41   L(22,28,26,1,-1)      179.0257         estimate D2E/DX2                !
 ! A42   L(22,24,23,19,-2)     180.3903         estimate D2E/DX2                !
 ! A43   L(22,28,26,1,-2)      177.942          estimate D2E/DX2                !
 ! D1    D(2,1,3,4)             31.1959         estimate D2E/DX2                !
 ! D2    D(2,1,3,11)          -147.4957         estimate D2E/DX2                !
 ! D3    D(5,1,3,4)           -146.8511         estimate D2E/DX2                !
 ! D4    D(5,1,3,11)            34.4572         estimate D2E/DX2                !
 ! D5    D(2,1,5,6)           -176.4661         estimate D2E/DX2                !
 ! D6    D(2,1,5,7)              2.805          estimate D2E/DX2                !
 ! D7    D(3,1,5,6)              1.5238         estimate D2E/DX2                !
 ! D8    D(3,1,5,7)           -179.2051         estimate D2E/DX2                !
 ! D9    D(1,3,11,12)            1.9262         estimate D2E/DX2                !
 ! D10   D(1,3,11,13)         -178.7469         estimate D2E/DX2                !
 ! D11   D(4,3,11,12)         -176.7326         estimate D2E/DX2                !
 ! D12   D(4,3,11,13)            2.5943         estimate D2E/DX2                !
 ! D13   D(1,5,7,8)           -122.3992         estimate D2E/DX2                !
 ! D14   D(1,5,7,9)             -1.3717         estimate D2E/DX2                !
 ! D15   D(1,5,7,10)           119.2883         estimate D2E/DX2                !
 ! D16   D(6,5,7,8)             56.8889         estimate D2E/DX2                !
 ! D17   D(6,5,7,9)            177.9164         estimate D2E/DX2                !
 ! D18   D(6,5,7,10)           -61.4236         estimate D2E/DX2                !
 ! D19   D(3,11,13,14)        -121.6624         estimate D2E/DX2                !
 ! D20   D(3,11,13,15)         119.3911         estimate D2E/DX2                !
 ! D21   D(3,11,13,21)          -1.5389         estimate D2E/DX2                !
 ! D22   D(12,11,13,14)         57.7035         estimate D2E/DX2                !
 ! D23   D(12,11,13,15)        -61.243          estimate D2E/DX2                !
 ! D24   D(12,11,13,21)        177.827          estimate D2E/DX2                !
 ! D25   D(11,13,21,16)        171.195          estimate D2E/DX2                !
 ! D26   D(14,13,21,16)        -68.0629         estimate D2E/DX2                !
 ! D27   D(15,13,21,16)         50.2563         estimate D2E/DX2                !
 ! D28   D(21,16,17,18)         51.677          estimate D2E/DX2                !
 ! D29   D(21,16,17,19)        173.1629         estimate D2E/DX2                !
 ! D30   D(21,16,17,20)        -67.3103         estimate D2E/DX2                !
 ! D31   D(22,16,17,18)       -128.958          estimate D2E/DX2                !
 ! D32   D(22,16,17,19)         -7.472          estimate D2E/DX2                !
 ! D33   D(22,16,17,20)        112.0548         estimate D2E/DX2                !
 ! D34   D(17,16,21,13)         -0.1784         estimate D2E/DX2                !
 ! D35   D(22,16,21,13)       -179.5836         estimate D2E/DX2                !
 ! D36   D(17,16,22,24)          2.3021         estimate D2E/DX2                !
 ! D37   D(17,16,22,28)       -175.1085         estimate D2E/DX2                !
 ! D38   D(21,16,22,24)       -178.3196         estimate D2E/DX2                !
 ! D39   D(21,16,22,28)          4.2698         estimate D2E/DX2                !
 ! D40   D(16,22,23,25)        136.8747         estimate D2E/DX2                !
 ! D41   D(28,22,23,25)        -46.6126         estimate D2E/DX2                !
 ! D42   D(16,22,26,27)        131.4206         estimate D2E/DX2                !
 ! D43   D(24,22,26,27)        -44.803          estimate D2E/DX2                !
 --------------------------------------------------------------------------------
 Trust Radius=3.00D-01 FncErr=1.00D-07 GrdErr=1.00D-06
 Number of steps in this run=    123 maximum allowed number of steps=    168.
 GradGradGradGradGradGradGradGradGradGradGradGradGradGradGradGradGradGrad

                          Input orientation:                          
 ---------------------------------------------------------------------
 Center     Atomic      Atomic             Coordinates (Angstroms)
 Number     Number       Type             X           Y           Z
 ---------------------------------------------------------------------
      1          6           0       -3.315000    0.512600   -0.222440
      2          1           0       -3.541350    1.456090   -0.713340
      3          6           0       -1.902840    0.120710   -0.229360
      4          1           0       -1.180250    0.931490   -0.214010
      5          6           0       -4.306150   -0.161560    0.355280
      6          1           0       -4.073190   -1.075810    0.896800
      7          6           0       -5.741130    0.246880    0.336100
      8          1           0       -6.131250    0.361110    1.351420
      9          1           0       -5.883970    1.189460   -0.194380
     10          1           0       -6.355770   -0.515840   -0.151210
     11          6           0       -1.461810   -1.132260   -0.277540
     12          1           0       -2.159940   -1.961340   -0.347210
     13          6           0       -0.029400   -1.547240   -0.258690
     14          1           0        0.209470   -2.128140   -1.155500
     15          1           0        0.167140   -2.178540    0.613290
     16          6           0        2.103770   -0.441440   -0.022050
     17          6           0        2.759950   -1.772080    0.167840
     18          1           0        2.488330   -2.462670   -0.630920
     19          1           0        3.838300   -1.641210    0.192210
     20          1           0        2.431980   -2.210860    1.112730
     21          8           0        0.796080   -0.384630   -0.216800
     22          8           0        2.705950    0.612560    0.002540
     23          8           0        5.535050    0.422890    0.354360
     24          1           0        4.590840    0.602120    0.229810
     25          1           0        5.990130    1.024890   -0.236260
     26          8           0        0.777090    2.858090   -0.170970
     27          1           0        1.036150    3.452580    0.534800
     28          1           0        1.415570    2.131720   -0.136070
 ---------------------------------------------------------------------
                    Distance matrix (angstroms):
                    1          2          3          4          5
     1  C    0.000000
     2  H    1.087378   0.000000
     3  C    1.465545   2.168454   0.000000
     4  H    2.175476   2.469682   1.086157   0.000000
     5  C    1.330650   2.084145   2.489454   3.360074   0.000000
     6  H    2.085808   3.047281   2.722189   3.692188   1.087827
     7  C    2.503733   2.720762   3.881769   4.644668   1.492099
     8  H    3.229744   3.488524   4.520631   5.223821   2.143938
     9  H    2.656790   2.414183   4.122238   4.710830   2.148697
    10  H    3.210770   3.482163   4.498876   5.374450   2.140792
    11  C    2.478490   3.348726   1.329196   2.083837   3.071317
    12  H    2.733150   3.704210   2.101171   3.057123   2.887718
    13  C    3.878069   4.643328   2.508524   2.733232   4.537363
    14  H    4.501777   5.206809   3.221322   3.489851   5.151768
    15  H    4.479506   5.359420   3.206466   3.488864   4.913766
    16  C    5.505762   5.995488   4.051162   3.564628   6.427113
    17  C    6.502084   7.134700   5.047973   4.793775   7.249736
    18  H    6.534350   7.191698   5.110526   5.015238   7.241040
    19  H    7.482014   8.054348   6.020197   5.654171   8.279373
    20  H    6.498284   7.243047   5.101773   4.968180   7.083485
    21  O    4.207854   4.737943   2.745851   2.374460   5.139045
    22  O    6.025981   6.344508   4.640758   3.905273   7.063514
    23  O    8.869280   9.197202   7.466877   6.758474   9.858539
    24  H    7.919271   8.231118   6.527670   5.797494   8.930587
    25  H    9.319232   9.553149   7.944593   7.171023  10.381280
    26  O    4.716903   4.572602   3.831277   2.746784   5.935870
    27  H    5.305601   5.147556   4.508099   3.439337   6.452473
    28  H    5.000730   5.035948   3.881328   2.860928   6.183740
                    6          7          8          9         10
     6  H    0.000000
     7  C    2.201344   0.000000
     8  H    2.550888   1.093671   0.000000
     9  H    3.098555   1.090995   1.771104   0.000000
    10  H    2.573337   1.094073   1.754237   1.769889   0.000000
    11  C    2.863838   4.537748   5.165979   4.995278   4.934245
    12  H    2.447907   4.262402   4.904123   4.880502   4.442170
    13  C    4.231978   6.016353   6.592938   6.462945   6.410795
    14  H    4.864207   6.578391   7.258495   7.004301   6.834507
    15  H    4.390534   6.392742   6.831133   6.972208   6.774761
    16  C    6.277065   7.883179   8.387256   8.154356   8.460853
    17  C    6.907096   8.739157   9.219805   9.144358   9.207404
    18  H    6.878289   8.717844   9.284426   9.144617   9.068538
    19  H    7.962901   9.764787  10.234500  10.133345  10.261747
    20  H    6.606981   8.569911   8.944323   9.078862   9.038539
    21  O    5.042581   6.590874   7.141662   6.863041   7.153354
    22  O    7.043226   8.461569   8.943087   8.611522   9.133000
    23  O    9.739539  11.277568  11.708992  11.457869  11.938527
    24  H    8.850183  10.338622  10.783288  10.499836  11.010144
    25  H   10.342494  11.770954  12.242924  11.875314  12.441958
    26  O    6.335686   7.040080   7.501849   6.866920   7.890595
    27  H    6.836864   7.499835   7.848291   7.317204   8.417805
    28  H    6.440618   7.415789   7.893173   7.360335   8.209965
                   11         12         13         14         15
    11  C    0.000000
    12  H    1.086100   0.000000
    13  C    1.491430   2.172214   0.000000
    14  H    2.134424   2.509035   1.094884   0.000000
    15  H    2.131140   2.526863   1.094311   1.770014   0.000000
    16  C    3.640861   4.538177   2.414375   2.778136   2.678005
    17  C    4.293133   4.950395   2.830716   2.895333   2.662010
    18  H    4.183118   4.683827   2.704724   2.362265   2.648908
    19  H    5.345172   6.030949   3.895028   3.901516   3.734093
    20  H    4.272918   4.824875   2.894750   3.176674   2.319479
    21  O    2.379224   3.352771   1.426476   2.065211   2.074302
    22  O    4.526927   5.515811   3.495013   3.883929   3.822147
    23  O    7.195404   8.086385   5.934673   6.095017   5.970673
    24  H    6.316649   7.244122   5.119082   5.345073   5.239108
    25  H    7.757990   8.680641   6.546075   6.648506   6.700068
    26  O    4.576781   5.646602   4.479403   5.114096   5.133687
    27  H    5.283981   6.348501   5.173318   5.889393   5.698320
    28  H    4.353492   5.438933   3.954456   4.543162   4.549556
                   16         17         18         19         20
    16  C    0.000000
    17  C    1.495738   0.000000
    18  H    2.145689   1.090280   0.000000
    19  H    2.119894   1.086536   1.781785   0.000000
    20  H    2.127509   1.092204   1.762640   1.774710   0.000000
    21  O    1.323332   2.435108   2.711726   3.316834   2.789074
    22  O    1.214142   2.390972   3.147327   2.529362   3.046191
    23  O    3.558431   3.543143   4.310422   2.676894   4.140146
    24  H    2.708868   2.998804   3.815015   2.366487   3.654187
    25  H    4.159303   4.291899   4.957967   3.452832   4.995026
    26  O    3.559376   5.048267   5.608064   5.454045   5.484597
    27  H    4.075940   5.513911   6.201444   5.823754   5.861476
    28  H    2.666041   4.139973   4.743850   4.495819   4.631478
                   21         22         23         24         25
    21  O    0.000000
    22  O    2.165664   0.000000
    23  O    4.841090   2.857194   0.000000
    24  H    3.946307   1.898571   0.969107   0.000000
    25  H    5.381940   3.318566   0.958297   1.534265   0.000000
    26  O    3.243099   2.965301   5.370694   4.449125   5.526361
    27  H    3.917489   3.337251   5.426940   4.566614   5.570469
    28  H    2.592740   1.998034   4.486729   3.543428   4.707623
                   26         27         28
    26  O    0.000000
    27  H    0.958458   0.000000
    28  H    0.967723   1.529280   0.000000
 Stoichiometry    C8H16O4
 Framework group  C1[X(C8H16O4)]
 Deg. of freedom    78
 Full point group                 C1      NOp   1
 Largest Abelian subgroup         C1      NOp   1
 Largest concise Abelian subgroup C1      NOp   1
                         Standard orientation:                         
 ---------------------------------------------------------------------
 Center     Atomic      Atomic             Coordinates (Angstroms)
 Number     Number       Type             X           Y           Z
 ---------------------------------------------------------------------
      1          6           0       -3.314999    0.512600   -0.222440
      2          1           0       -3.541349    1.456090   -0.713340
      3          6           0       -1.902839    0.120710   -0.229360
      4          1           0       -1.180249    0.931490   -0.214010
      5          6           0       -4.306149   -0.161560    0.355280
      6          1           0       -4.073189   -1.075810    0.896800
      7          6           0       -5.741129    0.246880    0.336100
      8          1           0       -6.131249    0.361110    1.351420
      9          1           0       -5.883969    1.189460   -0.194380
     10          1           0       -6.355769   -0.515840   -0.151210
     11          6           0       -1.461809   -1.132260   -0.277540
     12          1           0       -2.159939   -1.961340   -0.347210
     13          6           0       -0.029399   -1.547240   -0.258690
     14          1           0        0.209471   -2.128140   -1.155500
     15          1           0        0.167141   -2.178540    0.613290
     16          6           0        2.103771   -0.441440   -0.022050
     17          6           0        2.759951   -1.772080    0.167840
     18          1           0        2.488331   -2.462670   -0.630920
     19          1           0        3.838301   -1.641210    0.192210
     20          1           0        2.431981   -2.210860    1.112730
     21          8           0        0.796081   -0.384630   -0.216800
     22          8           0        2.705951    0.612560    0.002540
     23          8           0        5.535051    0.422890    0.354360
     24          1           0        4.590841    0.602120    0.229810
     25          1           0        5.990131    1.024890   -0.236260
     26          8           0        0.777091    2.858090   -0.170970
     27          1           0        1.036151    3.452580    0.534800
     28          1           0        1.415571    2.131720   -0.136070
 ---------------------------------------------------------------------
 Rotational constants (GHZ):      1.6964287      0.2741540      0.2397286
 Standard basis: def2TZVP (5D, 7F)
 There are   528 symmetry adapted cartesian basis functions of A   symmetry.
 There are   468 symmetry adapted basis functions of A   symmetry.
   468 basis functions,   740 primitive gaussians,   528 cartesian basis functions
    48 alpha electrons       48 beta electrons
       nuclear repulsion energy       686.7978238107 Hartrees.
 NAtoms=   28 NActive=   28 NUniq=   28 SFac= 1.00D+00 NAtFMM=   60 NAOKFM=F Big=F
 Integral buffers will be    131072 words long.
 Raffenetti 2 integral format.
 Two-electron integral symmetry is turned on.
 Nuclear repulsion after empirical dispersion term =      686.7836635284 Hartrees.
 ------------------------------------------------------------------------------
 Polarizable Continuum Model (PCM)
 =================================
 Model                : PCM (using non-symmetric T matrix).
 Atomic radii         : SMD-Coulomb.
 Polarization charges : Total charges.
 Charge compensation  : None.
 Solution method      : On-the-fly selection.
 Cavity type          : VdW (van der Waals Surface) (Alpha=1.000).
 Cavity algorithm     : GePol (No added spheres)
                        Default sphere list used, NSphG=   28.
                        Lebedev-Laikov grids with approx.  5.0 points / Ang**2.
                        Smoothing algorithm: Karplus/York (Gamma=1.0000).
                        Polarization charges: spherical gaussians, with
                                              point-specific exponents (IZeta= 3).
                        Self-potential: point-specific (ISelfS= 7).
                        Self-field    : sphere-specific E.n sum rule (ISelfD= 2).
 1st derivatives      : Analytical E(r).r(x)/FMM algorithm (CHGder, D1EAlg=3).
                        Cavity 1st derivative terms included.
 Solvent              : Toluene, Eps=   2.374100 Eps(inf)=   2.238315
 ------------------------------------------------------------------------------
 ------------------------------------------------------------------------------
 Atomic radii for non-electrostatic terms: SMD-CDS.
 ------------------------------------------------------------------------------
 Nuclear repulsion after PCM non-electrostatic terms =      686.7762051250 Hartrees.
 One-electron integrals computed using PRISM.
   1 Symmetry operations used in ECPInt.
 ECPInt:  NShTT=   19306 NPrTT=   56928 LenC2=   16601 LenP2D=   35931.
 LDataN:  DoStor=T MaxTD1= 6 Len=  172
 NBasis=   468 RedAO= T EigKep=  1.01D-04  NBF=   468
 NBsUse=   468 1.00D-06 EigRej= -1.00D+00 NBFU=   468
 ExpMin= 9.52D-02 ExpMax= 2.70D+04 ExpMxC= 9.22D+02 IAcc=2 IRadAn=         4 AccDes= 0.00D+00
 Harris functional with IExCor= 4639 and IRadAn=       4 diagonalized for initial guess.
 HarFok:  IExCor= 4639 AccDes= 0.00D+00 IRadAn=         4 IDoV= 1 UseB2=F ITyADJ=14
 ICtDFT=  3500011 ScaDFX=  1.000000  1.000000  1.000000  1.000000
 FoFCou: FMM=F IPFlag=           0 FMFlag=      100000 FMFlg1=           0
         NFxFlg=           0 DoJE=T BraDBF=F KetDBF=T FulRan=T
         wScrn=  0.000000 ICntrl=     500 IOpCl=  0 I1Cent=   200000004 NGrid=           0
         NMat0=    1 NMatS0=      1 NMatT0=    0 NMatD0=    1 NMtDS0=    0 NMtDT0=    0
 Petite list used in FoFCou.
 Requested convergence on RMS density matrix=1.00D-08 within 128 cycles.
 Requested convergence on MAX density matrix=1.00D-06.
 Requested convergence on             energy=1.00D-06.
 No special actions if energy rises.
 Inv3:  Mode=1 IEnd=    15870000.
 Iteration    1 A*A^-1 deviation from unit magnitude is 4.00D-15 for   2292.
 Iteration    1 A*A^-1 deviation from orthogonality  is 2.61D-15 for   1151    269.
 Iteration    1 A^-1*A deviation from unit magnitude is 4.33D-15 for   2284.
 Iteration    1 A^-1*A deviation from orthogonality  is 9.66D-15 for    721    703.
 Error on total polarization charges =  0.02009
 SCF Done:  E(RwB97XD) =  -615.431360491     A.U. after   13 cycles
            NFock= 13  Conv=0.44D-08     -V/T= 2.0046
 SMD-CDS (non-electrostatic) energy       (kcal/mol) =      -4.68
 (included in total energy above)

 **********************************************************************

            Population analysis using the SCF density.

 **********************************************************************

 Orbital symmetries:
       Occupied  (A) (A) (A) (A) (A) (A) (A) (A) (A) (A) (A) (A)
                 (A) (A) (A) (A) (A) (A) (A) (A) (A) (A) (A) (A)
                 (A) (A) (A) (A) (A) (A) (A) (A) (A) (A) (A) (A)
                 (A) (A) (A) (A) (A) (A) (A) (A) (A) (A) (A) (A)
       Virtual   (A) (A) (A) (A) (A) (A) (A) (A) (A) (A) (A) (A)
                 (A) (A) (A) (A) (A) (A) (A) (A) (A) (A) (A) (A)
                 (A) (A) (A) (A) (A) (A) (A) (A) (A) (A) (A) (A)
                 (A) (A) (A) (A) (A) (A) (A) (A) (A) (A) (A) (A)
                 (A) (A) (A) (A) (A) (A) (A) (A) (A) (A) (A) (A)
                 (A) (A) (A) (A) (A) (A) (A) (A) (A) (A) (A) (A)
                 (A) (A) (A) (A) (A) (A) (A) (A) (A) (A) (A) (A)
                 (A) (A) (A) (A) (A) (A) (A) (A) (A) (A) (A) (A)
                 (A) (A) (A) (A) (A) (A) (A) (A) (A) (A) (A) (A)
                 (A) (A) (A) (A) (A) (A) (A) (A) (A) (A) (A) (A)
                 (A) (A) (A) (A) (A) (A) (A) (A) (A) (A) (A) (A)
                 (A) (A) (A) (A) (A) (A) (A) (A) (A) (A) (A) (A)
                 (A) (A) (A) (A) (A) (A) (A) (A) (A) (A) (A) (A)
                 (A) (A) (A) (A) (A) (A) (A) (A) (A) (A) (A) (A)
                 (A) (A) (A) (A) (A) (A) (A) (A) (A) (A) (A) (A)
                 (A) (A) (A) (A) (A) (A) (A) (A) (A) (A) (A) (A)
                 (A) (A) (A) (A) (A) (A) (A) (A) (A) (A) (A) (A)
                 (A) (A) (A) (A) (A) (A) (A) (A) (A) (A) (A) (A)
                 (A) (A) (A) (A) (A) (A) (A) (A) (A) (A) (A) (A)
                 (A) (A) (A) (A) (A) (A) (A) (A) (A) (A) (A) (A)
                 (A) (A) (A) (A) (A) (A) (A) (A) (A) (A) (A) (A)
                 (A) (A) (A) (A) (A) (A) (A) (A) (A) (A) (A) (A)
                 (A) (A) (A) (A) (A) (A) (A) (A) (A) (A) (A) (A)
                 (A) (A) (A) (A) (A) (A) (A) (A) (A) (A) (A) (A)
                 (A) (A) (A) (A) (A) (A) (A) (A) (A) (A) (A) (A)
                 (A) (A) (A) (A) (A) (A) (A) (A) (A) (A) (A) (A)
                 (A) (A) (A) (A) (A) (A) (A) (A) (A) (A) (A) (A)
                 (A) (A) (A) (A) (A) (A) (A) (A) (A) (A) (A) (A)
                 (A) (A) (A) (A) (A) (A) (A) (A) (A) (A) (A) (A)
                 (A) (A) (A) (A) (A) (A) (A) (A) (A) (A) (A) (A)
                 (A) (A) (A) (A) (A) (A) (A) (A) (A) (A) (A) (A)
                 (A) (A) (A) (A) (A) (A) (A) (A) (A) (A) (A) (A)
                 (A) (A) (A) (A) (A) (A) (A) (A) (A) (A) (A) (A)
                 (A) (A) (A) (A) (A) (A) (A) (A) (A) (A) (A) (A)
                 (A) (A) (A) (A) (A) (A) (A) (A) (A) (A) (A) (A)
 The electronic state is 1-A.
 Alpha  occ. eigenvalues --  -19.31210 -19.25402 -19.22301 -19.21982 -10.43859
 Alpha  occ. eigenvalues --  -10.35923 -10.30178 -10.28920 -10.28385 -10.28310
 Alpha  occ. eigenvalues --  -10.27821 -10.27338  -1.23345  -1.14318  -1.08756
 Alpha  occ. eigenvalues --   -1.08412  -0.92227  -0.88605  -0.86246  -0.82707
 Alpha  occ. eigenvalues --   -0.76215  -0.70691  -0.66830  -0.62349  -0.61134
 Alpha  occ. eigenvalues --   -0.60607  -0.60536  -0.58784  -0.58314  -0.55582
 Alpha  occ. eigenvalues --   -0.53529  -0.53140  -0.50444  -0.49771  -0.49357
 Alpha  occ. eigenvalues --   -0.48586  -0.47501  -0.45962  -0.45348  -0.44518
 Alpha  occ. eigenvalues --   -0.43410  -0.42379  -0.40749  -0.38659  -0.38051
 Alpha  occ. eigenvalues --   -0.38021  -0.37632  -0.30315
 Alpha virt. eigenvalues --    0.04532   0.06369   0.10247   0.12496   0.13117
 Alpha virt. eigenvalues --    0.13682   0.14016   0.14961   0.15792   0.16554
 Alpha virt. eigenvalues --    0.17223   0.18514   0.19139   0.20332   0.20602
 Alpha virt. eigenvalues --    0.21335   0.22270   0.23428   0.23739   0.24755
 Alpha virt. eigenvalues --    0.25571   0.26241   0.26439   0.27717   0.28005
 Alpha virt. eigenvalues --    0.29201   0.29652   0.30741   0.30886   0.32123
 Alpha virt. eigenvalues --    0.33645   0.34596   0.35712   0.36159   0.36913
 Alpha virt. eigenvalues --    0.38665   0.38972   0.40463   0.42089   0.43259
 Alpha virt. eigenvalues --    0.43485   0.43775   0.44111   0.44732   0.45695
 Alpha virt. eigenvalues --    0.46249   0.46505   0.47050   0.47514   0.48080
 Alpha virt. eigenvalues --    0.48361   0.49522   0.49865   0.50882   0.51559
 Alpha virt. eigenvalues --    0.52228   0.52718   0.53426   0.53534   0.54327
 Alpha virt. eigenvalues --    0.55185   0.55350   0.56156   0.56693   0.56891
 Alpha virt. eigenvalues --    0.58509   0.58767   0.59827   0.62029   0.62860
 Alpha virt. eigenvalues --    0.63280   0.64817   0.65374   0.66008   0.66521
 Alpha virt. eigenvalues --    0.67547   0.68017   0.69631   0.70299   0.70798
 Alpha virt. eigenvalues --    0.71901   0.72753   0.75059   0.77179   0.78254
 Alpha virt. eigenvalues --    0.79224   0.81145   0.81847   0.82280   0.83475
 Alpha virt. eigenvalues --    0.84525   0.85608   0.86146   0.87518   0.88986
 Alpha virt. eigenvalues --    0.90585   0.91718   0.93303   0.94915   0.96299
 Alpha virt. eigenvalues --    0.96751   0.98510   1.02356   1.03683   1.04320
 Alpha virt. eigenvalues --    1.05231   1.06571   1.06912   1.08574   1.09184
 Alpha virt. eigenvalues --    1.11718   1.14561   1.15342   1.16127   1.16812
 Alpha virt. eigenvalues --    1.19232   1.21883   1.21970   1.23894   1.24378
 Alpha virt. eigenvalues --    1.26984   1.28129   1.28523   1.29382   1.30339
 Alpha virt. eigenvalues --    1.31244   1.32342   1.34576   1.34995   1.36673
 Alpha virt. eigenvalues --    1.41000   1.41456   1.44240   1.45762   1.47133
 Alpha virt. eigenvalues --    1.47145   1.50097   1.51527   1.52749   1.56083
 Alpha virt. eigenvalues --    1.56885   1.57934   1.59112   1.60376   1.61063
 Alpha virt. eigenvalues --    1.61784   1.62201   1.62730   1.63257   1.64065
 Alpha virt. eigenvalues --    1.64957   1.65349   1.67470   1.67899   1.69120
 Alpha virt. eigenvalues --    1.69788   1.70655   1.71038   1.72098   1.74574
 Alpha virt. eigenvalues --    1.76372   1.77778   1.79417   1.81928   1.82930
 Alpha virt. eigenvalues --    1.84514   1.86758   1.87324   1.89525   1.91052
 Alpha virt. eigenvalues --    1.91996   1.93546   1.93836   1.95370   1.96831
 Alpha virt. eigenvalues --    1.97209   1.99487   2.00270   2.02668   2.03312
 Alpha virt. eigenvalues --    2.05487   2.05897   2.08970   2.09205   2.13433
 Alpha virt. eigenvalues --    2.14318   2.14637   2.16144   2.17027   2.18477
 Alpha virt. eigenvalues --    2.18760   2.20531   2.21401   2.22108   2.24515
 Alpha virt. eigenvalues --    2.26126   2.26767   2.27682   2.28820   2.30469
 Alpha virt. eigenvalues --    2.31382   2.33077   2.34339   2.37451   2.38810
 Alpha virt. eigenvalues --    2.40293   2.40660   2.41865   2.42114   2.42770
 Alpha virt. eigenvalues --    2.43484   2.44458   2.44948   2.46928   2.48438
 Alpha virt. eigenvalues --    2.49587   2.50943   2.52105   2.53716   2.55389
 Alpha virt. eigenvalues --    2.57175   2.59228   2.60498   2.61249   2.63166
 Alpha virt. eigenvalues --    2.64916   2.65811   2.67541   2.68367   2.69201
 Alpha virt. eigenvalues --    2.70159   2.71619   2.73829   2.73980   2.74579
 Alpha virt. eigenvalues --    2.75629   2.76696   2.77710   2.78748   2.79380
 Alpha virt. eigenvalues --    2.80182   2.81069   2.81350   2.82125   2.83696
 Alpha virt. eigenvalues --    2.86413   2.87380   2.90216   2.91220   2.92533
 Alpha virt. eigenvalues --    2.93463   2.96145   2.97810   2.98392   2.99226
 Alpha virt. eigenvalues --    2.99936   3.00347   3.01594   3.03242   3.03317
 Alpha virt. eigenvalues --    3.06359   3.08124   3.09732   3.10080   3.10972
 Alpha virt. eigenvalues --    3.12532   3.13108   3.15668   3.16179   3.16844
 Alpha virt. eigenvalues --    3.17810   3.18844   3.19884   3.21003   3.21558
 Alpha virt. eigenvalues --    3.22749   3.23408   3.26040   3.27106   3.27535
 Alpha virt. eigenvalues --    3.28714   3.29450   3.30233   3.32151   3.33236
 Alpha virt. eigenvalues --    3.34907   3.36417   3.37003   3.37810   3.38091
 Alpha virt. eigenvalues --    3.41865   3.42416   3.43180   3.46286   3.46862
 Alpha virt. eigenvalues --    3.51111   3.52054   3.53486   3.54477   3.55230
 Alpha virt. eigenvalues --    3.57890   3.61229   3.63825   3.64607   3.66234
 Alpha virt. eigenvalues --    3.67997   3.68466   3.70851   3.72774   3.75768
 Alpha virt. eigenvalues --    3.77352   3.78459   3.79639   3.81177   3.82342
 Alpha virt. eigenvalues --    3.83062   3.87513   3.87571   3.91221   3.93289
 Alpha virt. eigenvalues --    3.95445   3.96935   3.98656   4.05524   4.07288
 Alpha virt. eigenvalues --    4.08398   4.09272   4.10073   4.13823   4.13979
 Alpha virt. eigenvalues --    4.20712   4.23011   4.27157   4.30630   4.33161
 Alpha virt. eigenvalues --    4.43321   4.43898   4.45441   4.46511   4.47065
 Alpha virt. eigenvalues --    4.49311   4.52985   4.54753   4.57688   4.59864
 Alpha virt. eigenvalues --    4.63971   4.64948   4.72441   4.74944   4.76754
 Alpha virt. eigenvalues --    4.79943   4.80667   4.87996   4.91668   4.96779
 Alpha virt. eigenvalues --    5.05920   5.11451   5.18046   5.21084   5.21464
 Alpha virt. eigenvalues --    5.24252   5.25435   5.28866   5.31143   5.31614
 Alpha virt. eigenvalues --    5.32814   5.35878   5.49488   5.50104   5.50563
 Alpha virt. eigenvalues --    5.52253   5.53440   5.54329   5.59045   5.59404
 Alpha virt. eigenvalues --    5.69477   5.93350   5.98036   5.98664   6.13141
 Alpha virt. eigenvalues --    6.15270   6.17961   6.26222   6.33136   6.33546
 Alpha virt. eigenvalues --    6.37084   6.41541   6.43351   6.44806   6.49893
 Alpha virt. eigenvalues --    6.50969   6.53180   6.54213   6.55124   6.71105
 Alpha virt. eigenvalues --    6.72057   6.88155   6.89186   6.96184   6.97466
 Alpha virt. eigenvalues --    7.04543   7.05065   7.12410   7.14888   7.17686
 Alpha virt. eigenvalues --    7.23272   7.33102   7.53842  22.33805  22.42634
 Alpha virt. eigenvalues --   22.47292  22.47766  22.57756  22.94209  23.02805
 Alpha virt. eigenvalues --   23.47726  43.51299  43.56782  43.97722  44.39625
          Condensed to atoms (all electrons):
               1          2          3          4          5          6
     1  C    4.993826   0.403219   0.328695  -0.032723   0.633055  -0.044430
     2  H    0.403219   0.516901  -0.024428  -0.001359  -0.038911   0.004879
     3  C    0.328695  -0.024428   4.924459   0.398031  -0.065156  -0.003096
     4  H   -0.032723  -0.001359   0.398031   0.467414   0.004757   0.000112
     5  C    0.633055  -0.038911  -0.065156   0.004757   5.018593   0.403735
     6  H   -0.044430   0.004879  -0.003096   0.000112   0.403735   0.528182
     7  C   -0.032838  -0.004673   0.008386  -0.000302   0.285578  -0.027263
     8  H   -0.000648   0.000402  -0.001094   0.000001  -0.042446  -0.001848
     9  H    0.013316   0.003352   0.001957  -0.000029  -0.066405   0.004066
    10  H   -0.008506  -0.000197   0.000104   0.000016  -0.023260  -0.001615
    11  C   -0.046020   0.004317   0.620833  -0.027822  -0.001329   0.005639
    12  H   -0.005914   0.000281  -0.029614   0.004047   0.004356   0.001028
    13  C    0.007866  -0.000411  -0.053933  -0.009415   0.001036   0.000276
    14  H   -0.000354   0.000012   0.002263   0.000738   0.000327   0.000037
    15  H    0.000775   0.000009  -0.003091  -0.000403  -0.000356  -0.000046
    16  C   -0.000088   0.000007  -0.003140   0.000152  -0.000002   0.000002
    17  C    0.000026   0.000000   0.000699   0.000234   0.000000   0.000001
    18  H    0.000003   0.000000  -0.000140   0.000004  -0.000001   0.000000
    19  H    0.000000   0.000000   0.000026   0.000000   0.000000   0.000000
    20  H   -0.000004   0.000000   0.000109  -0.000018   0.000001   0.000000
    21  O    0.000486   0.000036   0.022227   0.000018   0.000098   0.000015
    22  O   -0.000003   0.000000  -0.000235   0.000350   0.000000   0.000000
    23  O    0.000000   0.000000   0.000000   0.000000   0.000000   0.000000
    24  H    0.000000   0.000000  -0.000005  -0.000002   0.000000   0.000000
    25  H    0.000000   0.000000   0.000000   0.000000   0.000000   0.000000
    26  O    0.000477   0.000062  -0.004633   0.012610   0.000034   0.000000
    27  H   -0.000004  -0.000004   0.000746  -0.001384  -0.000002   0.000000
    28  H    0.000028  -0.000002   0.001083  -0.002260  -0.000004   0.000000
               7          8          9         10         11         12
     1  C   -0.032838  -0.000648   0.013316  -0.008506  -0.046020  -0.005914
     2  H   -0.004673   0.000402   0.003352  -0.000197   0.004317   0.000281
     3  C    0.008386  -0.001094   0.001957   0.000104   0.620833  -0.029614
     4  H   -0.000302   0.000001  -0.000029   0.000016  -0.027822   0.004047
     5  C    0.285578  -0.042446  -0.066405  -0.023260  -0.001329   0.004356
     6  H   -0.027263  -0.001848   0.004066  -0.001615   0.005639   0.001028
     7  C    4.862752   0.416399   0.426017   0.401697   0.000514   0.000092
     8  H    0.416399   0.553418  -0.022260  -0.032682   0.000330   0.000031
     9  H    0.426017  -0.022260   0.535332  -0.020450   0.000081  -0.000001
    10  H    0.401697  -0.032682  -0.020450   0.557436  -0.000339  -0.000049
    11  C    0.000514   0.000330   0.000081  -0.000339   5.041628   0.404564
    12  H    0.000092   0.000031  -0.000001  -0.000049   0.404564   0.503580
    13  C   -0.000027   0.000000   0.000003  -0.000005   0.365211  -0.030219
    14  H    0.000001   0.000000   0.000000  -0.000001  -0.033816  -0.000415
    15  H   -0.000002  -0.000001   0.000000   0.000001  -0.026467  -0.001691
    16  C    0.000000   0.000000   0.000000   0.000000   0.010343  -0.000020
    17  C    0.000000   0.000000   0.000000   0.000000  -0.003500   0.000024
    18  H    0.000000   0.000000   0.000000   0.000000   0.001771   0.000008
    19  H    0.000000   0.000000   0.000000   0.000000  -0.000153  -0.000001
    20  H    0.000000   0.000000   0.000000   0.000000  -0.000606  -0.000016
    21  O    0.000001   0.000000   0.000000   0.000000  -0.080404   0.002545
    22  O    0.000000   0.000000   0.000000   0.000000  -0.000107   0.000009
    23  O    0.000000   0.000000   0.000000   0.000000   0.000000   0.000000
    24  H    0.000000   0.000000   0.000000   0.000000   0.000018   0.000000
    25  H    0.000000   0.000000   0.000000   0.000000   0.000000   0.000000
    26  O   -0.000001   0.000000   0.000000   0.000000  -0.001052  -0.000020
    27  H    0.000000   0.000000   0.000000   0.000000  -0.000029   0.000000
    28  H    0.000000   0.000000   0.000000   0.000000  -0.000241   0.000005
              13         14         15         16         17         18
     1  C    0.007866  -0.000354   0.000775  -0.000088   0.000026   0.000003
     2  H   -0.000411   0.000012   0.000009   0.000007   0.000000   0.000000
     3  C   -0.053933   0.002263  -0.003091  -0.003140   0.000699  -0.000140
     4  H   -0.009415   0.000738  -0.000403   0.000152   0.000234   0.000004
     5  C    0.001036   0.000327  -0.000356  -0.000002   0.000000  -0.000001
     6  H    0.000276   0.000037  -0.000046   0.000002   0.000001   0.000000
     7  C   -0.000027   0.000001  -0.000002   0.000000   0.000000   0.000000
     8  H    0.000000   0.000000  -0.000001   0.000000   0.000000   0.000000
     9  H    0.000003   0.000000   0.000000   0.000000   0.000000   0.000000
    10  H   -0.000005  -0.000001   0.000001   0.000000   0.000000   0.000000
    11  C    0.365211  -0.033816  -0.026467   0.010343  -0.003500   0.001771
    12  H   -0.030219  -0.000415  -0.001691  -0.000020   0.000024   0.000008
    13  C    4.712952   0.418011   0.400530  -0.040138  -0.000194   0.001839
    14  H    0.418011   0.566554  -0.051203  -0.003070  -0.004977  -0.000384
    15  H    0.400530  -0.051203   0.587859  -0.011897   0.013579  -0.004012
    16  C   -0.040138  -0.003070  -0.011897   4.521934   0.311731  -0.026463
    17  C   -0.000194  -0.004977   0.013579   0.311731   5.034816   0.390670
    18  H    0.001839  -0.000384  -0.004012  -0.026463   0.390670   0.514189
    19  H    0.001439  -0.000074   0.000074  -0.019865   0.385928  -0.014060
    20  H   -0.006055   0.000728  -0.002361  -0.026860   0.398328  -0.023831
    21  O    0.245627  -0.035623  -0.033910   0.367126  -0.067261   0.001387
    22  O    0.003300   0.000250   0.000241   0.473225  -0.050346   0.001580
    23  O    0.000028   0.000000  -0.000002   0.001133  -0.010754  -0.000073
    24  H   -0.000127   0.000000   0.000007  -0.010061   0.005437  -0.000022
    25  H    0.000000   0.000000   0.000000  -0.000017   0.000545  -0.000024
    26  O    0.000783  -0.000013  -0.000012   0.001930  -0.000026   0.000002
    27  H    0.000006   0.000000   0.000001   0.000192  -0.000019   0.000000
    28  H   -0.000101   0.000014   0.000026  -0.008569  -0.000483  -0.000041
              19         20         21         22         23         24
     1  C    0.000000  -0.000004   0.000486  -0.000003   0.000000   0.000000
     2  H    0.000000   0.000000   0.000036   0.000000   0.000000   0.000000
     3  C    0.000026   0.000109   0.022227  -0.000235   0.000000  -0.000005
     4  H    0.000000  -0.000018   0.000018   0.000350   0.000000  -0.000002
     5  C    0.000000   0.000001   0.000098   0.000000   0.000000   0.000000
     6  H    0.000000   0.000000   0.000015   0.000000   0.000000   0.000000
     7  C    0.000000   0.000000   0.000001   0.000000   0.000000   0.000000
     8  H    0.000000   0.000000   0.000000   0.000000   0.000000   0.000000
     9  H    0.000000   0.000000   0.000000   0.000000   0.000000   0.000000
    10  H    0.000000   0.000000   0.000000   0.000000   0.000000   0.000000
    11  C   -0.000153  -0.000606  -0.080404  -0.000107   0.000000   0.000018
    12  H   -0.000001  -0.000016   0.002545   0.000009   0.000000   0.000000
    13  C    0.001439  -0.006055   0.245627   0.003300   0.000028  -0.000127
    14  H   -0.000074   0.000728  -0.035623   0.000250   0.000000   0.000000
    15  H    0.000074  -0.002361  -0.033910   0.000241  -0.000002   0.000007
    16  C   -0.019865  -0.026860   0.367126   0.473225   0.001133  -0.010061
    17  C    0.385928   0.398328  -0.067261  -0.050346  -0.010754   0.005437
    18  H   -0.014060  -0.023831   0.001387   0.001580  -0.000073  -0.000022
    19  H    0.466435  -0.005992   0.003031  -0.001418   0.019821  -0.006770
    20  H   -0.005992   0.491344   0.002830   0.000275   0.000261  -0.000200
    21  O    0.003031   0.002830   7.904425  -0.098858  -0.000029   0.000080
    22  O   -0.001418   0.000275  -0.098858   8.155732  -0.018974   0.026308
    23  O    0.019821   0.000261  -0.000029  -0.018974   8.092723   0.306492
    24  H   -0.006770  -0.000200   0.000080   0.026308   0.306492   0.354303
    25  H   -0.000847   0.000009   0.000003   0.001198   0.304489  -0.018765
    26  O    0.000001   0.000012  -0.001718  -0.015511  -0.000005   0.000026
    27  H    0.000000   0.000000   0.000016   0.000845   0.000002  -0.000011
    28  H    0.000024  -0.000037   0.002893   0.030015   0.000022   0.000348
              25         26         27         28
     1  C    0.000000   0.000477  -0.000004   0.000028
     2  H    0.000000   0.000062  -0.000004  -0.000002
     3  C    0.000000  -0.004633   0.000746   0.001083
     4  H    0.000000   0.012610  -0.001384  -0.002260
     5  C    0.000000   0.000034  -0.000002  -0.000004
     6  H    0.000000   0.000000   0.000000   0.000000
     7  C    0.000000  -0.000001   0.000000   0.000000
     8  H    0.000000   0.000000   0.000000   0.000000
     9  H    0.000000   0.000000   0.000000   0.000000
    10  H    0.000000   0.000000   0.000000   0.000000
    11  C    0.000000  -0.001052  -0.000029  -0.000241
    12  H    0.000000  -0.000020   0.000000   0.000005
    13  C    0.000000   0.000783   0.000006  -0.000101
    14  H    0.000000  -0.000013   0.000000   0.000014
    15  H    0.000000  -0.000012   0.000001   0.000026
    16  C   -0.000017   0.001930   0.000192  -0.008569
    17  C    0.000545  -0.000026  -0.000019  -0.000483
    18  H   -0.000024   0.000002   0.000000  -0.000041
    19  H   -0.000847   0.000001   0.000000   0.000024
    20  H    0.000009   0.000012   0.000000  -0.000037
    21  O    0.000003  -0.001718   0.000016   0.002893
    22  O    0.001198  -0.015511   0.000845   0.030015
    23  O    0.304489  -0.000005   0.000002   0.000022
    24  H   -0.018765   0.000026  -0.000011   0.000348
    25  H    0.381253   0.000002   0.000000  -0.000021
    26  O    0.000002   8.079324   0.304068   0.309174
    27  H    0.000000   0.304068   0.387314  -0.021779
    28  H   -0.000021   0.309174  -0.021779   0.356637
 Mulliken charges:
               1
     1  C   -0.210241
     2  H    0.136508
     3  C   -0.121053
     4  H    0.187233
     5  C   -0.113699
     6  H    0.130326
     7  C   -0.336331
     8  H    0.130399
     9  H    0.125022
    10  H    0.127850
    11  C   -0.233365
    12  H    0.147391
    13  C   -0.018282
    14  H    0.140994
    15  H    0.132351
    16  C    0.462414
    17  C   -0.404458
    18  H    0.157598
    19  H    0.172400
    20  H    0.172082
    21  O   -0.235045
    22  O   -0.507876
    23  O   -0.695134
    24  H    0.342944
    25  H    0.332176
    26  O   -0.685513
    27  H    0.330041
    28  H    0.333268
 Sum of Mulliken charges =   0.00000
 Mulliken charges with hydrogens summed into heavy atoms:
               1
     1  C   -0.073733
     3  C    0.066180
     5  C    0.016626
     7  C    0.046940
    11  C   -0.085973
    13  C    0.255063
    16  C    0.462414
    17  C    0.097622
    21  O   -0.235045
    22  O   -0.507876
    23  O   -0.020015
    26  O   -0.022204
 Electronic spatial extent (au):  <R**2>=           4477.5566
 Charge=              0.0000 electrons
 Dipole moment (field-independent basis, Debye):
    X=             -2.1196    Y=             -4.3856    Z=              0.1714  Tot=              4.8739
 Quadrupole moment (field-independent basis, Debye-Ang):
   XX=            -80.6765   YY=            -65.6894   ZZ=            -74.9513
   XY=              1.2899   XZ=             -7.4389   YZ=              3.0622
 Traceless Quadrupole moment (field-independent basis, Debye-Ang):
   XX=             -6.9041   YY=              8.0830   ZZ=             -1.1789
   XY=              1.2899   XZ=             -7.4389   YZ=              3.0622
 Octapole moment (field-independent basis, Debye-Ang**2):
  XXX=            -79.8957  YYY=              3.1146  ZZZ=              1.8657  XYY=             32.0967
  XXY=             27.8149  XXZ=            -43.6261  XZZ=             16.2324  YZZ=              0.9753
  YYZ=             15.1499  XYZ=              2.0279
 Hexadecapole moment (field-independent basis, Debye-Ang**3):
 XXXX=          -5030.7512 YYYY=           -724.0496 ZZZZ=           -127.6153 XXXY=            222.3200
 XXXZ=           -326.4340 YYYX=             49.2799 YYYZ=             63.5822 ZZZX=             -8.1576
 ZZZY=              1.4324 XXYY=           -838.9724 XXZZ=           -858.4289 YYZZ=           -144.5269
 XXYZ=            -50.3215 YYXZ=             19.7192 ZZXY=              1.5228
 N-N= 6.867762051250D+02 E-N=-2.813813526117D+03  KE= 6.126379996618D+02
   1 Symmetry operations used in ECPInt.
 ECPInt:  NShTT=   19306 NPrTT=   56928 LenC2=   16601 LenP2D=   35931.
 LDataN:  DoStor=T MaxTD1= 7 Len=  274
 D1PCM: PCM CHGder 1st derivatives, ID1Alg=3 FixD1E=F DoIter=F DoCFld=F I1PDM=0.
 Calling FoFJK, ICntrl=      2127 FMM=F ISym2X=0 I1Cent= 0 IOpClX= 0 NMat=1 NMatS=1 NMatT=0.
 ***** Axes restored to original set *****
 -------------------------------------------------------------------
 Center     Atomic                   Forces (Hartrees/Bohr)
 Number     Number              X              Y              Z
 -------------------------------------------------------------------
      1        6          -0.000017599   -0.000053884    0.000055278
      2        1           0.000001522   -0.000008217   -0.000024838
      3        6          -0.000006291   -0.000119742    0.000062852
      4        1           0.000132567    0.000089501   -0.000078069
      5        6           0.000048845    0.000059764   -0.000035724
      6        1          -0.000005369    0.000009156   -0.000007788
      7        6          -0.000003193   -0.000008882    0.000000500
      8        1          -0.000010720    0.000018199   -0.000005030
      9        1           0.000008110    0.000007669   -0.000013061
     10        1          -0.000008797    0.000010648    0.000000172
     11        6          -0.000001124    0.000050295    0.000016732
     12        1          -0.000016685   -0.000011265    0.000004615
     13        6           0.000132313    0.000091633    0.000030986
     14        1          -0.000036377   -0.000045871    0.000000253
     15        1          -0.000029605   -0.000032127    0.000014116
     16        6           0.000312575    0.000641442   -0.000002654
     17        6          -0.000020601   -0.000103164    0.000025029
     18        1          -0.000005266   -0.000017652    0.000017550
     19        1           0.000047258    0.000132950   -0.000025921
     20        1           0.000016843   -0.000004872    0.000001007
     21        8          -0.000258359   -0.000088021    0.000022418
     22        8          -0.000213006   -0.000459578   -0.000003906
     23        8          -0.000202715    0.000219408   -0.000151221
     24        1           0.000634043   -0.000052953    0.000263492
     25        1          -0.000352360   -0.000319779    0.000037902
     26        8           0.000425363    0.000102000    0.000173456
     27        1          -0.000085666   -0.000457681   -0.000138107
     28        1          -0.000485706    0.000351022   -0.000240038
 -------------------------------------------------------------------
 Cartesian Forces:  Max     0.000641442 RMS     0.000178061

 GradGradGradGradGradGradGradGradGradGradGradGradGradGradGradGradGradGrad
 Berny optimization.
 FormGI is forming the generalized inverse of G from B-inverse, IUseBI=4.
 GSVD:  received Info=                   1 from GESDD.
 Internal  Forces:  Max     0.000658710 RMS     0.000159392
 Search for a local minimum.
 Step number   1 out of a maximum of  123
 All quantities printed in internal units (Hartrees-Bohrs-Radians)
 Mixed Optimization -- En-DIIS/RFO-DIIS
 Second derivative matrix not updated -- first step.
 ITU=  0
     Eigenvalues ---    0.00230   0.00230   0.00822   0.00870   0.00879
     Eigenvalues ---    0.01222   0.01232   0.01342   0.01360   0.01437
     Eigenvalues ---    0.01455   0.01749   0.01800   0.02059   0.02142
     Eigenvalues ---    0.02147   0.02209   0.02706   0.03006   0.03025
     Eigenvalues ---    0.04149   0.04321   0.05118   0.06483   0.07172
     Eigenvalues ---    0.07350   0.07354   0.07487   0.07556   0.11419
     Eigenvalues ---    0.13922   0.15982   0.15992   0.15996   0.15998
     Eigenvalues ---    0.15999   0.15999   0.16000   0.16000   0.16000
     Eigenvalues ---    0.16000   0.16000   0.16000   0.16000   0.16000
     Eigenvalues ---    0.22000   0.22000   0.22001   0.22002   0.22041
     Eigenvalues ---    0.24999   0.24999   0.25000   0.32829   0.33221
     Eigenvalues ---    0.33293   0.34254   0.34319   0.34346   0.34392
     Eigenvalues ---    0.34559   0.34698   0.34780   0.35065   0.35117
     Eigenvalues ---    0.35216   0.35261   0.35267   0.36279   0.41500
     Eigenvalues ---    0.53560   0.53844   0.55806   0.55841   0.59352
     Eigenvalues ---    0.59696   0.61109   0.98026
 RFO step:  Lambda=-8.53080932D-05 EMin= 2.30000000D-03
 Linear search not attempted -- first point.
 Iteration  1 RMS(Cart)=  0.02102986 RMS(Int)=  0.00074390
 Iteration  2 RMS(Cart)=  0.00074093 RMS(Int)=  0.00000316
 Iteration  3 RMS(Cart)=  0.00000062 RMS(Int)=  0.00000313
 Variable       Old X    -DE/DX   Delta X   Delta X   Delta X     New X
                                 (Linear)    (Quad)   (Total)
    R1        2.05485   0.00000   0.00000   0.00000   0.00000   2.05485
    R2        2.76948  -0.00001   0.00000  -0.00004  -0.00004   2.76944
    R3        2.51456  -0.00006   0.00000  -0.00010  -0.00010   2.51446
    R4        2.05254   0.00015   0.00000   0.00044   0.00044   2.05297
    R5        2.51182  -0.00009   0.00000  -0.00015  -0.00015   2.51167
    R6        2.05569  -0.00001   0.00000  -0.00002  -0.00002   2.05568
    R7        2.81966   0.00001   0.00000   0.00004   0.00004   2.81970
    R8        2.06674   0.00001   0.00000   0.00002   0.00002   2.06675
    R9        2.06168   0.00000   0.00000   0.00001   0.00001   2.06169
   R10        2.06750   0.00000   0.00000   0.00000   0.00000   2.06750
   R11        2.05243   0.00002   0.00000   0.00005   0.00005   2.05248
   R12        2.81839  -0.00012   0.00000  -0.00035  -0.00035   2.81804
   R13        2.06903   0.00002   0.00000   0.00007   0.00007   2.06910
   R14        2.06795   0.00002   0.00000   0.00004   0.00004   2.06799
   R15        2.69565  -0.00012   0.00000  -0.00029  -0.00029   2.69535
   R16        2.82654   0.00000   0.00000   0.00000   0.00000   2.82653
   R17        2.50074   0.00006   0.00000   0.00009   0.00009   2.50083
   R18        2.29440  -0.00066   0.00000  -0.00067  -0.00067   2.29372
   R19        2.06033   0.00001   0.00000   0.00002   0.00002   2.06035
   R20        2.05325   0.00007   0.00000   0.00019   0.00019   2.05344
   R21        2.06397  -0.00002   0.00000  -0.00004  -0.00004   2.06392
   R22        3.58778   0.00009   0.00000   0.00184   0.00184   3.58962
   R23        3.77574   0.00011   0.00000   0.00256   0.00256   3.77830
   R24        1.83135  -0.00054   0.00000  -0.00101  -0.00101   1.83034
   R25        1.81092  -0.00039   0.00000  -0.00070  -0.00070   1.81022
   R26        1.81122  -0.00039   0.00000  -0.00070  -0.00070   1.81052
   R27        1.82873  -0.00049   0.00000  -0.00091  -0.00091   1.82783
    A1        2.01580  -0.00002   0.00000  -0.00009  -0.00009   2.01571
    A2        2.07208  -0.00002   0.00000  -0.00007  -0.00007   2.07201
    A3        2.19482   0.00004   0.00000   0.00017   0.00017   2.19499
    A4        2.02792   0.00003   0.00000   0.00018   0.00018   2.02810
    A5        2.17968   0.00003   0.00000   0.00012   0.00012   2.17980
    A6        2.07537  -0.00006   0.00000  -0.00033  -0.00033   2.07504
    A7        2.07420   0.00000   0.00000   0.00000   0.00000   2.07420
    A8        2.17984   0.00000   0.00000   0.00001   0.00001   2.17985
    A9        2.02908   0.00000   0.00000  -0.00001  -0.00001   2.02907
   A10        1.93875   0.00001   0.00000   0.00009   0.00009   1.93884
   A11        1.94837  -0.00002   0.00000  -0.00011  -0.00011   1.94826
   A12        1.93390   0.00001   0.00000   0.00010   0.00010   1.93400
   A13        1.89068   0.00000   0.00000  -0.00003  -0.00003   1.89066
   A14        1.86076  -0.00001   0.00000  -0.00003  -0.00003   1.86073
   A15        1.88828   0.00000   0.00000  -0.00002  -0.00002   1.88826
   A16        2.10438   0.00012   0.00000   0.00052   0.00052   2.10491
   A17        2.19014  -0.00024   0.00000  -0.00110  -0.00110   2.18904
   A18        1.98861   0.00013   0.00000   0.00058   0.00058   1.98919
   A19        1.92496   0.00007   0.00000   0.00032   0.00032   1.92528
   A20        1.92099   0.00005   0.00000  -0.00012  -0.00012   1.92087
   A21        1.90644  -0.00036   0.00000  -0.00169  -0.00169   1.90476
   A22        1.88327  -0.00003   0.00000   0.00014   0.00014   1.88341
   A23        1.90733   0.00016   0.00000   0.00100   0.00100   1.90833
   A24        1.92074   0.00012   0.00000   0.00039   0.00039   1.92113
   A25        2.08333   0.00011   0.00000   0.00046   0.00046   2.08379
   A26        2.15571  -0.00031   0.00000  -0.00124  -0.00124   2.15447
   A27        2.04409   0.00019   0.00000   0.00077   0.00077   2.04486
   A28        1.94034   0.00003   0.00000   0.00022   0.00022   1.94056
   A29        1.90825  -0.00021   0.00000  -0.00148  -0.00148   1.90678
   A30        1.91292   0.00007   0.00000   0.00058   0.00058   1.91350
   A31        1.91769   0.00006   0.00000   0.00010   0.00010   1.91779
   A32        1.88024  -0.00001   0.00000   0.00020   0.00020   1.88045
   A33        1.90393   0.00007   0.00000   0.00041   0.00041   1.90434
   A34        2.14263   0.00011   0.00000   0.00045   0.00045   2.14308
   A35        2.08294  -0.00035   0.00000  -0.00224  -0.00224   2.08070
   A36        1.91593   0.00004   0.00000   0.00024   0.00024   1.91617
   A37        2.28320   0.00031   0.00000   0.00195   0.00195   2.28515
   A38        1.84138  -0.00036   0.00000  -0.00227  -0.00227   1.83911
   A39        1.83452  -0.00035   0.00000  -0.00216  -0.00216   1.83236
   A40        2.96086  -0.00011   0.00000  -0.00729  -0.00729   2.95357
   A41        3.12459   0.00022   0.00000   0.01504   0.01504   3.13963
   A42        3.14840  -0.00034   0.00000  -0.02537  -0.02536   3.12305
   A43        3.10567  -0.00036   0.00000  -0.02676  -0.02675   3.07892
    D1        0.54447  -0.00001   0.00000  -0.00078  -0.00078   0.54370
    D2       -2.57429   0.00002   0.00000   0.00071   0.00071  -2.57358
    D3       -2.56304  -0.00002   0.00000  -0.00122  -0.00122  -2.56426
    D4        0.60139   0.00001   0.00000   0.00027   0.00027   0.60166
    D5       -3.07992  -0.00001   0.00000  -0.00056  -0.00056  -3.08047
    D6        0.04896  -0.00001   0.00000  -0.00031  -0.00031   0.04864
    D7        0.02660   0.00000   0.00000  -0.00010  -0.00010   0.02649
    D8       -3.12772   0.00000   0.00000   0.00014   0.00014  -3.12757
    D9        0.03362   0.00001   0.00000   0.00020   0.00020   0.03381
   D10       -3.11972   0.00001   0.00000   0.00021   0.00021  -3.11951
   D11       -3.08457   0.00005   0.00000   0.00171   0.00171  -3.08285
   D12        0.04528   0.00005   0.00000   0.00173   0.00173   0.04701
   D13       -2.13627   0.00000   0.00000  -0.00017  -0.00017  -2.13644
   D14       -0.02394   0.00000   0.00000  -0.00021  -0.00021  -0.02415
   D15        2.08197  -0.00001   0.00000  -0.00025  -0.00025   2.08173
   D16        0.99290   0.00000   0.00000   0.00007   0.00007   0.99297
   D17        3.10523   0.00000   0.00000   0.00003   0.00003   3.10525
   D18       -1.07204   0.00000   0.00000  -0.00001  -0.00001  -1.07205
   D19       -2.12341   0.00002   0.00000   0.00182   0.00182  -2.12159
   D20        2.08377  -0.00001   0.00000   0.00153   0.00153   2.08530
   D21       -0.02686   0.00004   0.00000   0.00219   0.00219  -0.02467
   D22        1.00712   0.00002   0.00000   0.00183   0.00183   1.00895
   D23       -1.06889  -0.00001   0.00000   0.00154   0.00154  -1.06735
   D24        3.10367   0.00004   0.00000   0.00220   0.00220   3.10587
   D25        2.98792  -0.00005   0.00000  -0.00221  -0.00221   2.98571
   D26       -1.18792  -0.00008   0.00000  -0.00225  -0.00225  -1.19017
   D27        0.87714   0.00005   0.00000  -0.00124  -0.00124   0.87590
   D28        0.90193   0.00003   0.00000  -0.00094  -0.00094   0.90099
   D29        3.02226  -0.00002   0.00000  -0.00165  -0.00165   3.02061
   D30       -1.17479  -0.00003   0.00000  -0.00170  -0.00170  -1.17649
   D31       -2.25074   0.00001   0.00000  -0.00183  -0.00183  -2.25258
   D32       -0.13041  -0.00004   0.00000  -0.00255  -0.00255  -0.13296
   D33        1.95572  -0.00005   0.00000  -0.00259  -0.00259   1.95313
   D34       -0.00311   0.00005   0.00000   0.00164   0.00164  -0.00147
   D35       -3.13433   0.00007   0.00000   0.00249   0.00249  -3.13183
   D36        0.04018  -0.00012   0.00000  -0.00287  -0.00288   0.03730
   D37       -3.05622  -0.00009   0.00000  -0.00183  -0.00183  -3.05804
   D38       -3.11226  -0.00014   0.00000  -0.00375  -0.00376  -3.11602
   D39        0.07452  -0.00011   0.00000  -0.00271  -0.00270   0.07182
   D40        2.38891  -0.00023   0.00000  -0.07494  -0.07495   2.31396
   D41       -0.81354  -0.00010   0.00000  -0.06370  -0.06368  -0.87722
   D42        2.29372  -0.00027   0.00000  -0.08172  -0.08174   2.21199
   D43       -0.78196  -0.00009   0.00000  -0.07097  -0.07096  -0.85292
         Item               Value     Threshold  Converged?
 Maximum Force            0.000659     0.000450     NO 
 RMS     Force            0.000159     0.000300     YES
 Maximum Displacement     0.115033     0.001800     NO 
 RMS     Displacement     0.021048     0.001200     NO 
 Predicted change in Energy=-4.364624D-05
 GradGradGradGradGradGradGradGradGradGradGradGradGradGradGradGradGradGrad

                          Input orientation:                          
 ---------------------------------------------------------------------
 Center     Atomic      Atomic             Coordinates (Angstroms)
 Number     Number       Type             X           Y           Z
 ---------------------------------------------------------------------
      1          6           0       -3.312160    0.511437   -0.229091
      2          1           0       -3.538416    1.452259   -0.725128
      3          6           0       -1.900193    0.118915   -0.234960
      4          1           0       -1.176946    0.929508   -0.225519
      5          6           0       -4.303302   -0.159096    0.352722
      6          1           0       -4.070551   -1.070684    0.898784
      7          6           0       -5.738109    0.249962    0.332146
      8          1           0       -6.127755    0.369660    1.347027
      9          1           0       -5.880621    1.189891   -0.203110
     10          1           0       -6.353449   -0.514864   -0.150966
     11          6           0       -1.459605   -1.134340   -0.277220
     12          1           0       -2.157610   -1.963914   -0.342542
     13          6           0       -0.027042   -1.548048   -0.256879
     14          1           0        0.212749   -2.131633   -1.151742
     15          1           0        0.169842   -2.176193    0.617329
     16          6           0        2.102926   -0.435626   -0.020418
     17          6           0        2.763451   -1.763411    0.174320
     18          1           0        2.495344   -2.457529   -0.622580
     19          1           0        3.841245   -1.627248    0.198693
     20          1           0        2.436786   -2.200602    1.120371
     21          8           0        0.795431   -0.383393   -0.218071
     22          8           0        2.702259    0.619595    0.003793
     23          8           0        5.531504    0.424212    0.347112
     24          1           0        4.586827    0.610241    0.241686
     25          1           0        5.973235    0.981380   -0.294810
     26          8           0        0.779251    2.871091   -0.160979
     27          1           0        1.010332    3.411468    0.595673
     28          1           0        1.408329    2.136535   -0.145213
 ---------------------------------------------------------------------
                    Distance matrix (angstroms):
                    1          2          3          4          5
     1  C    0.000000
     2  H    1.087377   0.000000
     3  C    1.465523   2.168374   0.000000
     4  H    2.175760   2.469699   1.086387   0.000000
     5  C    1.330596   2.084053   2.489497   3.360584   0.000000
     6  H    2.085753   3.047211   2.722311   3.692936   1.087818
     7  C    2.503714   2.720661   3.881801   4.645102   1.492120
     8  H    3.229834   3.488628   4.520823   5.224637   2.144027
     9  H    2.656684   2.413973   4.122113   4.710930   2.148640
    10  H    3.210738   3.481903   4.498913   5.374751   2.140881
    11  C    2.478479   3.348518   1.329116   2.083756   3.071570
    12  H    2.733719   3.704489   2.101431   3.057334   2.888729
    13  C    3.877403   4.642289   2.507577   2.731584   4.537313
    14  H    4.501343   5.205528   3.220245   3.487081   5.152576
    15  H    4.479299   5.359014   3.206082   3.488497   4.914033
    16  C    5.501238   5.990448   4.047036   3.558542   6.423041
    17  C    6.500055   7.131834   5.045813   4.789407   7.248769
    18  H    6.534270   7.190495   5.109702   5.011526   7.242623
    19  H    7.478514   8.049609   6.016747   5.647938   8.277249
    20  H    6.498198   7.242396   5.101614   4.966696   7.084195
    21  O    4.203944   4.733809   2.742077   2.369396   5.135484
    22  O    6.019897   6.338034   4.635757   3.898315   7.057336
    23  O    8.862844   9.190757   7.460706   6.751780   9.852091
    24  H    7.913620   8.225770   6.523037   5.791484   8.924046
    25  H    9.297512   9.533016   7.920751   7.150705  10.359885
    26  O    4.723584   4.579694   3.841792   2.756922   5.939552
    27  H    5.270137   5.125828   4.472361   3.408616   6.406455
    28  H    4.993094   5.027407   3.876231   2.854297   6.175807
                    6          7          8          9         10
     6  H    0.000000
     7  C    2.201348   0.000000
     8  H    2.551000   1.093680   0.000000
     9  H    3.098503   1.090998   1.771095   0.000000
    10  H    2.573428   1.094074   1.754224   1.769880   0.000000
    11  C    2.864276   4.537975   5.166412   4.995291   4.934511
    12  H    2.449101   4.263381   4.905330   4.881264   4.443142
    13  C    4.232423   6.016318   6.593089   6.462476   6.411093
    14  H    4.865895   6.579258   7.259636   7.004398   6.835967
    15  H    4.391162   6.393078   6.831805   6.972213   6.775220
    16  C    6.273759   7.878842   8.382273   8.149399   8.457753
    17  C    6.907120   8.738140   9.218393   9.142452   9.207743
    18  H    6.881051   8.719619   9.286021   9.145295   9.071796
    19  H    7.962186   9.762466  10.231680  10.129778  10.261161
    20  H    6.608423   8.570616   8.944774   9.078894   9.040256
    21  O    5.039595   6.587186   7.137725   6.858944   7.150403
    22  O    7.037684   8.454836   8.935093   8.604294   9.127803
    23  O    9.733371  11.270970  11.702185  11.451009  11.932395
    24  H    8.843499  10.331615  10.774132  10.492917  11.004983
    25  H   10.320527  11.750899  12.227174  11.856045  12.417994
    26  O    6.338869   7.041979   7.499198   6.868923   7.895581
    27  H    6.782104   7.456944   7.795474   7.284140   8.378473
    28  H    6.433841   7.406659   7.882968   7.350394   8.202143
                   11         12         13         14         15
    11  C    0.000000
    12  H    1.086127   0.000000
    13  C    1.491243   2.172465   0.000000
    14  H    2.134515   2.510287   1.094921   0.000000
    15  H    2.130909   2.526549   1.094335   1.770152   0.000000
    16  C    3.639474   4.537796   2.414572   2.780126   2.678266
    17  C    4.293462   4.952191   2.831813   2.898294   2.663354
    18  H    4.184701   4.687436   2.706163   2.365683   2.650374
    19  H    5.344947   6.032623   3.895826   3.904364   3.735746
    20  H    4.274580   4.827485   2.897083   3.180188   2.322215
    21  O    2.377521   3.351715   1.426320   2.065818   2.074460
    22  O    4.525082   5.514780   3.495098   3.886152   3.821779
    23  O    7.189887   8.080919   5.928916   6.088354   5.965110
    24  H    6.314440   7.242584   5.118062   5.347155   5.235941
    25  H    7.728111   8.647987   6.511741   6.603664   6.669456
    26  O    4.590149   5.659982   4.493117   5.131256   5.143172
    27  H    5.246608   6.309583   5.138073   5.866479   5.650562
    28  H    4.352137   5.437697   3.955871   4.545302   4.551367
                   16         17         18         19         20
    16  C    0.000000
    17  C    1.495737   0.000000
    18  H    2.145853   1.090290   0.000000
    19  H    2.118897   1.086634   1.781939   0.000000
    20  H    2.127910   1.092181   1.762760   1.775030   0.000000
    21  O    1.323381   2.435472   2.712079   3.316301   2.790649
    22  O    1.213787   2.389883   3.147039   2.526575   3.044788
    23  O    3.553807   3.532374   4.296860   2.662234   4.130963
    24  H    2.707822   2.993904   3.812148   2.358834   3.646313
    25  H    4.130677   4.249315   4.901965   3.404977   4.963288
    26  O    3.564583   5.052533   5.617139   5.453460   5.487381
    27  H    4.046414   5.479994   6.175316   5.793128   5.814242
    28  H    2.667218   4.141018   4.744987   4.494821   4.633593
                   21         22         23         24         25
    21  O    0.000000
    22  O    2.165918   0.000000
    23  O    4.837566   2.856689   0.000000
    24  H    3.946311   1.899547   0.968575   0.000000
    25  H    5.355199   3.304443   0.957929   1.532221   0.000000
    26  O    3.255025   2.965526   5.369291   4.446484   5.528688
    27  H    3.887073   3.317754   5.424618   4.556698   5.597205
    28  H    2.594415   1.999390   4.491660   3.547127   4.711171
                   26         27         28
    26  O    0.000000
    27  H    0.958085   0.000000
    28  H    0.967244   1.527341   0.000000
 Stoichiometry    C8H16O4
 Framework group  C1[X(C8H16O4)]
 Deg. of freedom    78
 Full point group                 C1      NOp   1
 Largest Abelian subgroup         C1      NOp   1
 Largest concise Abelian subgroup C1      NOp   1
                         Standard orientation:                         
 ---------------------------------------------------------------------
 Center     Atomic      Atomic             Coordinates (Angstroms)
 Number     Number       Type             X           Y           Z
 ---------------------------------------------------------------------
      1          6           0       -3.312766    0.508735   -0.228715
      2          1           0       -3.539143    1.449050   -0.725657
      3          6           0       -1.900790    0.116243   -0.234463
      4          1           0       -1.177563    0.926864   -0.225981
      5          6           0       -4.303778   -0.161236    0.353968
      6          1           0       -4.070897   -1.072266    0.900904
      7          6           0       -5.738599    0.247764    0.333258
      8          1           0       -6.128051    0.368477    1.348093
      9          1           0       -5.881240    1.187149   -0.202919
     10          1           0       -6.354013   -0.517565   -0.148962
     11          6           0       -1.460178   -1.137042   -0.275543
     12          1           0       -2.158175   -1.966700   -0.339892
     13          6           0       -0.027600   -1.550693   -0.255064
     14          1           0        0.212031   -2.135175   -1.149384
     15          1           0        0.169470   -2.177951    0.619739
     16          6           0        2.102384   -0.437979   -0.020141
     17          6           0        2.762981   -1.765549    0.175809
     18          1           0        2.494737   -2.460478   -0.620338
     19          1           0        3.840777   -1.629334    0.199834
     20          1           0        2.436512   -2.201794    1.122365
     21          8           0        0.794849   -0.385979   -0.217592
     22          8           0        2.701694    0.617282    0.002889
     23          8           0        5.531012    0.422318    0.345853
     24          1           0        4.586309    0.608216    0.240424
     25          1           0        5.972604    0.978849   -0.296716
     26          8           0        0.778597    2.868561   -0.163781
     27          1           0        1.009811    3.409708    0.592280
     28          1           0        1.407697    2.134037   -0.147397
 ---------------------------------------------------------------------
 Rotational constants (GHZ):      1.6934659      0.2744873      0.2399300
 Standard basis: def2TZVP (5D, 7F)
 There are   528 symmetry adapted cartesian basis functions of A   symmetry.
 There are   468 symmetry adapted basis functions of A   symmetry.
   468 basis functions,   740 primitive gaussians,   528 cartesian basis functions
    48 alpha electrons       48 beta electrons
       nuclear repulsion energy       686.9266421244 Hartrees.
 NAtoms=   28 NActive=   28 NUniq=   28 SFac= 1.00D+00 NAtFMM=   60 NAOKFM=F Big=F
 Integral buffers will be    131072 words long.
 Raffenetti 2 integral format.
 Two-electron integral symmetry is turned on.
 Nuclear repulsion after empirical dispersion term =      686.9124629727 Hartrees.
 ------------------------------------------------------------------------------
 Polarizable Continuum Model (PCM)
 =================================
[...]
 Alpha virt. eigenvalues --    1.18377   1.21251   1.21772   1.23503   1.24094
 Alpha virt. eigenvalues --    1.25900   1.27806   1.28226   1.28646   1.28819
 Alpha virt. eigenvalues --    1.31715   1.33142   1.34357   1.34539   1.37495
 Alpha virt. eigenvalues --    1.37708   1.41349   1.41730   1.45030   1.46198
 Alpha virt. eigenvalues --    1.46991   1.49956   1.51007   1.52572   1.55673
 Alpha virt. eigenvalues --    1.56496   1.57717   1.59747   1.60228   1.60825
 Alpha virt. eigenvalues --    1.61227   1.62074   1.62200   1.62617   1.63479
 Alpha virt. eigenvalues --    1.64259   1.65233   1.66802   1.68078   1.68213
 Alpha virt. eigenvalues --    1.69596   1.70327   1.70932   1.72644   1.73804
 Alpha virt. eigenvalues --    1.75307   1.76713   1.79143   1.79685   1.81794
 Alpha virt. eigenvalues --    1.84005   1.86397   1.88568   1.88902   1.90346
 Alpha virt. eigenvalues --    1.90964   1.92753   1.94516   1.95285   1.96181
 Alpha virt. eigenvalues --    1.96999   1.99661   2.00877   2.02007   2.02769
 Alpha virt. eigenvalues --    2.04382   2.05251   2.08418   2.09341   2.12331
 Alpha virt. eigenvalues --    2.13072   2.14973   2.16026   2.16750   2.18133
 Alpha virt. eigenvalues --    2.19222   2.20765   2.21298   2.22406   2.23506
 Alpha virt. eigenvalues --    2.25099   2.26900   2.28157   2.28759   2.30646
 Alpha virt. eigenvalues --    2.31261   2.32910   2.33486   2.36952   2.39272
 Alpha virt. eigenvalues --    2.39397   2.40427   2.40838   2.42012   2.42304
 Alpha virt. eigenvalues --    2.43795   2.44405   2.45073   2.46157   2.48383
 Alpha virt. eigenvalues --    2.49032   2.49884   2.51412   2.52748   2.53771
 Alpha virt. eigenvalues --    2.55539   2.59280   2.61259   2.62082   2.62416
 Alpha virt. eigenvalues --    2.63422   2.66111   2.66819   2.68337   2.68537
 Alpha virt. eigenvalues --    2.69921   2.70370   2.73156   2.73684   2.73914
 Alpha virt. eigenvalues --    2.75894   2.76217   2.77277   2.78386   2.79673
 Alpha virt. eigenvalues --    2.80276   2.80940   2.81827   2.82966   2.84932
 Alpha virt. eigenvalues --    2.86094   2.87111   2.89012   2.90442   2.92662
 Alpha virt. eigenvalues --    2.93245   2.95120   2.96159   2.98020   2.99073
 Alpha virt. eigenvalues --    3.00139   3.01526   3.01832   3.02504   3.03299
 Alpha virt. eigenvalues --    3.05032   3.06905   3.08808   3.09514   3.10122
 Alpha virt. eigenvalues --    3.11904   3.12779   3.14572   3.16440   3.17052
 Alpha virt. eigenvalues --    3.17754   3.18613   3.19409   3.19880   3.20721
 Alpha virt. eigenvalues --    3.22341   3.24173   3.24874   3.27165   3.27455
 Alpha virt. eigenvalues --    3.28072   3.28689   3.30096   3.32517   3.33505
 Alpha virt. eigenvalues --    3.34190   3.36077   3.36435   3.36459   3.38296
 Alpha virt. eigenvalues --    3.41332   3.42198   3.42714   3.45160   3.47683
 Alpha virt. eigenvalues --    3.50355   3.50798   3.53888   3.54464   3.55545
 Alpha virt. eigenvalues --    3.55971   3.62325   3.62927   3.64196   3.65098
 Alpha virt. eigenvalues --    3.68173   3.68983   3.69541   3.73218   3.75733
 Alpha virt. eigenvalues --    3.76690   3.78314   3.79120   3.81776   3.82122
 Alpha virt. eigenvalues --    3.83695   3.86257   3.87953   3.90239   3.93178
 Alpha virt. eigenvalues --    3.95761   3.96606   3.98340   4.05459   4.06179
 Alpha virt. eigenvalues --    4.07648   4.07920   4.08684   4.12871   4.13411
 Alpha virt. eigenvalues --    4.19914   4.21713   4.26614   4.30215   4.34053
 Alpha virt. eigenvalues --    4.41810   4.42943   4.45255   4.46112   4.47723
 Alpha virt. eigenvalues --    4.48670   4.53181   4.54307   4.56438   4.59944
 Alpha virt. eigenvalues --    4.64088   4.65245   4.72357   4.73251   4.76537
 Alpha virt. eigenvalues --    4.79918   4.80929   4.86409   4.90387   4.96355
 Alpha virt. eigenvalues --    5.05498   5.11048   5.16726   5.20994   5.21434
 Alpha virt. eigenvalues --    5.23943   5.24249   5.28536   5.31072   5.32180
 Alpha virt. eigenvalues --    5.32589   5.35212   5.48822   5.49550   5.49800
 Alpha virt. eigenvalues --    5.52758   5.53237   5.54538   5.57558   5.58935
 Alpha virt. eigenvalues --    5.69301   5.92877   5.97756   5.98176   6.12193
 Alpha virt. eigenvalues --    6.15547   6.17450   6.26088   6.32507   6.33637
 Alpha virt. eigenvalues --    6.36545   6.41815   6.44075   6.45415   6.49146
 Alpha virt. eigenvalues --    6.50127   6.52414   6.54360   6.56089   6.69962
 Alpha virt. eigenvalues --    6.71723   6.87847   6.88139   6.95546   6.97031
 Alpha virt. eigenvalues --    7.03875   7.04712   7.12216   7.14927   7.17357
 Alpha virt. eigenvalues --    7.23823   7.31960   7.53018  22.32126  22.41990
 Alpha virt. eigenvalues --   22.47017  22.47603  22.57509  22.94027  23.01867
 Alpha virt. eigenvalues --   23.46172  43.50871  43.56053  43.97814  44.37945
          Condensed to atoms (all electrons):
               1          2          3          4          5          6
     1  C    5.004211   0.403812   0.314508  -0.036303   0.624969  -0.045605
     2  H    0.403812   0.515416  -0.025241  -0.003783  -0.037899   0.004788
     3  C    0.314508  -0.025241   4.993920   0.361510  -0.058284  -0.002666
     4  H   -0.036303  -0.003783   0.361510   0.564316   0.008027   0.000310
     5  C    0.624969  -0.037899  -0.058284   0.008027   5.025716   0.404796
     6  H   -0.045605   0.004788  -0.002666   0.000310   0.404796   0.524793
     7  C   -0.030492  -0.004077   0.007702  -0.000612   0.282557  -0.025881
     8  H   -0.002040   0.000337  -0.001041   0.000012  -0.040142  -0.001683
     9  H    0.013026   0.003270   0.002014  -0.000005  -0.066440   0.004022
    10  H   -0.007187  -0.000165   0.000031   0.000014  -0.024476  -0.001907
    11  C   -0.039373   0.005194   0.588334  -0.045068  -0.005520   0.004613
    12  H   -0.005837   0.000247  -0.030240   0.005340   0.003828   0.000705
    13  C    0.008009  -0.000286  -0.043911  -0.016172   0.000950   0.000082
    14  H   -0.000795   0.000002   0.004128   0.000106   0.000378   0.000029
    15  H    0.001214   0.000013  -0.004058   0.000423  -0.000423  -0.000023
    16  C   -0.000036   0.000000  -0.003604  -0.000056  -0.000009   0.000000
    17  C    0.000027  -0.000001   0.002117   0.000189   0.000006   0.000001
    18  H   -0.000002   0.000000  -0.000058   0.000019  -0.000001   0.000000
    19  H    0.000000   0.000000   0.000017  -0.000005   0.000000   0.000000
    20  H    0.000004   0.000000  -0.000093  -0.000035   0.000000   0.000000
    21  O    0.001095   0.000047   0.020557  -0.001379  -0.000004   0.000012
    22  O   -0.000007   0.000000  -0.000473   0.000520   0.000000   0.000000
    23  O    0.000000   0.000000   0.000000   0.000000   0.000000   0.000000
    24  H    0.000000   0.000000  -0.000004  -0.000003   0.000000   0.000000
    25  H    0.000000   0.000000   0.000000   0.000000   0.000000   0.000000
    26  O    0.000439  -0.000106  -0.014883   0.033687   0.000048   0.000001
    27  H    0.000118   0.000008   0.004966  -0.005711   0.000002   0.000000
    28  H    0.000014   0.000007   0.001202  -0.002054  -0.000007   0.000000
               7          8          9         10         11         12
     1  C   -0.030492  -0.002040   0.013026  -0.007187  -0.039373  -0.005837
     2  H   -0.004077   0.000337   0.003270  -0.000165   0.005194   0.000247
     3  C    0.007702  -0.001041   0.002014   0.000031   0.588334  -0.030240
     4  H   -0.000612   0.000012  -0.000005   0.000014  -0.045068   0.005340
     5  C    0.282557  -0.040142  -0.066440  -0.024476  -0.005520   0.003828
     6  H   -0.025881  -0.001683   0.004022  -0.001907   0.004613   0.000705
     7  C    4.862049   0.415296   0.426487   0.402502   0.001078   0.000050
     8  H    0.415296   0.550992  -0.021942  -0.032052   0.000308   0.000026
     9  H    0.426487  -0.021942   0.534429  -0.020606   0.000043  -0.000002
    10  H    0.402502  -0.032052  -0.020606   0.555240  -0.000346  -0.000035
    11  C    0.001078   0.000308   0.000043  -0.000346   5.105518   0.406494
    12  H    0.000050   0.000026  -0.000002  -0.000035   0.406494   0.499235
    13  C   -0.000025   0.000005   0.000002  -0.000011   0.332004  -0.031907
    14  H   -0.000002   0.000000   0.000000  -0.000001  -0.054772  -0.001294
    15  H   -0.000001  -0.000001   0.000000   0.000001  -0.010568  -0.000957
    16  C    0.000000   0.000000   0.000000   0.000000   0.011850   0.000014
    17  C    0.000000   0.000000   0.000000   0.000000  -0.008195  -0.000053
    18  H    0.000000   0.000000   0.000000   0.000000  -0.000307   0.000002
    19  H    0.000000   0.000000   0.000000   0.000000  -0.000172  -0.000001
    20  H    0.000000   0.000000   0.000000   0.000000   0.002441  -0.000010
    21  O    0.000001   0.000000   0.000000   0.000000  -0.074943   0.002587
    22  O    0.000000   0.000000   0.000000   0.000000   0.000183   0.000013
    23  O    0.000000   0.000000   0.000000   0.000000   0.000000   0.000000
    24  H    0.000000   0.000000   0.000000   0.000000   0.000012   0.000000
    25  H    0.000000   0.000000   0.000000   0.000000   0.000000   0.000000
    26  O   -0.000001   0.000000   0.000000   0.000000  -0.002392  -0.000007
    27  H    0.000000   0.000000   0.000000   0.000000  -0.001112  -0.000017
    28  H    0.000000   0.000000   0.000000   0.000000  -0.000098   0.000002
              13         14         15         16         17         18
     1  C    0.008009  -0.000795   0.001214  -0.000036   0.000027  -0.000002
     2  H   -0.000286   0.000002   0.000013   0.000000  -0.000001   0.000000
     3  C   -0.043911   0.004128  -0.004058  -0.003604   0.002117  -0.000058
     4  H   -0.016172   0.000106   0.000423  -0.000056   0.000189   0.000019
     5  C    0.000950   0.000378  -0.000423  -0.000009   0.000006  -0.000001
     6  H    0.000082   0.000029  -0.000023   0.000000   0.000001   0.000000
     7  C   -0.000025  -0.000002  -0.000001   0.000000   0.000000   0.000000
     8  H    0.000005   0.000000  -0.000001   0.000000   0.000000   0.000000
     9  H    0.000002   0.000000   0.000000   0.000000   0.000000   0.000000
    10  H   -0.000011  -0.000001   0.000001   0.000000   0.000000   0.000000
    11  C    0.332004  -0.054772  -0.010568   0.011850  -0.008195  -0.000307
    12  H   -0.031907  -0.001294  -0.000957   0.000014  -0.000053   0.000002
    13  C    4.748498   0.428087   0.397089  -0.046137   0.010901  -0.008262
    14  H    0.428087   0.576173  -0.049215  -0.014404   0.016180  -0.003077
    15  H    0.397089  -0.049215   0.564648  -0.001185  -0.006212   0.001031
    16  C   -0.046137  -0.014404  -0.001185   4.530271   0.298923  -0.025434
    17  C    0.010901   0.016180  -0.006212   0.298923   5.061365   0.398582
    18  H   -0.008262  -0.003077   0.001031  -0.025434   0.398582   0.490762
    19  H    0.001266   0.000257  -0.000157  -0.020428   0.386944  -0.007065
    20  H    0.002641  -0.004640  -0.000730  -0.025621   0.385864  -0.023255
    21  O    0.237483  -0.035520  -0.034172   0.367280  -0.074569   0.003108
    22  O    0.002750   0.000108   0.000395   0.475625  -0.053936   0.000588
    23  O    0.000031   0.000001  -0.000001  -0.000445  -0.009296  -0.000310
    24  H   -0.000124  -0.000002   0.000008  -0.010197   0.006002   0.000039
    25  H    0.000000   0.000000   0.000000  -0.000278   0.001009  -0.000039
    26  O    0.001238  -0.000013   0.000010   0.002856   0.000655  -0.000001
    27  H    0.000812   0.000010  -0.000026   0.001604   0.000195  -0.000005
    28  H   -0.000105   0.000005   0.000018  -0.002947   0.000471  -0.000047
              19         20         21         22         23         24
     1  C    0.000000   0.000004   0.001095  -0.000007   0.000000   0.000000
     2  H    0.000000   0.000000   0.000047   0.000000   0.000000   0.000000
     3  C    0.000017  -0.000093   0.020557  -0.000473   0.000000  -0.000004
     4  H   -0.000005  -0.000035  -0.001379   0.000520   0.000000  -0.000003
     5  C    0.000000   0.000000  -0.000004   0.000000   0.000000   0.000000
     6  H    0.000000   0.000000   0.000012   0.000000   0.000000   0.000000
     7  C    0.000000   0.000000   0.000001   0.000000   0.000000   0.000000
     8  H    0.000000   0.000000   0.000000   0.000000   0.000000   0.000000
     9  H    0.000000   0.000000   0.000000   0.000000   0.000000   0.000000
    10  H    0.000000   0.000000   0.000000   0.000000   0.000000   0.000000
    11  C   -0.000172   0.002441  -0.074943   0.000183   0.000000   0.000012
    12  H   -0.000001  -0.000010   0.002587   0.000013   0.000000   0.000000
    13  C    0.001266   0.002641   0.237483   0.002750   0.000031  -0.000124
    14  H    0.000257  -0.004640  -0.035520   0.000108   0.000001  -0.000002
    15  H   -0.000157  -0.000730  -0.034172   0.000395  -0.000001   0.000008
    16  C   -0.020428  -0.025621   0.367280   0.475625  -0.000445  -0.010197
    17  C    0.386944   0.385864  -0.074569  -0.053936  -0.009296   0.006002
    18  H   -0.007065  -0.023255   0.003108   0.000588  -0.000310   0.000039
    19  H    0.464153  -0.012425   0.002909  -0.001586   0.021327  -0.007479
    20  H   -0.012425   0.513410   0.002066   0.001387   0.000458  -0.000254
    21  O    0.002909   0.002066   7.925881  -0.097470  -0.000017   0.000047
    22  O   -0.001586   0.001387  -0.097470   8.149878  -0.016964   0.024880
    23  O    0.021327   0.000458  -0.000017  -0.016964   8.085753   0.307191
    24  H   -0.007479  -0.000254   0.000047   0.024880   0.307191   0.354095
    25  H   -0.001211   0.000008   0.000004   0.001277   0.305676  -0.019342
    26  O   -0.000009  -0.000002  -0.001351  -0.016248  -0.000004   0.000029
    27  H    0.000000  -0.000002   0.000769   0.000912   0.000000  -0.000006
    28  H   -0.000001  -0.000028   0.001406   0.027853   0.000033   0.000357
              25         26         27         28
     1  C    0.000000   0.000439   0.000118   0.000014
     2  H    0.000000  -0.000106   0.000008   0.000007
     3  C    0.000000  -0.014883   0.004966   0.001202
     4  H    0.000000   0.033687  -0.005711  -0.002054
     5  C    0.000000   0.000048   0.000002  -0.000007
     6  H    0.000000   0.000001   0.000000   0.000000
     7  C    0.000000  -0.000001   0.000000   0.000000
     8  H    0.000000   0.000000   0.000000   0.000000
     9  H    0.000000   0.000000   0.000000   0.000000
    10  H    0.000000   0.000000   0.000000   0.000000
    11  C    0.000000  -0.002392  -0.001112  -0.000098
    12  H    0.000000  -0.000007  -0.000017   0.000002
    13  C    0.000000   0.001238   0.000812  -0.000105
    14  H    0.000000  -0.000013   0.000010   0.000005
    15  H    0.000000   0.000010  -0.000026   0.000018
    16  C   -0.000278   0.002856   0.001604  -0.002947
    17  C    0.001009   0.000655   0.000195   0.000471
    18  H   -0.000039  -0.000001  -0.000005  -0.000047
    19  H   -0.001211  -0.000009   0.000000  -0.000001
    20  H    0.000008  -0.000002  -0.000002  -0.000028
    21  O    0.000004  -0.001351   0.000769   0.001406
    22  O    0.001277  -0.016248   0.000912   0.027853
    23  O    0.305676  -0.000004   0.000000   0.000033
    24  H   -0.019342   0.000029  -0.000006   0.000357
    25  H    0.379131   0.000001   0.000000  -0.000018
    26  O    0.000001   8.031486   0.309822   0.331433
    27  H    0.000000   0.309822   0.389697  -0.030770
    28  H   -0.000018   0.331433  -0.030770   0.329590
 Mulliken charges:
               1
     1  C   -0.203769
     2  H    0.138415
     3  C   -0.116452
     4  H    0.136713
     5  C   -0.118075
     6  H    0.133613
     7  C   -0.336634
     8  H    0.131923
     9  H    0.125700
    10  H    0.128996
    11  C   -0.215206
    12  H    0.151815
    13  C   -0.024910
    14  H    0.138272
    15  H    0.142878
    16  C    0.462357
    17  C   -0.417170
    18  H    0.173731
    19  H    0.173664
    20  H    0.158817
    21  O   -0.245828
    22  O   -0.499685
    23  O   -0.693432
    24  H    0.344754
    25  H    0.333782
    26  O   -0.676687
    27  H    0.328734
    28  H    0.343684
 Sum of Mulliken charges =   0.00000
 Mulliken charges with hydrogens summed into heavy atoms:
               1
     1  C   -0.065354
     3  C    0.020261
     5  C    0.015538
     7  C    0.049986
    11  C   -0.063392
    13  C    0.256240
    16  C    0.462357
    17  C    0.089042
    21  O   -0.245828
    22  O   -0.499685
    23  O   -0.014896
    26  O   -0.004269
 Electronic spatial extent (au):  <R**2>=           4502.9808
 Charge=              0.0000 electrons
 Dipole moment (field-independent basis, Debye):
    X=             -3.6534    Y=             -6.1148    Z=             -0.2512  Tot=              7.1275
 Quadrupole moment (field-independent basis, Debye-Ang):
   XX=            -81.3474   YY=            -77.2147   ZZ=            -72.5755
   XY=             -4.6340   XZ=             -9.4432   YZ=             -0.4505
 Traceless Quadrupole moment (field-independent basis, Debye-Ang):
   XX=             -4.3015   YY=             -0.1688   ZZ=              4.4704
   XY=             -4.6340   XZ=             -9.4432   YZ=             -0.4505
 Octapole moment (field-independent basis, Debye-Ang**2):
  XXX=            -92.8401  YYY=            -48.7137  ZZZ=              2.7293  XYY=             10.0180
  XXY=             19.0415  XXZ=            -47.9624  XZZ=             18.9723  YZZ=              4.3303
  YYZ=              5.6562  XYZ=             -2.2877
 Hexadecapole moment (field-independent basis, Debye-Ang**3):
 XXXX=          -5104.5601 YYYY=           -931.1830 ZZZZ=           -118.9694 XXXY=            188.6295
 XXXZ=           -339.1336 YYYX=            -33.9425 YYYZ=             14.1451 ZZZX=            -12.8704
 ZZZY=              0.7595 XXYY=           -889.5383 XXZZ=           -822.5753 YYZZ=           -138.3813
 XXYZ=            -68.0733 YYXZ=             -9.4979 ZZXY=             -1.2265
 N-N= 6.863335046995D+02 E-N=-2.812490810430D+03  KE= 6.126356845299D+02
 1\1\GINC-D10S7B1\FOpt\RwB97XD\def2TZVP\C8H16O4\PMMASS\23-Feb-2022\0\\#
 n wB97XD/Def2TZVP scrf(smd,solvent=toluene) opt\\diene diels-alder tol
 uene 2 h2o - opt\\0,1\C,-3.3057350073,0.4784523594,-0.3746789406\H,-3.
 5277722381,1.2828736709,-1.0717508951\C,-1.8915735129,0.1158074585,-0.
 248846391\H,-1.1743782169,0.9223313802,-0.3678379187\C,-4.305124406,-0
 .0700463511,0.3114209868\H,-4.0741208505,-0.8335992163,1.0507710816\C,
 -5.7445140198,0.2922891726,0.1632147557\H,-6.1605904681,0.6412012271,1
 .112517862\H,-5.8884869562,1.075044366,-0.5830567786\H,-6.3346667629,-
 0.5788925806,-0.1361821356\C,-1.4406367201,-1.1142550209,-0.0267475218
 \H,-2.1337556399,-1.9480426884,0.0370492049\C,-0.0105903866,-1.5052542
 86,0.1297807467\H,0.2836730022,-2.1726010213,-0.6851512988\H,0.1290305
 051,-2.0440392074,1.0724419478\C,2.1301518211,-0.3944585669,0.03370796
 09\C,2.7969954258,-1.7261589176,-0.1088260182\H,2.5434505204,-2.163123
 7094,-1.0771002643\H,3.8739951885,-1.593345523,-0.0516127742\H,2.46685
 18103,-2.4190358326,0.6657329141\O,0.8079559905,-0.3365396651,0.131604
 6656\O,2.7349013505,0.656205027,0.0552286168\O,5.593937744,0.356874399
 3,0.1500368947\H,4.6557189321,0.5943414555,0.1347550265\H,6.0038088875
 ,0.9064627553,-0.5192374774\O,0.8995334507,2.9648113096,0.1853687136\H
 ,0.3024279809,2.6839344368,0.8805589432\H,1.5332625757,2.2383335684,0.
 1072680932\\Version=ES64L-G09RevD.01\State=1-A\HF=-615.431888\RMSD=4.9
 14e-09\RMSF=6.547e-06\Dipole=-1.4501707,-2.3952124,-0.1526578\Quadrupo
 le=-3.2425208,-0.0737587,3.3162795,-3.2680107,-7.0950805,-0.3733374\PG
 =C01 [X(C8H16O4)]\\@


 IT IS UNWORTHY OF EXCELLENT MEN TO LOSE HOURS LIKE SLAVES IN THE LABOR
 OF CALCULATION WHICH COULD BE SAFELY RELEGATED TO ANYONE ELSE
 IF A MACHINE WERE USED.
    -- G.W. VON LEIBNIZ
 Job cpu time:       0 days 22 hours 37 minutes 49.8 seconds.
 File lengths (MBytes):  RWF=    297 Int=      0 D2E=      0 Chk=     18 Scr=      1
 Normal termination of Gaussian 09 at Wed Feb 23 19:48:16 2022.
