 Entering Gaussian System, Link 0=g09
 Input=dieneophile_water3.com
 Output=dieneophile_water3.log
 Initial command:
 /apps/applications/gaussian/G09.D01/2/default/g09/l1.exe "/nobackup/pmmass/Temp/Gau-173532.inp" -scrdir="/nobackup/pmmass/Temp/"
 Entering Link 1 = /apps/applications/gaussian/G09.D01/2/default/g09/l1.exe PID=    173533.
  
 Copyright (c) 1988,1990,1992,1993,1995,1998,2003,2009,2013,
            Gaussian, Inc.  All Rights Reserved.
  
 This is part of the Gaussian(R) 09 program.  It is based on
 the Gaussian(R) 03 system (copyright 2003, Gaussian, Inc.),
 the Gaussian(R) 98 system (copyright 1998, Gaussian, Inc.),
 the Gaussian(R) 94 system (copyright 1995, Gaussian, Inc.),
 the Gaussian 92(TM) system (copyright 1992, Gaussian, Inc.),
 the Gaussian 90(TM) system (copyright 1990, Gaussian, Inc.),
 the Gaussian 88(TM) system (copyright 1988, Gaussian, Inc.),
 the Gaussian 86(TM) system (copyright 1986, Carnegie Mellon
 University), and the Gaussian 82(TM) system (copyright 1983,
 Carnegie Mellon University). Gaussian is a federally registered
 trademark of Gaussian, Inc.
  
 This software contains proprietary and confidential information,
 including trade secrets, belonging to Gaussian, Inc.
  
 This software is provided under written license and may be
 used, copied, transmitted, or stored only in accord with that
 written license.
  
 The following legend is applicable only to US Government
 contracts under FAR:
  
                    RESTRICTED RIGHTS LEGEND
  
 Use, reproduction and disclosure by the US Government is
 subject to restrictions as set forth in subparagraphs (a)
 and (c) of the Commercial Computer Software - Restricted
 Rights clause in FAR 52.227-19.
  
 Gaussian, Inc.
 340 Quinnipiac St., Bldg. 40, Wallingford CT 06492
  
  
 ---------------------------------------------------------------
 Warning -- This program may not be used in any manner that
 competes with the business of Gaussian, Inc. or will provide
 assistance to any competitor of Gaussian, Inc.  The licensee
 of this program is prohibited from giving any competitor of
 Gaussian, Inc. access to this program.  By using this program,
 the user acknowledges that Gaussian, Inc. is engaged in the
 business of creating and licensing software in the field of
 computational chemistry and represents and warrants to the
 licensee that it is not a competitor of Gaussian, Inc. and that
 it will not use this program in any manner prohibited above.
 ---------------------------------------------------------------
  

 Cite this work as:
 Gaussian 09, Revision D.01,
 M. J. Frisch, G. W. Trucks, H. B. Schlegel, G. E. Scuseria, 
 M. A. Robb, J. R. Cheeseman, G. Scalmani, V. Barone, B. Mennucci, 
 G. A. Petersson, H. Nakatsuji, M. Caricato, X. Li, H. P. Hratchian, 
 A. F. Izmaylov, J. Bloino, G. Zheng, J. L. Sonnenberg, M. Hada, 
 M. Ehara, K. Toyota, R. Fukuda, J. Hasegawa, M. Ishida, T. Nakajima, 
 Y. Honda, O. Kitao, H. Nakai, T. Vreven, J. A. Montgomery, Jr., 
 J. E. Peralta, F. Ogliaro, M. Bearpark, J. J. Heyd, E. Brothers, 
 K. N. Kudin, V. N. Staroverov, T. Keith, R. Kobayashi, J. Normand, 
 K. Raghavachari, A. Rendell, J. C. Burant, S. S. Iyengar, J. Tomasi, 
 M. Cossi, N. Rega, J. M. Millam, M. Klene, J. E. Knox, J. B. Cross, 
 V. Bakken, C. Adamo, J. Jaramillo, R. Gomperts, R. E. Stratmann, 
 O. Yazyev, A. J. Austin, R. Cammi, C. Pomelli, J. W. Ochterski, 
 R. L. Martin, K. Morokuma, V. G. Zakrzewski, G. A. Voth, 
 P. Salvador, J. J. Dannenberg, S. Dapprich, A. D. Daniels, 
 O. Farkas, J. B. Foresman, J. V. Ortiz, J. Cioslowski, 
 and D. J. Fox, Gaussian, Inc., Wallingford CT, 2013.
 
 ******************************************
 Gaussian 09:  ES64L-G09RevD.01 24-Apr-2013
                 2-Mar-2022 
 ******************************************
 %nprocshared=8
 Will use up to    8 processors via shared memory.
 %mem=4GB
 %NoSave
 %chk="dieneophile_water3.chk"
 ---------------------------------------------------------------------
 #n wB97XD/Def2TZVP scrf(smd,solvent=toluene) opt int=(grid=ultrafine)
 ---------------------------------------------------------------------
 1/14=-1,18=20,19=15,26=4,38=1/1,3;
 2/9=110,12=2,17=6,18=5,40=1/2;
 3/5=44,7=101,11=2,16=1,25=1,30=1,70=32201,71=1,72=13,74=-58,75=-5/1,2,3;
 4//1;
 5/5=2,38=5,53=13/2;
 6/7=2,8=2,9=2,10=2,28=1/1;
 7//1,2,3,16;
 1/14=-1,18=20,19=15,26=4/3(2);
 2/9=110/2;
 99//99;
 2/9=110/2;
 3/5=44,7=101,11=2,16=1,25=1,30=1,70=32205,71=1,72=13,74=-58,75=-5/1,2,3;
 4/5=5,16=3,69=1/1;
 5/5=2,38=5,53=13/2;
 7//1,2,3,16;
 1/14=-1,18=20,19=15,26=4/3(-5);
 2/9=110/2;
 6/7=2,8=2,9=2,10=2,19=2,28=1/1;
 99/9=1/99;
 -------------------------------------------
 dieneophile diels-alder toluene 2 h2o - opt
 -------------------------------------------
 Symbolic Z-matrix:
 Charge =  0 Multiplicity = 1
 C                     1.13172   0.2903    0.06277 
 C                     0.65969  -1.13465   0.07423 
 C                    -0.66757  -1.13001   0.09723 
 C                    -1.13319   0.2976    0.10364 
 H                     1.34828  -1.96977   0.06375 
 H                    -1.3621   -1.9602    0.11026 
 C                     0.02116   2.53731   0.07865 
 H                    -1.00862   2.88511   0.15845 
 H                     0.59879   2.90897   0.92727 
 H                     0.46075   2.90931  -0.84937 
 N                     0.00297   1.08782   0.08437 
 O                    -2.27048   0.71296   0.12229 
 O                     2.2689    0.70706   0.03902 
 O                    -3.93439  -1.62065   0.02838 
 H                    -4.89081  -1.51418   0.02623 
 H                    -3.56739  -0.72311   0.07185 
 O                     3.91937  -1.63607   0.07703 
 H                     3.55808  -0.73525   0.05709 
 H                     4.87607  -1.53692   0.04623 
 
 Add virtual bond connecting atoms H18        and O13        Dist= 3.66D+00.
 Add virtual bond connecting atoms H16        and O12        Dist= 3.66D+00.

 GradGradGradGradGradGradGradGradGradGradGradGradGradGradGradGradGradGrad
 Berny optimization.
 Initialization pass.
                           ----------------------------
                           !    Initial Parameters    !
                           ! (Angstroms and Degrees)  !
 --------------------------                            --------------------------
 ! Name  Definition              Value          Derivative Info.                !
 --------------------------------------------------------------------------------
 ! R1    R(1,2)                  1.5011         estimate D2E/DX2                !
 ! R2    R(1,11)                 1.3822         estimate D2E/DX2                !
 ! R3    R(1,13)                 1.2114         estimate D2E/DX2                !
 ! R4    R(2,3)                  1.3275         estimate D2E/DX2                !
 ! R5    R(2,5)                  1.0824         estimate D2E/DX2                !
 ! R6    R(3,4)                  1.5016         estimate D2E/DX2                !
 ! R7    R(3,6)                  1.0825         estimate D2E/DX2                !
 ! R8    R(4,11)                 1.3841         estimate D2E/DX2                !
 ! R9    R(4,12)                 1.2109         estimate D2E/DX2                !
 ! R10   R(7,8)                  1.0899         estimate D2E/DX2                !
 ! R11   R(7,9)                  1.0918         estimate D2E/DX2                !
 ! R12   R(7,10)                 1.0922         estimate D2E/DX2                !
 ! R13   R(7,11)                 1.4496         estimate D2E/DX2                !
 ! R14   R(12,16)                1.9357         estimate D2E/DX2                !
 ! R15   R(13,18)                1.9346         estimate D2E/DX2                !
 ! R16   R(14,15)                0.9623         estimate D2E/DX2                !
 ! R17   R(14,16)                0.9706         estimate D2E/DX2                !
 ! R18   R(17,18)                0.9708         estimate D2E/DX2                !
 ! R19   R(17,19)                0.9623         estimate D2E/DX2                !
 ! A1    A(2,1,11)             106.9054         estimate D2E/DX2                !
 ! A2    A(2,1,13)             128.456          estimate D2E/DX2                !
 ! A3    A(11,1,13)            124.6386         estimate D2E/DX2                !
 ! A4    A(1,2,3)              108.1323         estimate D2E/DX2                !
 ! A5    A(1,2,5)              122.1573         estimate D2E/DX2                !
 ! A6    A(3,2,5)              129.7104         estimate D2E/DX2                !
 ! A7    A(2,3,4)              108.2657         estimate D2E/DX2                !
 ! A8    A(2,3,6)              129.7202         estimate D2E/DX2                !
 ! A9    A(4,3,6)              122.0141         estimate D2E/DX2                !
 ! A10   A(3,4,11)             106.75           estimate D2E/DX2                !
 ! A11   A(3,4,12)             128.1261         estimate D2E/DX2                !
 ! A12   A(11,4,12)            125.1239         estimate D2E/DX2                !
 ! A13   A(8,7,9)              109.534          estimate D2E/DX2                !
 ! A14   A(8,7,10)             109.5011         estimate D2E/DX2                !
 ! A15   A(8,7,11)             107.8757         estimate D2E/DX2                !
 ! A16   A(9,7,10)             109.3639         estimate D2E/DX2                !
 ! A17   A(9,7,11)             110.1186         estimate D2E/DX2                !
 ! A18   A(10,7,11)            110.4249         estimate D2E/DX2                !
 ! A19   A(1,11,4)             109.9462         estimate D2E/DX2                !
 ! A20   A(1,11,7)             124.5148         estimate D2E/DX2                !
 ! A21   A(4,11,7)             125.5379         estimate D2E/DX2                !
 ! A22   A(4,12,16)            111.9865         estimate D2E/DX2                !
 ! A23   A(1,13,18)            111.6475         estimate D2E/DX2                !
 ! A24   A(15,14,16)           105.8769         estimate D2E/DX2                !
 ! A25   A(12,16,14)           160.1382         estimate D2E/DX2                !
 ! A26   A(18,17,19)           105.8863         estimate D2E/DX2                !
 ! A27   A(13,18,17)           160.0549         estimate D2E/DX2                !
 ! D1    D(11,1,2,3)             0.1674         estimate D2E/DX2                !
 ! D2    D(11,1,2,5)          -179.8615         estimate D2E/DX2                !
 ! D3    D(13,1,2,3)          -179.8142         estimate D2E/DX2                !
 ! D4    D(13,1,2,5)             0.1569         estimate D2E/DX2                !
 ! D5    D(2,1,11,4)            -0.2056         estimate D2E/DX2                !
 ! D6    D(2,1,11,7)          -179.8392         estimate D2E/DX2                !
 ! D7    D(13,1,11,4)          179.7769         estimate D2E/DX2                !
 ! D8    D(13,1,11,7)            0.1433         estimate D2E/DX2                !
 ! D9    D(2,1,13,18)           -1.3555         estimate D2E/DX2                !
 ! D10   D(11,1,13,18)         178.6659         estimate D2E/DX2                !
 ! D11   D(1,2,3,4)             -0.0651         estimate D2E/DX2                !
 ! D12   D(1,2,3,6)            179.9367         estimate D2E/DX2                !
 ! D13   D(5,2,3,4)            179.9667         estimate D2E/DX2                !
 ! D14   D(5,2,3,6)             -0.0315         estimate D2E/DX2                !
 ! D15   D(2,3,4,11)            -0.058          estimate D2E/DX2                !
 ! D16   D(2,3,4,12)           179.9651         estimate D2E/DX2                !
 ! D17   D(6,3,4,11)           179.9404         estimate D2E/DX2                !
 ! D18   D(6,3,4,12)            -0.0365         estimate D2E/DX2                !
 ! D19   D(3,4,11,1)             0.1675         estimate D2E/DX2                !
 ! D20   D(3,4,11,7)           179.7964         estimate D2E/DX2                !
 ! D21   D(12,4,11,1)         -179.8548         estimate D2E/DX2                !
 ! D22   D(12,4,11,7)           -0.2258         estimate D2E/DX2                !
 ! D23   D(3,4,12,16)           -2.3488         estimate D2E/DX2                !
 ! D24   D(11,4,12,16)         177.6784         estimate D2E/DX2                !
 ! D25   D(8,7,11,1)          -176.7566         estimate D2E/DX2                !
 ! D26   D(8,7,11,4)             3.6667         estimate D2E/DX2                !
 ! D27   D(9,7,11,1)           -57.2646         estimate D2E/DX2                !
 ! D28   D(9,7,11,4)           123.1587         estimate D2E/DX2                !
 ! D29   D(10,7,11,1)           63.6136         estimate D2E/DX2                !
 ! D30   D(10,7,11,4)         -115.9631         estimate D2E/DX2                !
 ! D31   D(4,12,16,14)          -1.8674         estimate D2E/DX2                !
 ! D32   D(1,13,18,17)          -0.5545         estimate D2E/DX2                !
 ! D33   D(15,14,16,12)       -177.8849         estimate D2E/DX2                !
 ! D34   D(19,17,18,13)        179.4322         estimate D2E/DX2                !
 --------------------------------------------------------------------------------
 Trust Radius=3.00D-01 FncErr=1.00D-07 GrdErr=1.00D-06
 Number of steps in this run=     90 maximum allowed number of steps=    114.
 GradGradGradGradGradGradGradGradGradGradGradGradGradGradGradGradGradGrad

                          Input orientation:                          
 ---------------------------------------------------------------------
 Center     Atomic      Atomic             Coordinates (Angstroms)
 Number     Number       Type             X           Y           Z
 ---------------------------------------------------------------------
      1          6           0        1.131720    0.290300    0.062770
      2          6           0        0.659690   -1.134650    0.074230
      3          6           0       -0.667570   -1.130010    0.097230
      4          6           0       -1.133190    0.297600    0.103640
      5          1           0        1.348280   -1.969770    0.063750
      6          1           0       -1.362100   -1.960200    0.110260
      7          6           0        0.021160    2.537310    0.078650
      8          1           0       -1.008620    2.885110    0.158450
      9          1           0        0.598790    2.908970    0.927270
     10          1           0        0.460750    2.909310   -0.849370
     11          7           0        0.002970    1.087820    0.084370
     12          8           0       -2.270480    0.712960    0.122290
     13          8           0        2.268900    0.707060    0.039020
     14          8           0       -3.934390   -1.620650    0.028380
     15          1           0       -4.890810   -1.514180    0.026230
     16          1           0       -3.567390   -0.723110    0.071850
     17          8           0        3.919370   -1.636070    0.077030
     18          1           0        3.558080   -0.735250    0.057090
     19          1           0        4.876070   -1.536920    0.046230
 ---------------------------------------------------------------------
                    Distance matrix (angstroms):
                    1          2          3          4          5
     1  C    0.000000
     2  C    1.501142   0.000000
     3  C    2.292578   1.327467   0.000000
     4  C    2.265290   2.294913   1.501637   0.000000
     5  H    2.270422   1.082447   2.184026   3.361585   0.000000
     6  H    3.359486   2.184140   1.082477   2.269384   2.710796
     7  C    2.506521   3.727067   3.731478   2.519811   4.698429
     8  H    3.365004   4.353024   4.030044   2.591087   5.397574
     9  H    2.808702   4.133068   4.313467   3.239965   5.010939
    10  H    2.853316   4.152858   4.299449   3.204669   5.042511
    11  N    1.382238   2.317489   2.317015   1.384080   3.340530
    12  O    3.428870   3.464371   2.442639   1.210909   4.505096
    13  O    1.211376   2.445954   3.464256   3.427251   2.830825
    14  O    5.414645   4.619943   3.304176   3.395890   5.294312
    15  H    6.287158   5.563668   4.241271   4.172319   6.255814
    16  H    4.807153   4.247067   2.928339   2.639733   5.071296
    17  O    3.388524   3.298021   4.614816   5.410005   2.592689
    18  H    2.634200   2.925830   4.244239   4.803848   2.531265
    19  H    4.166433   4.235619   5.558788   6.283308   3.554289
                    6          7          8          9         10
     6  H    0.000000
     7  C    4.705529   0.000000
     8  H    4.858426   1.089853   0.000000
     9  H    5.312383   1.091762   1.781971   0.000000
    10  H    5.287324   1.092174   1.781947   1.781995   0.000000
    11  N    3.339837   1.449615   2.063747   2.093339   2.097441
    12  O    2.823311   2.929466   2.512336   3.701778   3.636990
    13  O    4.505942   2.898917   3.937042   2.902872   2.984719
    14  O    2.595896   5.739123   5.373911   6.471104   6.372459
    15  H    3.557779   6.367477   5.868785   7.107168   6.998081
    16  H    2.528868   4.848513   4.424258   5.592924   5.501730
    17  O    5.291511   5.710792   6.688257   5.692675   5.786255
    18  H    5.070651   4.818705   5.828553   4.774406   4.868053
    19  H    6.252842   6.338024   7.361829   6.231957   6.329780
                   11         12         13         14         15
    11  N    0.000000
    12  O    2.304459   0.000000
    13  O    2.298146   4.540148   0.000000
    14  O    4.779304   2.867604   6.625644   0.000000
    15  H    5.542821   3.440278   7.496367   0.962330   0.000000
    16  H    4.003385   1.935670   6.009055   0.970648   1.542502
    17  O    4.770516   6.620743   2.866314   7.853926   8.811170
    18  H    3.995389   6.006136   1.934572   7.544658   8.484776
    19  H    5.535144   7.492725   3.439889   8.810876   9.766927
                   16         17         18         19
    16  H    0.000000
    17  O    7.542221   0.000000
    18  H    7.125496   0.970775   0.000000
    19  H    8.482627   0.962317   1.542689   0.000000
 Stoichiometry    C5H9NO4
 Framework group  C1[X(C5H9NO4)]
 Deg. of freedom    51
 Full point group                 C1      NOp   1
 Largest Abelian subgroup         C1      NOp   1
 Largest concise Abelian subgroup C1      NOp   1
                         Standard orientation:                         
 ---------------------------------------------------------------------
 Center     Atomic      Atomic             Coordinates (Angstroms)
 Number     Number       Type             X           Y           Z
 ---------------------------------------------------------------------
      1          6           0       -1.132071    0.311483    0.012660
      2          6           0       -0.660119   -1.113420   -0.005689
      3          6           0        0.667160   -1.108750   -0.027522
      4          6           0        1.132874    0.318843   -0.026221
      5          1           0       -1.348769   -1.948538   -0.000078
      6          1           0        1.361650   -1.938909   -0.044204
      7          6           0       -0.021359    2.558472    0.009241
      8          1           0        1.008511    2.906608   -0.067890
      9          1           0       -0.598235    2.934510   -0.837962
     10          1           0       -0.461726    2.925745    0.938775
     11          7           0       -0.003254    1.109029   -0.003884
     12          8           0        2.270205    0.734218   -0.041765
     13          8           0       -2.269245    0.728191    0.037564
     14          8           0        3.933890   -1.599952    0.041629
     15          1           0        4.890314   -1.493558    0.045148
     16          1           0        3.566983   -0.702177    0.002439
     17          8           0       -3.919826   -1.614604   -0.013863
     18          1           0       -3.558498   -0.713922    0.011000
     19          1           0       -4.876546   -1.515550    0.016620
 ---------------------------------------------------------------------
 Rotational constants (GHZ):      1.8840119      0.6478291      0.4836423
 Standard basis: def2TZVP (5D, 7F)
 There are   414 symmetry adapted cartesian basis functions of A   symmetry.
 There are   364 symmetry adapted basis functions of A   symmetry.
   364 basis functions,   582 primitive gaussians,   414 cartesian basis functions
    39 alpha electrons       39 beta electrons
       nuclear repulsion energy       525.6210317950 Hartrees.
 NAtoms=   19 NActive=   19 NUniq=   19 SFac= 1.00D+00 NAtFMM=   60 NAOKFM=F Big=F
 Integral buffers will be    131072 words long.
 Raffenetti 2 integral format.
 Two-electron integral symmetry is turned on.
 Nuclear repulsion after empirical dispersion term =      525.6126092571 Hartrees.
 ------------------------------------------------------------------------------
 Polarizable Continuum Model (PCM)
 =================================
 Model                : PCM (using non-symmetric T matrix).
 Atomic radii         : SMD-Coulomb.
 Polarization charges : Total charges.
 Charge compensation  : None.
 Solution method      : On-the-fly selection.
 Cavity type          : VdW (van der Waals Surface) (Alpha=1.000).
 Cavity algorithm     : GePol (No added spheres)
                        Default sphere list used, NSphG=   19.
                        Lebedev-Laikov grids with approx.  5.0 points / Ang**2.
                        Smoothing algorithm: Karplus/York (Gamma=1.0000).
                        Polarization charges: spherical gaussians, with
                                              point-specific exponents (IZeta= 3).
                        Self-potential: point-specific (ISelfS= 7).
                        Self-field    : sphere-specific E.n sum rule (ISelfD= 2).
 1st derivatives      : Analytical E(r).r(x)/FMM algorithm (CHGder, D1EAlg=3).
                        Cavity 1st derivative terms included.
 Solvent              : Toluene, Eps=   2.374100 Eps(inf)=   2.238315
 ------------------------------------------------------------------------------
 Spheres list:
 ISph  on   Nord     Re0    Alpha      Xe            Ye            Ze
    1   C      1    1.8500  1.000     -1.132071      0.311483      0.012660
    2   C      2    1.8500  1.000     -0.660119     -1.113420     -0.005689
    3   C      3    1.8500  1.000      0.667160     -1.108750     -0.027522
    4   C      4    1.8500  1.000      1.132874      0.318843     -0.026221
    5   H      5    1.2000  1.000     -1.348769     -1.948538     -0.000078
    6   H      6    1.2000  1.000      1.361650     -1.938909     -0.044204
    7   C      7    1.8500  1.000     -0.021359      2.558472      0.009241
    8   H      8    1.2000  1.000      1.008511      2.906608     -0.067890
    9   H      9    1.2000  1.000     -0.598235      2.934510     -0.837962
   10   H     10    1.2000  1.000     -0.461726      2.925745      0.938775
   11   N     11    1.8900  1.000     -0.003254      1.109029     -0.003884
   12   O     12    2.2940  1.000      2.270205      0.734218     -0.041765
   13   O     13    2.2940  1.000     -2.269245      0.728191      0.037564
   14   O     14    2.2940  1.000      3.933890     -1.599952      0.041629
   15   H     15    1.2000  1.000      4.890314     -1.493558      0.045148
   16   H     16    1.2000  1.000      3.566983     -0.702177      0.002439
   17   O     17    2.2940  1.000     -3.919826     -1.614604     -0.013863
   18   H     18    1.2000  1.000     -3.558498     -0.713922      0.011000
   19   H     19    1.2000  1.000     -4.876546     -1.515550      0.016620
 ------------------------------------------------------------------------------
 ------------------------------------------------------------------------------
 Atomic radii for non-electrostatic terms: SMD-CDS.
 ------------------------------------------------------------------------------
 Nuclear repulsion after PCM non-electrostatic terms =      525.6058381670 Hartrees.
 One-electron integrals computed using PRISM.
   1 Symmetry operations used in ECPInt.
 ECPInt:  NShTT=   10731 NPrTT=   32632 LenC2=    9836 LenP2D=   22749.
 LDataN:  DoStor=T MaxTD1= 6 Len=  172
 NBasis=   364 RedAO= T EigKep=  3.90D-05  NBF=   364
 NBsUse=   364 1.00D-06 EigRej= -1.00D+00 NBFU=   364
 ExpMin= 9.52D-02 ExpMax= 2.70D+04 ExpMxC= 9.22D+02 IAcc=3 IRadAn=         5 AccDes= 0.00D+00
 Harris functional with IExCor= 4639 and IRadAn=       5 diagonalized for initial guess.
 HarFok:  IExCor= 4639 AccDes= 0.00D+00 IRadAn=         5 IDoV= 1 UseB2=F ITyADJ=14
 ICtDFT=  3500011 ScaDFX=  1.000000  1.000000  1.000000  1.000000
 FoFCou: FMM=F IPFlag=           0 FMFlag=      100000 FMFlg1=           0
         NFxFlg=           0 DoJE=T BraDBF=F KetDBF=T FulRan=T
         wScrn=  0.000000 ICntrl=     500 IOpCl=  0 I1Cent=   200000004 NGrid=           0
         NMat0=    1 NMatS0=      1 NMatT0=    0 NMatD0=    1 NMtDS0=    0 NMtDT0=    0
 Petite list used in FoFCou.
 Requested convergence on RMS density matrix=1.00D-08 within 128 cycles.
 Requested convergence on MAX density matrix=1.00D-06.
 Requested convergence on             energy=1.00D-06.
 No special actions if energy rises.
 Inv3:  Mode=1 IEnd=     9526572.
 Iteration    1 A*A^-1 deviation from unit magnitude is 3.55D-15 for    997.
 Iteration    1 A*A^-1 deviation from orthogonality  is 1.47D-15 for    443    403.
 Iteration    1 A^-1*A deviation from unit magnitude is 3.55D-15 for    492.
 Iteration    1 A^-1*A deviation from orthogonality  is 3.95D-14 for    220    179.
 Error on total polarization charges =  0.00774
 SCF Done:  E(RwB97XD) =  -551.680317313     A.U. after   12 cycles
            NFock= 12  Conv=0.93D-08     -V/T= 2.0044
 SMD-CDS (non-electrostatic) energy       (kcal/mol) =      -4.25
 (included in total energy above)

 **********************************************************************

            Population analysis using the SCF density.

 **********************************************************************

 Orbital symmetries:
       Occupied  (A) (A) (A) (A) (A) (A) (A) (A) (A) (A) (A) (A)
                 (A) (A) (A) (A) (A) (A) (A) (A) (A) (A) (A) (A)
                 (A) (A) (A) (A) (A) (A) (A) (A) (A) (A) (A) (A)
                 (A) (A) (A)
       Virtual   (A) (A) (A) (A) (A) (A) (A) (A) (A) (A) (A) (A)
                 (A) (A) (A) (A) (A) (A) (A) (A) (A) (A) (A) (A)
                 (A) (A) (A) (A) (A) (A) (A) (A) (A) (A) (A) (A)
                 (A) (A) (A) (A) (A) (A) (A) (A) (A) (A) (A) (A)
                 (A) (A) (A) (A) (A) (A) (A) (A) (A) (A) (A) (A)
                 (A) (A) (A) (A) (A) (A) (A) (A) (A) (A) (A) (A)
                 (A) (A) (A) (A) (A) (A) (A) (A) (A) (A) (A) (A)
                 (A) (A) (A) (A) (A) (A) (A) (A) (A) (A) (A) (A)
                 (A) (A) (A) (A) (A) (A) (A) (A) (A) (A) (A) (A)
                 (A) (A) (A) (A) (A) (A) (A) (A) (A) (A) (A) (A)
                 (A) (A) (A) (A) (A) (A) (A) (A) (A) (A) (A) (A)
                 (A) (A) (A) (A) (A) (A) (A) (A) (A) (A) (A) (A)
                 (A) (A) (A) (A) (A) (A) (A) (A) (A) (A) (A) (A)
                 (A) (A) (A) (A) (A) (A) (A) (A) (A) (A) (A) (A)
                 (A) (A) (A) (A) (A) (A) (A) (A) (A) (A) (A) (A)
                 (A) (A) (A) (A) (A) (A) (A) (A) (A) (A) (A) (A)
                 (A) (A) (A) (A) (A) (A) (A) (A) (A) (A) (A) (A)
                 (A) (A) (A) (A) (A) (A) (A) (A) (A) (A) (A) (A)
                 (A) (A) (A) (A) (A) (A) (A) (A) (A) (A) (A) (A)
                 (A) (A) (A) (A) (A) (A) (A) (A) (A) (A) (A) (A)
                 (A) (A) (A) (A) (A) (A) (A) (A) (A) (A) (A) (A)
                 (A) (A) (A) (A) (A) (A) (A) (A) (A) (A) (A) (A)
                 (A) (A) (A) (A) (A) (A) (A) (A) (A) (A) (A) (A)
                 (A) (A) (A) (A) (A) (A) (A) (A) (A) (A) (A) (A)
                 (A) (A) (A) (A) (A) (A) (A) (A) (A) (A) (A) (A)
                 (A) (A) (A) (A) (A) (A) (A) (A) (A) (A) (A) (A)
                 (A) (A) (A) (A) (A) (A) (A) (A) (A) (A) (A) (A)
                 (A)
 The electronic state is 1-A.
 Alpha  occ. eigenvalues --  -19.26828 -19.26787 -19.22941 -19.22926 -14.49834
 Alpha  occ. eigenvalues --  -10.42878 -10.42744 -10.32848 -10.32825 -10.32730
 Alpha  occ. eigenvalues --   -1.19945  -1.17990  -1.09299  -1.09203  -1.08351
 Alpha  occ. eigenvalues --   -0.94347  -0.82223  -0.78495  -0.71825  -0.66305
 Alpha  occ. eigenvalues --   -0.61253  -0.60620  -0.60579  -0.59716  -0.56933
 Alpha  occ. eigenvalues --   -0.55037  -0.54118  -0.52705  -0.51359  -0.50728
 Alpha  occ. eigenvalues --   -0.49449  -0.46220  -0.45921  -0.40389  -0.39861
 Alpha  occ. eigenvalues --   -0.38716  -0.38665  -0.37557  -0.36832
 Alpha virt. eigenvalues --   -0.03672   0.11504   0.11712   0.12744   0.12834
 Alpha virt. eigenvalues --    0.13047   0.16258   0.17480   0.18563   0.20375
 Alpha virt. eigenvalues --    0.21030   0.21121   0.21442   0.23393   0.24356
 Alpha virt. eigenvalues --    0.25376   0.27797   0.29150   0.29364   0.31573
 Alpha virt. eigenvalues --    0.32262   0.34102   0.34868   0.36394   0.36619
 Alpha virt. eigenvalues --    0.36680   0.38798   0.40400   0.42555   0.43291
 Alpha virt. eigenvalues --    0.44015   0.44881   0.46335   0.46816   0.48883
 Alpha virt. eigenvalues --    0.49344   0.49613   0.50352   0.51540   0.52766
 Alpha virt. eigenvalues --    0.53217   0.53880   0.54099   0.54332   0.55191
 Alpha virt. eigenvalues --    0.56954   0.57618   0.57859   0.59795   0.59897
 Alpha virt. eigenvalues --    0.62706   0.64110   0.66284   0.66839   0.68129
 Alpha virt. eigenvalues --    0.68660   0.69538   0.70438   0.71761   0.72749
 Alpha virt. eigenvalues --    0.76883   0.77644   0.77694   0.81183   0.82552
 Alpha virt. eigenvalues --    0.84460   0.86007   0.89331   0.89938   0.95929
 Alpha virt. eigenvalues --    0.96100   0.97586   0.98322   0.99121   1.00063
 Alpha virt. eigenvalues --    1.01033   1.03788   1.07079   1.08628   1.09848
 Alpha virt. eigenvalues --    1.10901   1.11822   1.12296   1.16511   1.20115
 Alpha virt. eigenvalues --    1.21773   1.22306   1.25049   1.25332   1.29295
 Alpha virt. eigenvalues --    1.29783   1.32623   1.32722   1.35381   1.38810
 Alpha virt. eigenvalues --    1.40106   1.40212   1.42442   1.44870   1.44960
 Alpha virt. eigenvalues --    1.47751   1.48080   1.50972   1.54137   1.56320
 Alpha virt. eigenvalues --    1.56777   1.58452   1.59553   1.61509   1.62368
 Alpha virt. eigenvalues --    1.62871   1.69424   1.69515   1.70567   1.72658
 Alpha virt. eigenvalues --    1.73976   1.74098   1.75454   1.78167   1.82089
 Alpha virt. eigenvalues --    1.82195   1.84630   1.86363   1.87181   1.88312
 Alpha virt. eigenvalues --    1.95249   1.95459   1.96328   1.97639   1.98201
 Alpha virt. eigenvalues --    2.01433   2.02963   2.04567   2.08269   2.11686
 Alpha virt. eigenvalues --    2.12189   2.15533   2.15901   2.16409   2.17974
 Alpha virt. eigenvalues --    2.19921   2.21212   2.21918   2.22527   2.24749
 Alpha virt. eigenvalues --    2.25836   2.27313   2.30593   2.34492   2.34558
 Alpha virt. eigenvalues --    2.37824   2.38781   2.41348   2.41721   2.43014
 Alpha virt. eigenvalues --    2.47225   2.52740   2.53842   2.53946   2.54878
 Alpha virt. eigenvalues --    2.55622   2.56551   2.57684   2.60982   2.62413
 Alpha virt. eigenvalues --    2.64871   2.65470   2.68402   2.69633   2.71519
 Alpha virt. eigenvalues --    2.72646   2.73311   2.74557   2.74795   2.75153
 Alpha virt. eigenvalues --    2.77425   2.79595   2.80168   2.82736   2.85249
 Alpha virt. eigenvalues --    2.86399   2.89223   2.89396   2.92133   2.95397
 Alpha virt. eigenvalues --    2.97246   2.99441   3.00039   3.02612   3.05657
 Alpha virt. eigenvalues --    3.06363   3.07497   3.08170   3.09071   3.09982
 Alpha virt. eigenvalues --    3.12634   3.14289   3.17279   3.20199   3.20852
 Alpha virt. eigenvalues --    3.21728   3.23359   3.25929   3.26432   3.30381
 Alpha virt. eigenvalues --    3.31649   3.36140   3.37555   3.40193   3.41036
 Alpha virt. eigenvalues --    3.42575   3.43334   3.44050   3.45117   3.53741
 Alpha virt. eigenvalues --    3.54445   3.55702   3.58012   3.58399   3.60155
 Alpha virt. eigenvalues --    3.65241   3.65987   3.68518   3.71917   3.75698
 Alpha virt. eigenvalues --    3.77015   3.77413   3.81406   3.82812   3.94694
 Alpha virt. eigenvalues --    3.95947   3.98631   4.04330   4.06265   4.10087
 Alpha virt. eigenvalues --    4.11453   4.15291   4.15523   4.17430   4.24182
 Alpha virt. eigenvalues --    4.25735   4.28953   4.31742   4.41171   4.42815
 Alpha virt. eigenvalues --    4.45132   4.51482   4.53816   4.61800   4.71691
 Alpha virt. eigenvalues --    4.80547   4.81509   4.82522   4.86507   4.95252
 Alpha virt. eigenvalues --    5.02588   5.07359   5.15270   5.17742   5.18215
 Alpha virt. eigenvalues --    5.20392   5.20487   5.20501   5.23384   5.29991
 Alpha virt. eigenvalues --    5.30229   5.30572   5.30818   5.34601   5.39334
 Alpha virt. eigenvalues --    5.45623   5.48272   5.48349   5.50500   5.50590
 Alpha virt. eigenvalues --    5.59923   5.60009   5.63577   5.70040   5.71284
 Alpha virt. eigenvalues --    5.77412   5.80071   5.83354   5.96834   6.08451
 Alpha virt. eigenvalues --    6.13576   6.15462   6.22080   6.24085   6.33649
 Alpha virt. eigenvalues --    6.34396   6.40291   6.40719   6.40977   6.43002
 Alpha virt. eigenvalues --    6.44798   6.48562   6.49058   6.53150   6.53431
 Alpha virt. eigenvalues --    6.56718   6.69365   6.71428   6.83847   6.85884
 Alpha virt. eigenvalues --    6.87888   6.97836   7.04931   7.06072   7.10746
 Alpha virt. eigenvalues --    7.11711   7.15405   7.18611   7.20104   7.24465
 Alpha virt. eigenvalues --   22.27262  22.54749  22.88100  23.23948  23.68704
 Alpha virt. eigenvalues --   32.96678  43.48586  43.52027  44.04740  44.05021
          Condensed to atoms (all electrons):
               1          2          3          4          5          6
     1  C    4.532378   0.326259   0.001617  -0.077901  -0.020178   0.002594
     2  C    0.326259   5.270341   0.360768  -0.007026   0.394996  -0.012993
     3  C    0.001617   0.360768   5.267756   0.327212  -0.011542   0.397247
     4  C   -0.077901  -0.007026   0.327212   4.539547   0.002126  -0.022667
     5  H   -0.020178   0.394996  -0.011542   0.002126   0.411445  -0.001282
     6  H    0.002594  -0.012993   0.397247  -0.022667  -0.001282   0.412955
     7  C   -0.052029   0.008175   0.004361  -0.052224   0.000091   0.000107
     8  H    0.008240  -0.001443   0.003588  -0.019630   0.000007   0.000017
     9  H   -0.007408   0.000810  -0.000474   0.004971  -0.000002   0.000001
    10  H   -0.005509   0.000500  -0.000354   0.004192  -0.000003  -0.000002
    11  N    0.389923  -0.083148  -0.105309   0.411478   0.002554   0.002526
    12  O    0.001560   0.009594  -0.068994   0.541109  -0.000023  -0.002419
    13  O    0.545663  -0.068233   0.008115   0.002008  -0.001924  -0.000056
    14  O    0.000038   0.001927  -0.000938  -0.002989  -0.000009   0.013563
    15  H   -0.000002  -0.000087  -0.000090  -0.000214   0.000000  -0.000429
    16  H   -0.000098  -0.000662   0.000713  -0.011564   0.000001  -0.004940
    17  O   -0.002355  -0.001288   0.002093   0.000009   0.013452  -0.000007
    18  H   -0.011433   0.000167  -0.000595  -0.000123  -0.004918   0.000001
    19  H   -0.000275  -0.000053  -0.000099   0.000000  -0.000410   0.000000
               7          8          9         10         11         12
     1  C   -0.052029   0.008240  -0.007408  -0.005509   0.389923   0.001560
     2  C    0.008175  -0.001443   0.000810   0.000500  -0.083148   0.009594
     3  C    0.004361   0.003588  -0.000474  -0.000354  -0.105309  -0.068994
     4  C   -0.052224  -0.019630   0.004971   0.004192   0.411478   0.541109
     5  H    0.000091   0.000007  -0.000002  -0.000003   0.002554  -0.000023
     6  H    0.000107   0.000017   0.000001  -0.000002   0.002526  -0.002419
     7  C    4.884912   0.406072   0.409586   0.411708   0.261797  -0.003992
     8  H    0.406072   0.487547  -0.019140  -0.020151  -0.027338   0.013989
     9  H    0.409586  -0.019140   0.516015  -0.028366  -0.034510   0.000222
    10  H    0.411708  -0.020151  -0.028366   0.517250  -0.035698   0.000157
    11  N    0.261797  -0.027338  -0.034510  -0.035698   6.466316  -0.078640
    12  O   -0.003992   0.013989   0.000222   0.000157  -0.078640   7.999733
    13  O    0.009535   0.000588   0.002499   0.001460  -0.083362  -0.000102
    14  O    0.000002   0.000011   0.000000   0.000000  -0.000070  -0.018679
    15  H   -0.000002  -0.000002   0.000000   0.000000  -0.000007   0.000956
    16  H   -0.000107   0.000018   0.000002   0.000002  -0.000028   0.028707
    17  O    0.000029   0.000000   0.000000   0.000000  -0.000089   0.000000
    18  H   -0.000103   0.000003  -0.000005  -0.000007   0.000001   0.000001
    19  H   -0.000004   0.000000   0.000000   0.000000  -0.000006   0.000000
              13         14         15         16         17         18
     1  C    0.545663   0.000038  -0.000002  -0.000098  -0.002355  -0.011433
     2  C   -0.068233   0.001927  -0.000087  -0.000662  -0.001288   0.000167
     3  C    0.008115  -0.000938  -0.000090   0.000713   0.002093  -0.000595
     4  C    0.002008  -0.002989  -0.000214  -0.011564   0.000009  -0.000123
     5  H   -0.001924  -0.000009   0.000000   0.000001   0.013452  -0.004918
     6  H   -0.000056   0.013563  -0.000429  -0.004940  -0.000007   0.000001
     7  C    0.009535   0.000002  -0.000002  -0.000107   0.000029  -0.000103
     8  H    0.000588   0.000011  -0.000002   0.000018   0.000000   0.000003
     9  H    0.002499   0.000000   0.000000   0.000002   0.000000  -0.000005
    10  H    0.001460   0.000000   0.000000   0.000002   0.000000  -0.000007
    11  N   -0.083362  -0.000070  -0.000007  -0.000028  -0.000089   0.000001
    12  O   -0.000102  -0.018679   0.000956   0.028707   0.000000   0.000001
    13  O    7.988447   0.000000   0.000000   0.000001  -0.019292   0.029932
    14  O    0.000000   8.103565   0.299453   0.291642   0.000000   0.000000
    15  H    0.000000   0.299453   0.380267  -0.011794   0.000000   0.000000
    16  H    0.000001   0.291642  -0.011794   0.373717   0.000000   0.000000
    17  O   -0.019292   0.000000   0.000000   0.000000   8.104768   0.290904
    18  H    0.029932   0.000000   0.000000   0.000000   0.290904   0.373831
    19  H    0.000930   0.000000   0.000000   0.000000   0.299321  -0.011604
              19
     1  C   -0.000275
     2  C   -0.000053
     3  C   -0.000099
     4  C    0.000000
     5  H   -0.000410
     6  H    0.000000
     7  C   -0.000004
     8  H    0.000000
     9  H    0.000000
    10  H    0.000000
    11  N   -0.000006
    12  O    0.000000
    13  O    0.000930
    14  O    0.000000
    15  H    0.000000
    16  H    0.000000
    17  O    0.299321
    18  H   -0.011604
    19  H    0.380303
 Mulliken charges:
               1
     1  C    0.368919
     2  C   -0.198604
     3  C   -0.185075
     4  C    0.361684
     5  H    0.215616
     6  H    0.215785
     7  C   -0.287915
     8  H    0.167625
     9  H    0.155798
    10  H    0.154820
    11  N   -0.086390
    12  O   -0.423179
    13  O   -0.416211
    14  O   -0.687515
    15  H    0.331951
    16  H    0.334393
    17  O   -0.687545
    18  H    0.333948
    19  H    0.331897
 Sum of Mulliken charges =   0.00000
 Mulliken charges with hydrogens summed into heavy atoms:
               1
     1  C    0.368919
     2  C    0.017012
     3  C    0.030710
     4  C    0.361684
     7  C    0.190328
    11  N   -0.086390
    12  O   -0.423179
    13  O   -0.416211
    14  O   -0.021172
    17  O   -0.021701
 Electronic spatial extent (au):  <R**2>=           2210.0184
 Charge=              0.0000 electrons
 Dipole moment (field-independent basis, Debye):
    X=              0.0217    Y=              2.6803    Z=              0.0123  Tot=              2.6804
 Quadrupole moment (field-independent basis, Debye-Ang):
   XX=            -56.4512   YY=            -59.2253   ZZ=            -59.9603
   XY=              0.1631   XZ=             -0.3509   YZ=              0.0197
 Traceless Quadrupole moment (field-independent basis, Debye-Ang):
   XX=              2.0944   YY=             -0.6797   ZZ=             -1.4147
   XY=              0.1631   XZ=             -0.3509   YZ=              0.0197
 Octapole moment (field-independent basis, Debye-Ang**2):
  XXX=              0.9340  YYY=             26.3167  ZZZ=              0.2958  XYY=              0.1627
  XXY=              0.3556  XXZ=              1.5204  XZZ=             -0.7591  YZZ=              4.6976
  YYZ=             -0.0679  XYZ=              1.2033
 Hexadecapole moment (field-independent basis, Debye-Ang**3):
 XXXX=          -1004.6101 YYYY=           -709.7557 ZZZZ=            -62.7030 XXXY=              5.6509
 XXXZ=             -5.2095 YYYX=              1.0757 YYYZ=             -0.0325 ZZZX=             -0.6348
 ZZZY=              0.3898 XXYY=           -501.3373 XXZZ=           -336.1314 YYZZ=           -136.6222
 XXYZ=             -2.8382 YYXZ=             -1.0695 ZZXY=             -2.2549
 N-N= 5.256058381670D+02 E-N=-2.344944752868D+03  KE= 5.492455106827D+02
   1 Symmetry operations used in ECPInt.
 ECPInt:  NShTT=   10731 NPrTT=   32632 LenC2=    9836 LenP2D=   22749.
 LDataN:  DoStor=T MaxTD1= 7 Len=  274
 D1PCM: PCM CHGder 1st derivatives, ID1Alg=3 FixD1E=F DoIter=F DoCFld=F I1PDM=0.
 Calling FoFJK, ICntrl=      2127 FMM=F ISym2X=0 I1Cent= 0 IOpClX= 0 NMat=1 NMatS=1 NMatT=0.
 ***** Axes restored to original set *****
 -------------------------------------------------------------------
 Center     Atomic                   Forces (Hartrees/Bohr)
 Number     Number              X              Y              Z
 -------------------------------------------------------------------
      1        6           0.003450025    0.001113591   -0.000052915
      2        6          -0.001636905    0.001533367   -0.000030420
      3        6           0.001638591    0.001569067    0.000027712
      4        6          -0.003245328    0.001088002   -0.000005288
      5        1          -0.001020066    0.001694945    0.000021145
      6        1           0.001059379    0.001666939   -0.000040743
      7        6          -0.000197688   -0.001996474    0.000120989
      8        1           0.001468323   -0.000425923   -0.000186530
      9        1          -0.000805061   -0.000502001   -0.001337085
     10        1          -0.000632447   -0.000490501    0.001410992
     11        7          -0.000010031   -0.000197800    0.000022156
     12        8           0.005894687   -0.002194838   -0.000083803
     13        8          -0.005940024   -0.002337225    0.000148239
     14        8          -0.003355238    0.003019031    0.000154117
     15        1           0.004649627   -0.000314961    0.000041543
     16        1          -0.001044500   -0.002968468   -0.000205892
     17        8           0.003351820    0.002994687   -0.000177511
     18        1           0.001018446   -0.002978417    0.000061108
     19        1          -0.004643610   -0.000273019    0.000112185
 -------------------------------------------------------------------
 Cartesian Forces:  Max     0.005940024 RMS     0.002046931

 GradGradGradGradGradGradGradGradGradGradGradGradGradGradGradGradGradGrad
 Berny optimization.
 FormGI is forming the generalized inverse of G from B-inverse, IUseBI=4.
 GSVD:  received Info=                   1 from GESDD.
 Internal  Forces:  Max     0.006729419 RMS     0.001713192
 Search for a local minimum.
 Step number   1 out of a maximum of   90
 All quantities printed in internal units (Hartrees-Bohrs-Radians)
 Mixed Optimization -- RFO/linear search
 Second derivative matrix not updated -- first step.
 ITU=  0
     Eigenvalues ---    0.00230   0.00230   0.01035   0.01245   0.01415
     Eigenvalues ---    0.01417   0.01427   0.01613   0.01958   0.02032
     Eigenvalues ---    0.02056   0.02419   0.04187   0.04193   0.04799
     Eigenvalues ---    0.04808   0.07546   0.07818   0.16000   0.16000
     Eigenvalues ---    0.16000   0.16000   0.16000   0.16000   0.16000
     Eigenvalues ---    0.16000   0.16000   0.22724   0.24800   0.24999
     Eigenvalues ---    0.25000   0.25000   0.25000   0.25000   0.30794
     Eigenvalues ---    0.32027   0.34563   0.34610   0.34830   0.35697
     Eigenvalues ---    0.35700   0.38295   0.44944   0.47166   0.53219
     Eigenvalues ---    0.53245   0.54975   0.54978   0.57730   0.99309
     Eigenvalues ---    0.99527
 RFO step:  Lambda=-4.38761312D-04 EMin= 2.30000000D-03
 Linear search not attempted -- first point.
 Iteration  1 RMS(Cart)=  0.02054190 RMS(Int)=  0.00006223
 Iteration  2 RMS(Cart)=  0.00011100 RMS(Int)=  0.00000082
 Iteration  3 RMS(Cart)=  0.00000000 RMS(Int)=  0.00000082
 Variable       Old X    -DE/DX   Delta X   Delta X   Delta X     New X
                                 (Linear)    (Quad)   (Total)
    R1        2.83675  -0.00340   0.00000  -0.01056  -0.01056   2.82618
    R2        2.61205  -0.00242   0.00000  -0.00484  -0.00484   2.60721
    R3        2.28917  -0.00673   0.00000  -0.00677  -0.00677   2.28240
    R4        2.50855  -0.00369   0.00000  -0.00626  -0.00626   2.50229
    R5        2.04553  -0.00196   0.00000  -0.00547  -0.00547   2.04005
    R6        2.83768  -0.00338   0.00000  -0.01057  -0.01057   2.82712
    R7        2.04559  -0.00196   0.00000  -0.00548  -0.00548   2.04011
    R8        2.61553  -0.00263   0.00000  -0.00531  -0.00531   2.61022
    R9        2.28829  -0.00661   0.00000  -0.00664  -0.00664   2.28164
   R10        2.05952  -0.00154   0.00000  -0.00441  -0.00441   2.05512
   R11        2.06313  -0.00164   0.00000  -0.00472  -0.00472   2.05841
   R12        2.06391  -0.00162   0.00000  -0.00468  -0.00468   2.05923
   R13        2.73938  -0.00342   0.00000  -0.00891  -0.00891   2.73046
   R14        3.65789   0.00003   0.00000   0.00057   0.00057   3.65846
   R15        3.65581   0.00001   0.00000   0.00021   0.00021   3.65602
   R16        1.81854  -0.00466   0.00000  -0.00846  -0.00846   1.81008
   R17        1.83426  -0.00300   0.00000  -0.00563  -0.00563   1.82863
   R18        1.83450  -0.00301   0.00000  -0.00564  -0.00564   1.82885
   R19        1.81852  -0.00465   0.00000  -0.00845  -0.00845   1.81007
    A1        1.86585  -0.00026   0.00000  -0.00090  -0.00090   1.86495
    A2        2.24198  -0.00089   0.00000  -0.00360  -0.00360   2.23838
    A3        2.17535   0.00114   0.00000   0.00450   0.00450   2.17986
    A4        1.88726   0.00028   0.00000   0.00084   0.00084   1.88811
    A5        2.13205  -0.00044   0.00000  -0.00227  -0.00228   2.12977
    A6        2.26387   0.00016   0.00000   0.00143   0.00143   2.26530
    A7        1.88959   0.00029   0.00000   0.00084   0.00084   1.89043
    A8        2.26404   0.00012   0.00000   0.00122   0.00122   2.26526
    A9        2.12955  -0.00041   0.00000  -0.00206  -0.00206   2.12749
   A10        1.86314  -0.00021   0.00000  -0.00077  -0.00077   1.86237
   A11        2.23622  -0.00076   0.00000  -0.00306  -0.00306   2.23317
   A12        2.18382   0.00097   0.00000   0.00383   0.00383   2.18765
   A13        1.91173  -0.00001   0.00000   0.00032   0.00032   1.91205
   A14        1.91116  -0.00008   0.00000  -0.00058  -0.00058   1.91058
   A15        1.88279   0.00010   0.00000   0.00075   0.00075   1.88353
   A16        1.90876  -0.00011   0.00000  -0.00095  -0.00095   1.90781
   A17        1.92193   0.00006   0.00000   0.00041   0.00041   1.92234
   A18        1.92728   0.00004   0.00000   0.00008   0.00008   1.92735
   A19        1.91892  -0.00010   0.00000  -0.00001  -0.00001   1.91891
   A20        2.17319   0.00017   0.00000   0.00050   0.00050   2.17369
   A21        2.19105  -0.00008   0.00000  -0.00050  -0.00049   2.19055
   A22        1.95453  -0.00127   0.00000  -0.00789  -0.00789   1.94664
   A23        1.94862  -0.00134   0.00000  -0.00837  -0.00837   1.94025
   A24        1.84790  -0.00037   0.00000  -0.00231  -0.00231   1.84559
   A25        2.79494   0.00006   0.00000   0.00023   0.00023   2.79517
   A26        1.84806  -0.00038   0.00000  -0.00235  -0.00235   1.84571
   A27        2.79348   0.00003   0.00000   0.00014   0.00014   2.79362
    D1        0.00292  -0.00002   0.00000  -0.00106  -0.00106   0.00186
    D2       -3.13918  -0.00001   0.00000  -0.00036  -0.00036  -3.13954
    D3       -3.13835   0.00000   0.00000  -0.00028  -0.00028  -3.13863
    D4        0.00274   0.00001   0.00000   0.00042   0.00042   0.00316
    D5       -0.00359   0.00001   0.00000   0.00029   0.00029  -0.00330
    D6       -3.13879   0.00002   0.00000   0.00100   0.00100  -3.13779
    D7        3.13770  -0.00001   0.00000  -0.00046  -0.00046   3.13724
    D8        0.00250   0.00000   0.00000   0.00025   0.00025   0.00275
    D9       -0.02366   0.00004   0.00000   0.00075   0.00075  -0.02291
   D10        3.11831   0.00006   0.00000   0.00166   0.00166   3.11997
   D11       -0.00114   0.00003   0.00000   0.00134   0.00134   0.00021
   D12        3.14049   0.00000   0.00000  -0.00007  -0.00007   3.14042
   D13        3.14101   0.00001   0.00000   0.00057   0.00057   3.14158
   D14       -0.00055  -0.00002   0.00000  -0.00084  -0.00084  -0.00139
   D15       -0.00101  -0.00002   0.00000  -0.00119  -0.00119  -0.00220
   D16        3.14098  -0.00001   0.00000  -0.00079  -0.00079   3.14020
   D17        3.14055   0.00000   0.00000   0.00009   0.00009   3.14064
   D18       -0.00064   0.00001   0.00000   0.00050   0.00049  -0.00014
   D19        0.00292   0.00001   0.00000   0.00049   0.00049   0.00342
   D20        3.13804   0.00000   0.00000  -0.00022  -0.00022   3.13782
   D21       -3.13906   0.00000   0.00000   0.00010   0.00010  -3.13896
   D22       -0.00394  -0.00001   0.00000  -0.00061  -0.00061  -0.00455
   D23       -0.04099   0.00006   0.00000   0.00137   0.00137  -0.03962
   D24        3.10107   0.00007   0.00000   0.00184   0.00184   3.10292
   D25       -3.08498  -0.00005   0.00000  -0.00137  -0.00137  -3.08636
   D26        0.06400  -0.00003   0.00000  -0.00056  -0.00056   0.06344
   D27       -0.99946   0.00004   0.00000  -0.00030  -0.00030  -0.99975
   D28        2.14952   0.00005   0.00000   0.00052   0.00052   2.15004
   D29        1.11027  -0.00003   0.00000  -0.00117  -0.00117   1.10910
   D30       -2.02394  -0.00002   0.00000  -0.00035  -0.00035  -2.02429
   D31       -0.03259   0.00001   0.00000   0.00223   0.00223  -0.03037
   D32       -0.00968  -0.00004   0.00000  -0.01398  -0.01398  -0.02366
   D33       -3.10468  -0.00004   0.00000  -0.00272  -0.00272  -3.10739
   D34        3.13168  -0.00006   0.00000  -0.00384  -0.00384   3.12784
         Item               Value     Threshold  Converged?
 Maximum Force            0.006729     0.000450     NO 
 RMS     Force            0.001713     0.000300     NO 
 Maximum Displacement     0.071551     0.001800     NO 
 RMS     Displacement     0.020557     0.001200     NO 
 Predicted change in Energy=-2.196623D-04
 GradGradGradGradGradGradGradGradGradGradGradGradGradGradGradGradGradGrad

                          Input orientation:                          
 ---------------------------------------------------------------------
 Center     Atomic      Atomic             Coordinates (Angstroms)
 Number     Number       Type             X           Y           Z
 ---------------------------------------------------------------------
      1          6           0        1.130043    0.299380    0.064480
      2          6           0        0.658779   -1.119944    0.074587
      3          6           0       -0.665177   -1.115529    0.097206
      4          6           0       -1.130501    0.306299    0.102805
      5          1           0        1.346853   -1.951734    0.064214
      6          1           0       -1.358739   -1.942762    0.109280
      7          6           0        0.020280    2.539960    0.078946
      8          1           0       -1.007452    2.887058    0.156339
      9          1           0        0.595410    2.911850    0.925953
     10          1           0        0.460304    2.911243   -0.846238
     11          7           0        0.003194    1.095175    0.085040
     12          8           0       -2.266180    0.715847    0.120207
     13          8           0        2.265647    0.710045    0.041674
     14          8           0       -3.901263   -1.635063    0.029216
     15          1           0       -4.854196   -1.538136    0.027038
     16          1           0       -3.545971   -0.735941    0.070806
     17          8           0        3.885493   -1.650971    0.081959
     18          1           0        3.536501   -0.748603    0.058468
     19          1           0        4.838207   -1.562543    0.037391
 ---------------------------------------------------------------------
                    Distance matrix (angstroms):
                    1          2          3          4          5
     1  C    0.000000
     2  C    1.495551   0.000000
     3  C    2.286013   1.324156   0.000000
     4  C    2.260880   2.288337   1.496046   0.000000
     5  H    2.261531   1.079550   2.179126   3.352236   0.000000
     6  H    3.350111   2.179130   1.079577   2.260622   2.705981
     7  C    2.500397   3.715185   3.719245   2.512789   4.683517
     8  H    3.357589   4.340400   4.017630   2.584246   5.381928
     9  H    2.802315   4.121189   4.300661   3.231909   4.996170
    10  H    2.846012   4.139780   4.286220   3.196415   5.026274
    11  N    1.379674   2.310119   2.309562   1.381269   3.330091
    12  O    3.422117   3.453635   2.432628   1.207394   4.491451
    13  O    1.207792   2.435563   3.453336   3.420609   2.815982
    14  O    5.390488   4.589269   3.278230   3.383995   5.257778
    15  H    6.260111   5.529018   4.210867   4.156151   6.214938
    16  H    4.789263   4.222249   2.905814   2.630928   5.041618
    17  O    3.375896   3.270127   4.582088   5.384379   2.556456
    18  H    2.624756   2.901627   4.217847   4.784945   2.498423
    19  H    4.149454   4.202963   5.521833   6.254784   3.513082
                    6          7          8          9         10
     6  H    0.000000
     7  C    4.690140   0.000000
     8  H    4.842807   1.087520   0.000000
     9  H    5.296499   1.089264   1.778226   0.000000
    10  H    5.270986   1.089696   1.777653   1.777333   0.000000
    11  N    3.329340   1.444899   2.058479   2.087622   2.091490
    12  O    2.809229   2.925234   2.509952   3.695992   3.631459
    13  O    4.492006   2.896835   3.932647   2.901653   2.982100
    14  O    2.562327   5.728158   5.370277   6.457447   6.360706
    15  H    3.519760   6.355634   5.864853   7.092858   6.985950
    16  H    2.498376   4.842493   4.424649   5.584683   5.494829
    17  O    5.252414   5.701209   6.673841   5.688260   5.779901
    18  H    5.039044   4.814445   5.820234   4.775088   4.865794
    19  H    6.209015   6.328086   7.347437   6.229853   6.321518
                   11         12         13         14         15
    11  N    0.000000
    12  O    2.301127   0.000000
    13  O    2.295408   4.532511   0.000000
    14  O    4.764672   2.865057   6.597762   0.000000
    15  H    5.525571   3.433212   7.466371   0.957853   0.000000
    16  H    3.993715   1.935973   5.988874   0.967669   1.535216
    17  O    4.755372   6.591386   2.863550   7.786951   8.740590
    18  H    3.985534   5.984942   1.934685   7.490461   8.427820
    19  H    5.517525   7.461249   3.432599   8.739775   9.692439
                   16         17         18         19
    16  H    0.000000
    17  O    7.487593   0.000000
    18  H    7.082494   0.967788   0.000000
    19  H    8.424893   0.957846   1.535376   0.000000
 Stoichiometry    C5H9NO4
 Framework group  C1[X(C5H9NO4)]
 Deg. of freedom    51
 Full point group                 C1      NOp   1
 Largest Abelian subgroup         C1      NOp   1
 Largest concise Abelian subgroup C1      NOp   1
                         Standard orientation:                         
 ---------------------------------------------------------------------
 Center     Atomic      Atomic             Coordinates (Angstroms)
 Number     Number       Type             X           Y           Z
 ---------------------------------------------------------------------
      1          6           0       -1.130212    0.319029    0.012105
      2          6           0       -0.659159   -1.100302   -0.004669
      3          6           0        0.664807   -1.095982   -0.026698
      4          6           0        1.130349    0.325785   -0.025215
      5          1           0       -1.347364   -1.932027    0.001383
      6          1           0        1.358247   -1.923254   -0.042477
      7          6           0       -0.020102    2.559482    0.008960
      8          1           0        1.007716    2.906792   -0.066310
      9          1           0       -0.594811    2.935555   -0.836484
     10          1           0       -0.460467    2.926350    0.935741
     11          7           0       -0.003233    1.114740   -0.004118
     12          8           0        2.266098    0.735237   -0.040146
     13          8           0       -2.265763    0.729753    0.036411
     14          8           0        3.900784   -1.616337    0.040167
     15          1           0        4.853731   -1.519569    0.043224
     16          1           0        3.545646   -0.716970    0.002777
     17          8           0       -3.885951   -1.630789   -0.015997
     18          1           0       -3.536832   -0.728600    0.012011
     19          1           0       -4.838670   -1.542432    0.028589
 ---------------------------------------------------------------------
 Rotational constants (GHZ):      1.8736487      0.6563889      0.4876847
 Standard basis: def2TZVP (5D, 7F)
 There are   414 symmetry adapted cartesian basis functions of A   symmetry.
 There are   364 symmetry adapted basis functions of A   symmetry.
   364 basis functions,   582 primitive gaussians,   414 cartesian basis functions
    39 alpha electrons       39 beta electrons
       nuclear repulsion energy       527.2774114965 Hartrees.
 NAtoms=   19 NActive=   19 NUniq=   19 SFac= 1.00D+00 NAtFMM=   60 NAOKFM=F Big=F
 Integral buffers will be    131072 words long.
 Raffenetti 2 integral format.
 Two-electron integral symmetry is turned on.
 Nuclear repulsion after empirical dispersion term =      527.2689596429 Hartrees.
 ------------------------------------------------------------------------------
 Polarizable Continuum Model (PCM)
 =================================
 Model                : PCM (using non-symmetric T matrix).
 Atomic radii         : SMD-Coulomb.
 Polarization charges : Total charges.
 Charge compensation  : None.
 Solution method      : On-the-fly selection.
 Cavity type          : VdW (van der Waals Surface) (Alpha=1.000).
 Cavity algorithm     : GePol (No added spheres)
                        Default sphere list used, NSphG=   19.
                        Lebedev-Laikov grids with approx.  5.0 points / Ang**2.
                        Smoothing algorithm: Karplus/York (Gamma=1.0000).
                        Polarization charges: spherical gaussians, with
                                              point-specific exponents (IZeta= 3).
                        Self-potential: point-specific (ISelfS= 7).
                        Self-field    : sphere-specific E.n sum rule (ISelfD= 2).
 1st derivatives      : Analytical E(r).r(x)/FMM algorithm (CHGder, D1EAlg=3).
                        Cavity 1st derivative terms included.
 Solvent              : Toluene, Eps=   2.374100 Eps(inf)=   2.238315
 ------------------------------------------------------------------------------
 Spheres list:
 ISph  on   Nord     Re0    Alpha      Xe            Ye            Ze
    1   C      1    1.8500  1.000     -1.130212      0.319029      0.012105
    2   C      2    1.8500  1.000     -0.659159     -1.100302     -0.004669
    3   C      3    1.8500  1.000      0.664807     -1.095982     -0.026698
    4   C      4    1.8500  1.000      1.130349      0.325785     -0.025215
    5   H      5    1.2000  1.000     -1.347364     -1.932027      0.001383
    6   H      6    1.2000  1.000      1.358247     -1.923254     -0.042477
    7   C      7    1.8500  1.000     -0.020102      2.559482      0.008960
    8   H      8    1.2000  1.000      1.007716      2.906792     -0.066310
    9   H      9    1.2000  1.000     -0.594811      2.935555     -0.836484
   10   H     10    1.2000  1.000     -0.460467      2.926350      0.935741
   11   N     11    1.8900  1.000     -0.003233      1.114740     -0.004118
   12   O     12    2.2940  1.000      2.266098      0.735237     -0.040146
   13   O     13    2.2940  1.000     -2.265763      0.729753      0.036411
   14   O     14    2.2940  1.000      3.900784     -1.616337      0.040167
   15   H     15    1.2000  1.000      4.853731     -1.519569      0.043224
   16   H     16    1.2000  1.000      3.545646     -0.716970      0.002777
   17   O     17    2.2940  1.000     -3.885951     -1.630789     -0.015997
   18   H     18    1.2000  1.000     -3.536832     -0.728600      0.012011
   19   H     19    1.2000  1.000     -4.838670     -1.542432      0.028589
 ------------------------------------------------------------------------------
 ------------------------------------------------------------------------------
 Atomic radii for non-electrostatic terms: SMD-CDS.
 ------------------------------------------------------------------------------
 Nuclear repulsion after PCM non-electrostatic terms =      527.2621679634 Hartrees.
 One-electron integrals computed using PRISM.
   1 Symmetry operations used in ECPInt.
 ECPInt:  NShTT=   10731 NPrTT=   32632 LenC2=    9855 LenP2D=   22794.
 LDataN:  DoStor=T MaxTD1= 6 Len=  172
 NBasis=   364 RedAO= T EigKep=  3.77D-05  NBF=   364
 NBsUse=   364 1.00D-06 EigRej= -1.00D+00 NBFU=   364
 Initial guess from the checkpoint file:  ""dieneophile_water3.chk""
 B after Tr=     0.000000    0.000000    0.000000
         Rot=    1.000000   -0.000061    0.000032    0.000037 Ang=  -0.01 deg.
 ExpMin= 9.52D-02 ExpMax= 2.70D+04 ExpMxC= 9.22D+02 IAcc=2 IRadAn=         4 AccDes= 0.00D+00
 Harris functional with IExCor= 4639 and IRadAn=       4 diagonalized for initial guess.
 HarFok:  IExCor= 4639 AccDes= 0.00D+00 IRadAn=         4 IDoV= 1 UseB2=F ITyADJ=14
 ICtDFT=  3500011 ScaDFX=  1.000000  1.000000  1.000000  1.000000
 FoFCou: FMM=F IPFlag=           0 FMFlag=      100000 FMFlg1=           0
         NFxFlg=           0 DoJE=T BraDBF=F KetDBF=T FulRan=T
         wScrn=  0.000000 ICntrl=     500 IOpCl=  0 I1Cent=   200000004 NGrid=           0
         NMat0=    1 NMatS0=      1 NMatT0=    0 NMatD0=    1 NMtDS0=    0 NMtDT0=    0
 Petite list used in FoFCou.
 Requested convergence on RMS density matrix=1.00D-08 within 128 cycles.
 Requested convergence on MAX density matrix=1.00D-06.
 Requested convergence on             energy=1.00D-06.
 No special actions if energy rises.
 Inv3:  Mode=1 IEnd=     9547968.
 Iteration    1 A*A^-1 deviation from unit magnitude is 5.55D-15 for   1252.
 Iteration    1 A*A^-1 deviation from orthogonality  is 1.44D-15 for    443    403.
 Iteration    1 A^-1*A deviation from unit magnitude is 4.66D-15 for   1783.
 Iteration    1 A^-1*A deviation from orthogonality  is 7.44D-14 for    220    179.
 Error on total polarization charges =  0.00767
 SCF Done:  E(RwB97XD) =  -551.680532595     A.U. after    9 cycles
            NFock=  9  Conv=0.84D-08     -V/T= 2.0042
 SMD-CDS (non-electrostatic) energy       (kcal/mol) =      -4.26
 (included in total energy above)
   1 Symmetry operations used in ECPInt.
 ECPInt:  NShTT=   10731 NPrTT=   32632 LenC2=    9855 LenP2D=   22794.
 LDataN:  DoStor=T MaxTD1= 7 Len=  274
 D1PCM: PCM CHGder 1st derivatives, ID1Alg=3 FixD1E=F DoIter=F DoCFld=F I1PDM=0.
 Calling FoFJK, ICntrl=      2127 FMM=F ISym2X=0 I1Cent= 0 IOpClX= 0 NMat=1 NMatS=1 NMatT=0.
 ***** Axes restored to original set *****
 -------------------------------------------------------------------
 Center     Atomic                   Forces (Hartrees/Bohr)
 Number     Number              X              Y              Z
 -------------------------------------------------------------------
      1        6           0.000723357   -0.000499226   -0.000133131
      2        6           0.000083366   -0.000266889    0.000048799
      3        6          -0.000156099   -0.000258575   -0.000060910
      4        6          -0.000631586   -0.000489058    0.000084148
      5        1           0.000103922   -0.000061110    0.000011493
      6        1          -0.000081465   -0.000059011   -0.000016729
      7        6          -0.000053796   -0.000856672    0.000023315
      8        1          -0.000007511    0.000220882   -0.000020579
      9        1           0.000019359    0.000252914    0.000013274
     10        1           0.000021757    0.000269175   -0.000037026
     11        7           0.000016756    0.001027357    0.000050645
     12        8           0.000248993    0.000613548   -0.000021878
     13        8          -0.000297153    0.000608510    0.000041212
     14        8          -0.000218455    0.000352164    0.000059764
     15        1          -0.000010980   -0.000204905    0.000013195
     16        1           0.000235246   -0.000406766   -0.000074124
     17        8           0.000221091    0.000356551   -0.000022848
     18        1          -0.000229293   -0.000395469    0.000073605
     19        1           0.000012493   -0.000203420   -0.000032226
 -------------------------------------------------------------------
 Cartesian Forces:  Max     0.001027357 RMS     0.000307686

 GradGradGradGradGradGradGradGradGradGradGradGradGradGradGradGradGradGrad
 Berny optimization.
 Using GEDIIS/GDIIS optimizer.
 FormGI is forming the generalized inverse of G from B-inverse, IUseBI=4.
 GSVD:  received Info=                   1 from GESDD.
 Internal  Forces:  Max     0.000494613 RMS     0.000174735
 Search for a local minimum.
 Step number   2 out of a maximum of   90
 All quantities printed in internal units (Hartrees-Bohrs-Radians)
 Mixed Optimization -- En-DIIS/RFO-DIIS
 Update second derivatives using D2CorX and points    1    2
 DE= -2.15D-04 DEPred=-2.20D-04 R= 9.80D-01
 TightC=F SS=  1.41D+00  RLast= 3.57D-02 DXNew= 5.0454D-01 1.0720D-01
 Trust test= 9.80D-01 RLast= 3.57D-02 DXMaxT set to 3.00D-01
 ITU=  1  0
 Use linear search instead of GDIIS.
     Eigenvalues ---    0.00230   0.00230   0.01035   0.01246   0.01413
     Eigenvalues ---    0.01416   0.01429   0.01614   0.01960   0.02035
     Eigenvalues ---    0.02060   0.02421   0.04184   0.04190   0.04796
     Eigenvalues ---    0.04807   0.07545   0.07810   0.15232   0.16000
     Eigenvalues ---    0.16000   0.16000   0.16000   0.16000   0.16000
     Eigenvalues ---    0.16000   0.16175   0.22723   0.24803   0.24978
     Eigenvalues ---    0.24999   0.25000   0.25000   0.25348   0.30789
     Eigenvalues ---    0.32828   0.34584   0.34714   0.34937   0.35698
     Eigenvalues ---    0.35965   0.38091   0.45659   0.47162   0.53017
     Eigenvalues ---    0.53232   0.54810   0.54977   0.58993   0.98292
     Eigenvalues ---    0.99444
 RFO step:  Lambda=-1.24923560D-05 EMin= 2.29558923D-03
 Quartic linear search produced a step of -0.02072.
 Iteration  1 RMS(Cart)=  0.00438517 RMS(Int)=  0.00003274
 Iteration  2 RMS(Cart)=  0.00002886 RMS(Int)=  0.00000033
 Iteration  3 RMS(Cart)=  0.00000000 RMS(Int)=  0.00000033
 Variable       Old X    -DE/DX   Delta X   Delta X   Delta X     New X
                                 (Linear)    (Quad)   (Total)
    R1        2.82618   0.00037   0.00022   0.00061   0.00083   2.82701
    R2        2.60721   0.00047   0.00010   0.00073   0.00083   2.60804
    R3        2.28240  -0.00016   0.00014  -0.00048  -0.00034   2.28205
    R4        2.50229   0.00037   0.00013   0.00028   0.00041   2.50270
    R5        2.04005   0.00011   0.00011   0.00004   0.00016   2.04021
    R6        2.82712   0.00034   0.00022   0.00050   0.00072   2.82783
    R7        2.04011   0.00010   0.00011   0.00000   0.00011   2.04022
    R8        2.61022   0.00045   0.00011   0.00067   0.00078   2.61100
    R9        2.28164  -0.00012   0.00014  -0.00044  -0.00030   2.28134
   R10        2.05512   0.00008   0.00009  -0.00001   0.00009   2.05520
   R11        2.05841   0.00011   0.00010   0.00007   0.00017   2.05858
   R12        2.05923   0.00013   0.00010   0.00014   0.00024   2.05947
   R13        2.73046  -0.00011   0.00018  -0.00073  -0.00054   2.72992
   R14        3.65846   0.00019  -0.00001   0.00386   0.00385   3.66231
   R15        3.65602   0.00019   0.00000   0.00385   0.00385   3.65987
   R16        1.81008  -0.00001   0.00018  -0.00043  -0.00026   1.80982
   R17        1.82863  -0.00006   0.00012  -0.00038  -0.00027   1.82836
   R18        1.82885  -0.00006   0.00012  -0.00038  -0.00026   1.82859
   R19        1.81007  -0.00001   0.00018  -0.00042  -0.00025   1.80982
    A1        1.86495   0.00007   0.00002   0.00026   0.00028   1.86523
    A2        2.23838   0.00023   0.00007   0.00072   0.00079   2.23917
    A3        2.17986  -0.00030  -0.00009  -0.00098  -0.00107   2.17878
    A4        1.88811   0.00000  -0.00002  -0.00001  -0.00003   1.88808
    A5        2.12977  -0.00004   0.00005  -0.00034  -0.00029   2.12948
    A6        2.26530   0.00004  -0.00003   0.00034   0.00031   2.26562
    A7        1.89043  -0.00002  -0.00002  -0.00010  -0.00011   1.89032
    A8        2.26526   0.00004  -0.00003   0.00029   0.00026   2.26553
    A9        2.12749  -0.00002   0.00004  -0.00019  -0.00015   2.12734
   A10        1.86237   0.00010   0.00002   0.00038   0.00039   1.86276
   A11        2.23317   0.00019   0.00006   0.00057   0.00063   2.23380
   A12        2.18765  -0.00029  -0.00008  -0.00095  -0.00103   2.18662
   A13        1.91205  -0.00021  -0.00001  -0.00127  -0.00127   1.91077
   A14        1.91058  -0.00023   0.00001  -0.00151  -0.00150   1.90908
   A15        1.88353   0.00020  -0.00002   0.00127   0.00126   1.88479
   A16        1.90781  -0.00025   0.00002  -0.00154  -0.00152   1.90628
   A17        1.92234   0.00024  -0.00001   0.00151   0.00151   1.92385
   A18        1.92735   0.00025   0.00000   0.00152   0.00152   1.92888
   A19        1.91891  -0.00015   0.00000  -0.00053  -0.00053   1.91838
   A20        2.17369   0.00011  -0.00001   0.00044   0.00043   2.17413
   A21        2.19055   0.00004   0.00001   0.00009   0.00010   2.19065
   A22        1.94664  -0.00049   0.00016  -0.00342  -0.00325   1.94339
   A23        1.94025  -0.00046   0.00017  -0.00326  -0.00308   1.93716
   A24        1.84559   0.00037   0.00005   0.00212   0.00217   1.84777
   A25        2.79517   0.00013   0.00000   0.00054   0.00053   2.79570
   A26        1.84571   0.00037   0.00005   0.00215   0.00220   1.84791
   A27        2.79362   0.00013   0.00000   0.00051   0.00050   2.79413
    D1        0.00186   0.00002   0.00002   0.00093   0.00095   0.00281
    D2       -3.13954   0.00001   0.00001   0.00035   0.00036  -3.13918
    D3       -3.13863   0.00000   0.00001   0.00011   0.00011  -3.13852
    D4        0.00316  -0.00001  -0.00001  -0.00047  -0.00048   0.00267
    D5       -0.00330   0.00000  -0.00001  -0.00019  -0.00020  -0.00350
    D6       -3.13779   0.00000  -0.00002   0.00002   0.00000  -3.13779
    D7        3.13724   0.00001   0.00001   0.00059   0.00060   3.13784
    D8        0.00275   0.00002  -0.00001   0.00081   0.00080   0.00355
    D9       -0.02291   0.00004  -0.00002   0.00120   0.00119  -0.02172
   D10        3.11997   0.00002  -0.00003   0.00025   0.00021   3.12018
   D11        0.00021  -0.00002  -0.00003  -0.00123  -0.00126  -0.00105
   D12        3.14042  -0.00001   0.00000  -0.00073  -0.00072   3.13969
   D13        3.14158  -0.00001  -0.00001  -0.00059  -0.00060   3.14098
   D14       -0.00139   0.00000   0.00002  -0.00008  -0.00007  -0.00146
   D15       -0.00220   0.00002   0.00002   0.00113   0.00115  -0.00105
   D16        3.14020   0.00001   0.00002   0.00062   0.00064   3.14084
   D17        3.14064   0.00001   0.00000   0.00067   0.00067   3.14131
   D18       -0.00014   0.00000  -0.00001   0.00017   0.00016   0.00001
   D19        0.00342  -0.00001  -0.00001  -0.00052  -0.00053   0.00289
   D20        3.13782  -0.00001   0.00000  -0.00073  -0.00073   3.13709
   D21       -3.13896   0.00000   0.00000  -0.00003  -0.00003  -3.13899
   D22       -0.00455   0.00000   0.00001  -0.00024  -0.00023  -0.00478
   D23       -0.03962   0.00009  -0.00003   0.00219   0.00216  -0.03746
   D24        3.10292   0.00007  -0.00004   0.00160   0.00156   3.10448
   D25       -3.08636  -0.00001   0.00003  -0.00074  -0.00072  -3.08707
   D26        0.06344  -0.00001   0.00001  -0.00050  -0.00049   0.06295
   D27       -0.99975  -0.00001   0.00001  -0.00063  -0.00063  -1.00038
   D28        2.15004   0.00000  -0.00001  -0.00039  -0.00040   2.14965
   D29        1.10910   0.00000   0.00002  -0.00058  -0.00056   1.10854
   D30       -2.02429   0.00000   0.00001  -0.00033  -0.00033  -2.02462
   D31       -0.03037   0.00001  -0.00005   0.00361   0.00357  -0.02680
   D32       -0.02366  -0.00003   0.00029  -0.01580  -0.01551  -0.03917
   D33       -3.10739  -0.00004   0.00006  -0.00276  -0.00270  -3.11009
   D34        3.12784  -0.00007   0.00008  -0.00515  -0.00507   3.12278
         Item               Value     Threshold  Converged?
 Maximum Force            0.000495     0.000450     NO 
 RMS     Force            0.000175     0.000300     YES
 Maximum Displacement     0.016426     0.001800     NO 
 RMS     Displacement     0.004394     0.001200     NO 
 Predicted change in Energy=-6.327070D-06
 GradGradGradGradGradGradGradGradGradGradGradGradGradGradGradGradGradGrad

                          Input orientation:                          
 ---------------------------------------------------------------------
 Center     Atomic      Atomic             Coordinates (Angstroms)
 Number     Number       Type             X           Y           Z
 ---------------------------------------------------------------------
      1          6           0        1.130263    0.300736    0.065090
      2          6           0        0.658795   -1.118986    0.074897
      3          6           0       -0.665410   -1.114484    0.095549
      4          6           0       -1.130584    0.307790    0.101839
      5          1           0        1.347139   -1.950668    0.065230
      6          1           0       -1.359303   -1.941536    0.106227
      7          6           0        0.020219    2.541644    0.078962
      8          1           0       -1.007262    2.889930    0.154992
      9          1           0        0.594031    2.915158    0.926265
     10          1           0        0.461075    2.914597   -0.845303
     11          7           0        0.003297    1.097144    0.085009
     12          8           0       -2.265789    0.718208    0.118548
     13          8           0        2.265414    0.712195    0.043757
     14          8           0       -3.896815   -1.638095    0.031237
     15          1           0       -4.850004   -1.545112    0.028334
     16          1           0       -3.543341   -0.738308    0.070590
     17          8           0        3.881595   -1.653666    0.088807
     18          1           0        3.534161   -0.750981    0.060643
     19          1           0        4.833747   -1.569936    0.028699
 ---------------------------------------------------------------------
                    Distance matrix (angstroms):
                    1          2          3          4          5
     1  C    0.000000
     2  C    1.495991   0.000000
     3  C    2.286530   1.324374   0.000000
     4  C    2.261157   2.288732   1.496426   0.000000
     5  H    2.261826   1.079632   2.179559   3.352772   0.000000
     6  H    3.350733   2.179516   1.079637   2.260928   2.706768
     7  C    2.500811   3.715913   3.719897   2.512961   4.684204
     8  H    3.358722   4.342069   4.019419   2.585630   5.383553
     9  H    2.804348   4.123510   4.302824   3.233008   4.998481
    10  H    2.847612   4.141938   4.288084   3.197796   5.028417
    11  N    1.380114   2.311063   2.310536   1.381684   3.330984
    12  O    3.422033   3.454039   2.433209   1.207234   4.492103
    13  O    1.207609   2.436270   3.453862   3.420485   2.816829
    14  O    5.388110   4.585299   3.274184   3.382822   5.253372
    15  H    6.258762   5.525452   4.207230   4.156048   6.210509
    16  H    4.787716   4.219347   2.902520   2.629961   5.038516
    17  O    3.374919   3.266881   4.578866   5.382325   2.551908
    18  H    2.623901   2.898854   4.215418   4.783569   2.494460
    19  H    4.149281   4.199490   5.518391   6.253355   3.507524
                    6          7          8          9         10
     6  H    0.000000
     7  C    4.690706   0.000000
     8  H    4.844520   1.087566   0.000000
     9  H    5.298627   1.089355   1.777537   0.000000
    10  H    5.272685   1.089823   1.776854   1.776550   0.000000
    11  N    3.330271   1.444612   2.059177   2.088505   2.092409
    12  O    2.810001   2.924435   2.510298   3.695615   3.631655
    13  O    4.492745   2.896381   3.932595   2.902651   2.982724
    14  O    2.556691   5.728495   5.372880   6.457622   6.362903
    15  H    3.514002   6.357925   5.869609   7.094914   6.989979
    16  H    2.493803   4.843255   4.427520   5.585503   5.497083
    17  O    5.248827   5.701837   6.674546   5.690656   5.782866
    18  H    5.036416   4.815548   5.821482   4.778518   4.868373
    19  H    6.204673   6.330693   7.350084   6.236737   6.324174
                   11         12         13         14         15
    11  N    0.000000
    12  O    2.300754   0.000000
    13  O    2.295007   4.531824   0.000000
    14  O    4.763958   2.867060   6.595232   0.000000
    15  H    5.526234   3.436411   7.464907   0.957718   0.000000
    16  H    3.993462   1.938009   5.987179   0.967527   1.536257
    17  O    4.754804   6.589158   2.865549   7.778639   8.732483
    18  H    3.985368   5.983418   1.936721   7.483798   8.421752
    19  H    5.518128   7.459698   3.435795   8.730829   9.683783
                   16         17         18         19
    16  H    0.000000
    17  O    7.481169   0.000000
    18  H    7.077521   0.967649   0.000000
    19  H    8.418371   0.957715   1.536435   0.000000
 Stoichiometry    C5H9NO4
 Framework group  C1[X(C5H9NO4)]
 Deg. of freedom    51
 Full point group                 C1      NOp   1
 Largest Abelian subgroup         C1      NOp   1
 Largest concise Abelian subgroup C1      NOp   1
                         Standard orientation:                         
 ---------------------------------------------------------------------
 Center     Atomic      Atomic             Coordinates (Angstroms)
 Number     Number       Type             X           Y           Z
 ---------------------------------------------------------------------
      1          6           0       -1.130364    0.319928    0.012569
      2          6           0       -0.659113   -1.099811   -0.003282
      3          6           0        0.665092   -1.095423   -0.023975
      4          6           0        1.130482    0.326795   -0.024253
      5          1           0       -1.347582   -1.931422    0.002888
      6          1           0        1.358859   -1.922526   -0.038193
      7          6           0       -0.019981    2.560706    0.008152
      8          1           0        1.007549    2.909156   -0.066446
      9          1           0       -0.593775    2.937898   -0.837533
     10          1           0       -0.460739    2.929802    0.934011
     11          7           0       -0.003279    1.116242   -0.004023
[...]
    18  H    5.047326   4.831361   5.838479   4.827914   4.849348
    19  H    5.922274   6.186124   7.184957   6.270225   6.059378
                   11         12         13         14         15
    11  N    0.000000
    12  O    2.301147   0.000000
    13  O    2.295410   4.532608   0.000000
    14  O    4.806441   2.892587   6.646839   0.000000
    15  H    5.352882   3.351943   7.236715   0.958264   0.000000
    16  H    4.007969   1.953123   6.000632   0.967375   1.531031
    17  O    4.796483   6.639478   2.890634   7.892417   8.503895
    18  H    4.000402   5.997375   1.951840   7.550218   8.160357
    19  H    5.329640   7.211850   3.347909   8.478480   9.151194
                   16         17         18         19
    16  H    0.000000
    17  O    7.545224   0.000000
    18  H    7.099501   0.967500   0.000000
    19  H    8.131902   0.958248   1.531298   0.000000
 Stoichiometry    C5H9NO4
 Framework group  C1[X(C5H9NO4)]
 Deg. of freedom    51
 Full point group                 C1      NOp   1
 Largest Abelian subgroup         C1      NOp   1
 Largest concise Abelian subgroup C1      NOp   1
                         Standard orientation:                         
 ---------------------------------------------------------------------
 Center     Atomic      Atomic             Coordinates (Angstroms)
 Number     Number       Type             X           Y           Z
 ---------------------------------------------------------------------
      1          6           0       -1.131212    0.320824   -0.023914
      2          6           0       -0.658994   -1.098849   -0.043327
      3          6           0        0.665369   -1.094138   -0.032584
      4          6           0        1.130416    0.328183   -0.008156
      5          1           0       -1.349970   -1.928506   -0.059877
      6          1           0        1.362646   -1.918747   -0.038862
      7          6           0       -0.021124    2.561490    0.022290
      8          1           0        1.009210    2.909743    0.016467
      9          1           0       -0.540946    2.951795   -0.852128
     10          1           0       -0.518846    2.917992    0.923892
     11          7           0       -0.004010    1.117408   -0.006645
     12          8           0        2.265718    0.738741    0.008241
     13          8           0       -2.266784    0.732022   -0.022175
     14          8           0        3.952871   -1.608527    0.112699
     15          1           0        4.544955   -1.631884   -0.640402
     16          1           0        3.552285   -0.728153    0.095758
     17          8           0       -3.937976   -1.626457   -0.043676
     18          1           0       -3.545601   -0.742165   -0.054973
     19          1           0       -4.503031   -1.643232    0.730062
 ---------------------------------------------------------------------
 Rotational constants (GHZ):      1.8630854      0.6493563      0.4841199

 **********************************************************************

            Population analysis using the SCF density.

 **********************************************************************

 Orbital symmetries:
       Occupied  (A) (A) (A) (A) (A) (A) (A) (A) (A) (A) (A) (A)
                 (A) (A) (A) (A) (A) (A) (A) (A) (A) (A) (A) (A)
                 (A) (A) (A) (A) (A) (A) (A) (A) (A) (A) (A) (A)
                 (A) (A) (A)
       Virtual   (A) (A) (A) (A) (A) (A) (A) (A) (A) (A) (A) (A)
                 (A) (A) (A) (A) (A) (A) (A) (A) (A) (A) (A) (A)
                 (A) (A) (A) (A) (A) (A) (A) (A) (A) (A) (A) (A)
                 (A) (A) (A) (A) (A) (A) (A) (A) (A) (A) (A) (A)
                 (A) (A) (A) (A) (A) (A) (A) (A) (A) (A) (A) (A)
                 (A) (A) (A) (A) (A) (A) (A) (A) (A) (A) (A) (A)
                 (A) (A) (A) (A) (A) (A) (A) (A) (A) (A) (A) (A)
                 (A) (A) (A) (A) (A) (A) (A) (A) (A) (A) (A) (A)
                 (A) (A) (A) (A) (A) (A) (A) (A) (A) (A) (A) (A)
                 (A) (A) (A) (A) (A) (A) (A) (A) (A) (A) (A) (A)
                 (A) (A) (A) (A) (A) (A) (A) (A) (A) (A) (A) (A)
                 (A) (A) (A) (A) (A) (A) (A) (A) (A) (A) (A) (A)
                 (A) (A) (A) (A) (A) (A) (A) (A) (A) (A) (A) (A)
                 (A) (A) (A) (A) (A) (A) (A) (A) (A) (A) (A) (A)
                 (A) (A) (A) (A) (A) (A) (A) (A) (A) (A) (A) (A)
                 (A) (A) (A) (A) (A) (A) (A) (A) (A) (A) (A) (A)
                 (A) (A) (A) (A) (A) (A) (A) (A) (A) (A) (A) (A)
                 (A) (A) (A) (A) (A) (A) (A) (A) (A) (A) (A) (A)
                 (A) (A) (A) (A) (A) (A) (A) (A) (A) (A) (A) (A)
                 (A) (A) (A) (A) (A) (A) (A) (A) (A) (A) (A) (A)
                 (A) (A) (A) (A) (A) (A) (A) (A) (A) (A) (A) (A)
                 (A) (A) (A) (A) (A) (A) (A) (A) (A) (A) (A) (A)
                 (A) (A) (A) (A) (A) (A) (A) (A) (A) (A) (A) (A)
                 (A) (A) (A) (A) (A) (A) (A) (A) (A) (A) (A) (A)
                 (A) (A) (A) (A) (A) (A) (A) (A) (A) (A) (A) (A)
                 (A) (A) (A) (A) (A) (A) (A) (A) (A) (A) (A) (A)
                 (A) (A) (A) (A) (A) (A) (A) (A) (A) (A) (A) (A)
                 (A)
 The electronic state is 1-A.
 Alpha  occ. eigenvalues --  -19.26905 -19.26871 -19.23149 -19.23132 -14.49846
 Alpha  occ. eigenvalues --  -10.42844 -10.42718 -10.32777 -10.32775 -10.32679
 Alpha  occ. eigenvalues --   -1.20246  -1.18293  -1.09687  -1.09608  -1.08639
 Alpha  occ. eigenvalues --   -0.94614  -0.82368  -0.78673  -0.72051  -0.66454
 Alpha  occ. eigenvalues --   -0.61380  -0.60781  -0.60719  -0.59955  -0.57121
 Alpha  occ. eigenvalues --   -0.55216  -0.54542  -0.52781  -0.51510  -0.50959
 Alpha  occ. eigenvalues --   -0.49532  -0.46455  -0.46272  -0.40507  -0.40023
 Alpha  occ. eigenvalues --   -0.39215  -0.38895  -0.37378  -0.36964
 Alpha virt. eigenvalues --   -0.03751   0.11524   0.11555   0.12624   0.12703
 Alpha virt. eigenvalues --    0.13056   0.16370   0.17387   0.18655   0.20376
 Alpha virt. eigenvalues --    0.21107   0.21291   0.21382   0.23117   0.24101
 Alpha virt. eigenvalues --    0.25595   0.27505   0.29080   0.29584   0.31286
 Alpha virt. eigenvalues --    0.32137   0.33525   0.35057   0.36133   0.36499
 Alpha virt. eigenvalues --    0.36941   0.38961   0.40517   0.42183   0.42673
 Alpha virt. eigenvalues --    0.43478   0.44159   0.45617   0.46033   0.48173
 Alpha virt. eigenvalues --    0.49122   0.49703   0.49975   0.51142   0.52687
 Alpha virt. eigenvalues --    0.52984   0.53380   0.53533   0.54882   0.55632
 Alpha virt. eigenvalues --    0.56806   0.57600   0.59055   0.60446   0.60919
 Alpha virt. eigenvalues --    0.63272   0.65413   0.65945   0.66465   0.67093
 Alpha virt. eigenvalues --    0.68070   0.68635   0.70522   0.71486   0.72664
 Alpha virt. eigenvalues --    0.72829   0.74042   0.77559   0.77908   0.81749
 Alpha virt. eigenvalues --    0.84190   0.86001   0.87368   0.88801   0.92764
 Alpha virt. eigenvalues --    0.94598   0.96745   0.98276   0.98414   1.00200
 Alpha virt. eigenvalues --    1.00319   1.03629   1.06872   1.07082   1.09503
 Alpha virt. eigenvalues --    1.10773   1.11956   1.12075   1.16394   1.18757
 Alpha virt. eigenvalues --    1.21503   1.22533   1.24878   1.27000   1.28304
 Alpha virt. eigenvalues --    1.28586   1.32800   1.34411   1.35750   1.40178
 Alpha virt. eigenvalues --    1.40887   1.43917   1.44591   1.46513   1.46931
 Alpha virt. eigenvalues --    1.47678   1.50672   1.51131   1.54697   1.55845
 Alpha virt. eigenvalues --    1.56795   1.59038   1.59738   1.61557   1.62130
 Alpha virt. eigenvalues --    1.62616   1.68256   1.69475   1.69921   1.70804
 Alpha virt. eigenvalues --    1.71273   1.73736   1.76106   1.77749   1.81887
 Alpha virt. eigenvalues --    1.82584   1.84855   1.86305   1.87467   1.87902
 Alpha virt. eigenvalues --    1.90964   1.94003   1.97299   1.97939   2.00320
 Alpha virt. eigenvalues --    2.01197   2.02241   2.04595   2.08659   2.11665
 Alpha virt. eigenvalues --    2.12120   2.13890   2.14051   2.17558   2.18806
 Alpha virt. eigenvalues --    2.19119   2.20830   2.23813   2.25043   2.25342
 Alpha virt. eigenvalues --    2.26051   2.27866   2.32492   2.34430   2.34855
 Alpha virt. eigenvalues --    2.38031   2.39366   2.40921   2.41945   2.42676
 Alpha virt. eigenvalues --    2.47553   2.50458   2.50813   2.53209   2.53891
 Alpha virt. eigenvalues --    2.55451   2.56299   2.58087   2.60520   2.61171
 Alpha virt. eigenvalues --    2.64867   2.64892   2.68423   2.70431   2.70717
 Alpha virt. eigenvalues --    2.72561   2.73145   2.73537   2.74317   2.75239
 Alpha virt. eigenvalues --    2.78049   2.79989   2.80398   2.82436   2.85213
 Alpha virt. eigenvalues --    2.86525   2.88376   2.89392   2.92249   2.95544
 Alpha virt. eigenvalues --    2.97397   2.99481   3.00626   3.02732   3.06219
 Alpha virt. eigenvalues --    3.06667   3.07871   3.07991   3.09392   3.10287
 Alpha virt. eigenvalues --    3.12610   3.14287   3.17236   3.20465   3.20780
 Alpha virt. eigenvalues --    3.22101   3.23398   3.25874   3.26377   3.30542
 Alpha virt. eigenvalues --    3.31675   3.36610   3.37695   3.40591   3.41316
 Alpha virt. eigenvalues --    3.43062   3.43610   3.44394   3.45092   3.54241
 Alpha virt. eigenvalues --    3.54781   3.55947   3.58554   3.58749   3.60511
 Alpha virt. eigenvalues --    3.65866   3.66280   3.68909   3.72718   3.76133
 Alpha virt. eigenvalues --    3.77824   3.78098   3.81693   3.83329   3.94188
 Alpha virt. eigenvalues --    3.96607   3.98419   4.05604   4.06233   4.09663
 Alpha virt. eigenvalues --    4.12222   4.13975   4.16305   4.17391   4.24728
 Alpha virt. eigenvalues --    4.26135   4.28932   4.31932   4.41670   4.43482
 Alpha virt. eigenvalues --    4.45571   4.51512   4.54012   4.62565   4.72912
 Alpha virt. eigenvalues --    4.79624   4.81520   4.82805   4.86819   4.95648
 Alpha virt. eigenvalues --    5.02824   5.08146   5.15317   5.18019   5.18430
 Alpha virt. eigenvalues --    5.19825   5.20328   5.21250   5.23505   5.29777
 Alpha virt. eigenvalues --    5.30249   5.30822   5.31152   5.33882   5.39384
 Alpha virt. eigenvalues --    5.45101   5.49268   5.49388   5.52771   5.53411
 Alpha virt. eigenvalues --    5.58111   5.58229   5.63829   5.70704   5.71940
 Alpha virt. eigenvalues --    5.78345   5.80537   5.84315   5.97804   6.09771
 Alpha virt. eigenvalues --    6.14914   6.16429   6.23038   6.25078   6.33859
 Alpha virt. eigenvalues --    6.33959   6.41330   6.41682   6.42174   6.42876
 Alpha virt. eigenvalues --    6.45104   6.49827   6.50725   6.53422   6.53871
 Alpha virt. eigenvalues --    6.57593   6.69376   6.71013   6.84782   6.85880
 Alpha virt. eigenvalues --    6.87932   6.98982   7.03956   7.04491   7.11354
 Alpha virt. eigenvalues --    7.12835   7.15942   7.19035   7.20326   7.24800
 Alpha virt. eigenvalues --   22.28460  22.56891  22.89977  23.26032  23.71153
 Alpha virt. eigenvalues --   32.97324  43.49138  43.53234  44.05156  44.05370
          Condensed to atoms (all electrons):
               1          2          3          4          5          6
     1  C    4.555120   0.316604   0.007980  -0.089577  -0.024681   0.003029
     2  C    0.316604   5.270587   0.367034   0.000054   0.388067  -0.005240
     3  C    0.007980   0.367034   5.269508   0.315736  -0.003585   0.389675
     4  C   -0.089577   0.000054   0.315736   4.567145   0.002412  -0.028068
     5  H   -0.024681   0.388067  -0.003585   0.002412   0.415645  -0.001806
     6  H    0.003029  -0.005240   0.389675  -0.028068  -0.001806   0.419128
     7  C   -0.052437   0.008243   0.004524  -0.053178   0.000089   0.000124
     8  H    0.008324  -0.001513   0.003757  -0.020109   0.000007   0.000019
     9  H   -0.006692   0.000627  -0.000372   0.004516  -0.000003   0.000000
    10  H   -0.006490   0.000813  -0.000563   0.004913   0.000000  -0.000002
    11  N    0.390488  -0.083571  -0.105355   0.409966   0.002634   0.002828
    12  O    0.001043   0.010969  -0.069221   0.538574  -0.000026  -0.002032
    13  O    0.542860  -0.068655   0.009672   0.001424  -0.001479  -0.000058
    14  O    0.000195   0.001236  -0.003845  -0.002055  -0.000020   0.020846
    15  H    0.000004  -0.000162  -0.000322   0.000796   0.000001  -0.000810
    16  H   -0.000209  -0.000117   0.000554  -0.008431   0.000007  -0.005917
    17  O   -0.000523  -0.003154   0.001105   0.000175   0.018836  -0.000014
    18  H   -0.008428  -0.000215  -0.000009  -0.000233  -0.005564   0.000005
    19  H    0.000821  -0.000330  -0.000209   0.000010  -0.000784   0.000001
               7          8          9         10         11         12
     1  C   -0.052437   0.008324  -0.006692  -0.006490   0.390488   0.001043
     2  C    0.008243  -0.001513   0.000627   0.000813  -0.083571   0.010969
     3  C    0.004524   0.003757  -0.000372  -0.000563  -0.105355  -0.069221
     4  C   -0.053178  -0.020109   0.004516   0.004913   0.409966   0.538574
     5  H    0.000089   0.000007  -0.000003   0.000000   0.002634  -0.000026
     6  H    0.000124   0.000019   0.000000  -0.000002   0.002828  -0.002032
     7  C    4.884159   0.406897   0.411104   0.411334   0.261115  -0.004209
     8  H    0.406897   0.486860  -0.019595  -0.019786  -0.027307   0.014013
     9  H    0.411104  -0.019595   0.516391  -0.028583  -0.035062   0.000158
    10  H    0.411334  -0.019786  -0.028583   0.517777  -0.035681   0.000229
    11  N    0.261115  -0.027307  -0.035062  -0.035681   6.470231  -0.079187
    12  O   -0.004209   0.014013   0.000158   0.000229  -0.079187   7.996821
    13  O    0.009423   0.000575   0.002153   0.001769  -0.083553  -0.000102
    14  O    0.000020   0.000010   0.000000   0.000000   0.000206  -0.018511
    15  H    0.000000  -0.000002   0.000000   0.000000   0.000017   0.000970
    16  H   -0.000106   0.000012   0.000001   0.000004  -0.000028   0.028996
    17  O    0.000048   0.000000   0.000000  -0.000001   0.000183   0.000000
    18  H   -0.000108   0.000002  -0.000002  -0.000012   0.000046   0.000000
    19  H   -0.000002   0.000000   0.000000   0.000000   0.000016   0.000000
              13         14         15         16         17         18
     1  C    0.542860   0.000195   0.000004  -0.000209  -0.000523  -0.008428
     2  C   -0.068655   0.001236  -0.000162  -0.000117  -0.003154  -0.000215
     3  C    0.009672  -0.003845  -0.000322   0.000554   0.001105  -0.000009
     4  C    0.001424  -0.002055   0.000796  -0.008431   0.000175  -0.000233
     5  H   -0.001479  -0.000020   0.000001   0.000007   0.018836  -0.005564
     6  H   -0.000058   0.020846  -0.000810  -0.005917  -0.000014   0.000005
     7  C    0.009423   0.000020   0.000000  -0.000106   0.000048  -0.000108
     8  H    0.000575   0.000010  -0.000002   0.000012   0.000000   0.000002
     9  H    0.002153   0.000000   0.000000   0.000001   0.000000  -0.000002
    10  H    0.001769   0.000000   0.000000   0.000004  -0.000001  -0.000012
    11  N   -0.083553   0.000206   0.000017  -0.000028   0.000183   0.000046
    12  O   -0.000102  -0.018511   0.000970   0.028996   0.000000   0.000000
    13  O    7.985053   0.000000   0.000000   0.000000  -0.019258   0.030280
    14  O    0.000000   8.077943   0.306511   0.303972   0.000000   0.000000
    15  H    0.000000   0.306511   0.376281  -0.019642   0.000000   0.000000
    16  H    0.000000   0.303972  -0.019642   0.361673   0.000000   0.000000
    17  O   -0.019258   0.000000   0.000000   0.000000   8.080286   0.303119
    18  H    0.030280   0.000000   0.000000   0.000000   0.303119   0.361561
    19  H    0.000922   0.000000   0.000000   0.000000   0.306262  -0.019485
              19
     1  C    0.000821
     2  C   -0.000330
     3  C   -0.000209
     4  C    0.000010
     5  H   -0.000784
     6  H    0.000001
     7  C   -0.000002
     8  H    0.000000
     9  H    0.000000
    10  H    0.000000
    11  N    0.000016
    12  O    0.000000
    13  O    0.000922
    14  O    0.000000
    15  H    0.000000
    16  H    0.000000
    17  O    0.306262
    18  H   -0.019485
    19  H    0.376470
 Mulliken charges:
               1
     1  C    0.362568
     2  C   -0.201279
     3  C   -0.186063
     4  C    0.355929
     5  H    0.210249
     6  H    0.208293
     7  C   -0.287040
     8  H    0.167834
     9  H    0.155359
    10  H    0.154281
    11  N   -0.087984
    12  O   -0.418486
    13  O   -0.411027
    14  O   -0.686508
    15  H    0.336358
    16  H    0.339231
    17  O   -0.687067
    18  H    0.339042
    19  H    0.336307
 Sum of Mulliken charges =   0.00000
 Mulliken charges with hydrogens summed into heavy atoms:
               1
     1  C    0.362568
     2  C    0.008970
     3  C    0.022230
     4  C    0.355929
     7  C    0.190435
    11  N   -0.087984
    12  O   -0.418486
    13  O   -0.411027
    14  O   -0.010918
    17  O   -0.011717
 Electronic spatial extent (au):  <R**2>=           2208.5690
 Charge=              0.0000 electrons
 Dipole moment (field-independent basis, Debye):
    X=              0.0684    Y=              2.1992    Z=             -0.0481  Tot=              2.2008
 Quadrupole moment (field-independent basis, Debye-Ang):
   XX=            -70.8174   YY=            -57.8549   ZZ=            -57.1771
   XY=             -0.0619   XZ=            -13.7696   YZ=              0.2242
 Traceless Quadrupole moment (field-independent basis, Debye-Ang):
   XX=             -8.8676   YY=              4.0949   ZZ=              4.7727
   XY=             -0.0619   XZ=            -13.7696   YZ=              0.2242
 Octapole moment (field-independent basis, Debye-Ang**2):
  XXX=              4.0809  YYY=             23.2572  ZZZ=              0.5924  XYY=              0.7767
  XXY=             10.1862  XXZ=             -0.2168  XZZ=             -2.0557  YZZ=              0.1314
  YYZ=             -0.1475  XYZ=             23.7230
 Hexadecapole moment (field-independent basis, Debye-Ang**3):
 XXXX=          -1681.3163 YYYY=           -707.9330 ZZZZ=            -62.9052 XXXY=             -3.9571
 XXXZ=           -308.2492 YYYX=             -0.2345 YYYZ=              0.5059 ZZZX=            -13.5162
 ZZZY=             -0.6555 XXYY=           -499.0448 XXZZ=           -283.9701 YYZZ=           -130.2873
 XXYZ=              0.4972 YYXZ=            -42.6464 ZZXY=             -0.0630
 N-N= 5.263520661529D+02 E-N=-2.346323136839D+03  KE= 5.493638225365D+02
 1\1\GINC-D10S4B4\FOpt\RwB97XD\def2TZVP\C5H9N1O4\PMMASS\02-Mar-2022\0\\
 #n wB97XD/Def2TZVP scrf(smd,solvent=toluene) opt int=(grid=ultrafine)\
 \dieneophile diels-alder toluene 2 h2o - opt\\0,1\C,1.130453644,0.3145
 795205,0.1225101482\C,0.6618748789,-1.1063475137,0.1379801908\C,-0.662
 0101781,-1.1054513569,0.1005386\C,-1.1304096407,0.31543377,0.061160922
 3\H,1.3546737272,-1.9339616107,0.1717061652\H,-1.3569846975,-1.9320130
 468,0.0960059587\C,0.0153180584,2.5518781607,0.0451510175\H,-1.0158848
 848,2.8972132403,0.0288462772\H,0.5163241047,2.9470446544,0.9283248227
 \H,0.5301242986,2.9063044129,-0.8476337592\N,0.0016259341,1.1078763115
 ,0.0794058582\O,-2.2662829127,0.7226879631,0.0202813556\O,2.2646855343
 ,0.7290020646,0.1420353424\O,-3.9444775601,-1.629763922,-0.1089273748\
 H,-4.5515552267,-1.6518930865,0.6321777667\H,-3.5467553634,-0.74819289
 68,-0.0873771337\O,3.9416330311,-1.6246044139,0.2064637699\H,3.5466619
 196,-0.7413977903,0.2063807651\H,4.522215333,-1.6427644604,-0.55566069
 28\\Version=ES64L-G09RevD.01\State=1-A\HF=-551.680965\RMSD=3.533e-09\R
 MSF=5.530e-06\Dipole=-0.0296785,0.8652064,0.0149794\Quadrupole=-6.1762
 764,3.0431445,3.1331319,-0.0171268,-10.4329272,-0.194276\PG=C01 [X(C5H
 9N1O4)]\\@


 THE WHOLE OF SCIENCE IS NOTHING MORE THAN A REFINEMENT OF EVERYDAY THINKING.
                                                              -- A. EINSTEIN
 Job cpu time:       0 days 19 hours 57 minutes 14.9 seconds.
 File lengths (MBytes):  RWF=    181 Int=      0 D2E=      0 Chk=     12 Scr=      1
 Normal termination of Gaussian 09 at Wed Mar  2 21:48:32 2022.
