 Entering Gaussian System, Link 0=g09
 Input=ts_diels_water3.com
 Output=ts_diels_water3.log
 Initial command:
 /apps/applications/gaussian/G09.D01/2/default/g09/l1.exe "/nobackup/pmmass/Temp/Gau-115080.inp" -scrdir="/nobackup/pmmass/Temp/"
 Entering Link 1 = /apps/applications/gaussian/G09.D01/2/default/g09/l1.exe PID=    115081.
  
 Copyright (c) 1988,1990,1992,1993,1995,1998,2003,2009,2013,
            Gaussian, Inc.  All Rights Reserved.
  
 This is part of the Gaussian(R) 09 program.  It is based on
 the Gaussian(R) 03 system (copyright 2003, Gaussian, Inc.),
 the Gaussian(R) 98 system (copyright 1998, Gaussian, Inc.),
 the Gaussian(R) 94 system (copyright 1995, Gaussian, Inc.),
 the Gaussian 92(TM) system (copyright 1992, Gaussian, Inc.),
 the Gaussian 90(TM) system (copyright 1990, Gaussian, Inc.),
 the Gaussian 88(TM) system (copyright 1988, Gaussian, Inc.),
 the Gaussian 86(TM) system (copyright 1986, Carnegie Mellon
 University), and the Gaussian 82(TM) system (copyright 1983,
 Carnegie Mellon University). Gaussian is a federally registered
 trademark of Gaussian, Inc.
  
 This software contains proprietary and confidential information,
 including trade secrets, belonging to Gaussian, Inc.
  
 This software is provided under written license and may be
 used, copied, transmitted, or stored only in accord with that
 written license.
  
 The following legend is applicable only to US Government
 contracts under FAR:
  
                    RESTRICTED RIGHTS LEGEND
  
 Use, reproduction and disclosure by the US Government is
 subject to restrictions as set forth in subparagraphs (a)
 and (c) of the Commercial Computer Software - Restricted
 Rights clause in FAR 52.227-19.
  
 Gaussian, Inc.
 340 Quinnipiac St., Bldg. 40, Wallingford CT 06492
  
  
 ---------------------------------------------------------------
 Warning -- This program may not be used in any manner that
 competes with the business of Gaussian, Inc. or will provide
 assistance to any competitor of Gaussian, Inc.  The licensee
 of this program is prohibited from giving any competitor of
 Gaussian, Inc. access to this program.  By using this program,
 the user acknowledges that Gaussian, Inc. is engaged in the
 business of creating and licensing software in the field of
 computational chemistry and represents and warrants to the
 licensee that it is not a competitor of Gaussian, Inc. and that
 it will not use this program in any manner prohibited above.
 ---------------------------------------------------------------
  

 Cite this work as:
 Gaussian 09, Revision D.01,
 M. J. Frisch, G. W. Trucks, H. B. Schlegel, G. E. Scuseria, 
 M. A. Robb, J. R. Cheeseman, G. Scalmani, V. Barone, B. Mennucci, 
 G. A. Petersson, H. Nakatsuji, M. Caricato, X. Li, H. P. Hratchian, 
 A. F. Izmaylov, J. Bloino, G. Zheng, J. L. Sonnenberg, M. Hada, 
 M. Ehara, K. Toyota, R. Fukuda, J. Hasegawa, M. Ishida, T. Nakajima, 
 Y. Honda, O. Kitao, H. Nakai, T. Vreven, J. A. Montgomery, Jr., 
 J. E. Peralta, F. Ogliaro, M. Bearpark, J. J. Heyd, E. Brothers, 
 K. N. Kudin, V. N. Staroverov, T. Keith, R. Kobayashi, J. Normand, 
 K. Raghavachari, A. Rendell, J. C. Burant, S. S. Iyengar, J. Tomasi, 
 M. Cossi, N. Rega, J. M. Millam, M. Klene, J. E. Knox, J. B. Cross, 
 V. Bakken, C. Adamo, J. Jaramillo, R. Gomperts, R. E. Stratmann, 
 O. Yazyev, A. J. Austin, R. Cammi, C. Pomelli, J. W. Ochterski, 
 R. L. Martin, K. Morokuma, V. G. Zakrzewski, G. A. Voth, 
 P. Salvador, J. J. Dannenberg, S. Dapprich, A. D. Daniels, 
 O. Farkas, J. B. Foresman, J. V. Ortiz, J. Cioslowski, 
 and D. J. Fox, Gaussian, Inc., Wallingford CT, 2013.
 
 ******************************************
 Gaussian 09:  ES64L-G09RevD.01 24-Apr-2013
                28-Feb-2022 
 ******************************************
 %nprocshared=8
 Will use up to    8 processors via shared memory.
 %mem=4GB
 %NoSave
 %chk="ts_diels_water3.chk"
 ----------------------------------------------------------------------
 #n wB97XD/Def2TZVP scrf(smd,solvent=toluene) opt=(calcfc,ts,noeigentes
 t) int=(grid=ultrafine)
 ----------------------------------------------------------------------
 1/5=1,10=4,11=1,14=-1,18=20,26=4,38=1/1,3;
 2/9=110,12=2,17=6,18=5,40=1/2;
 3/5=44,7=101,11=2,16=1,25=1,30=1,70=32201,71=2,72=13,74=-58,75=-5,140=1/1,2,3;
 4//1;
 5/5=2,38=5,53=13/2;
 8/6=4,10=90,11=11/1;
 11/6=1,8=1,9=11,15=111,16=1/1,2,10;
 10/6=1,13=1/2;
 6/7=2,8=2,9=2,10=2,28=1/1;
 7/10=1,18=20,25=1/1,2,3,16;
 1/5=1,10=4,11=1,14=-1,18=20,26=4/3(2);
 2/9=110/2;
 99//99;
 2/9=110/2;
 3/5=44,7=101,11=2,16=1,25=1,30=1,70=32205,71=1,72=13,74=-58,75=-5/1,2,3;
 4/5=5,16=3,69=1/1;
 5/5=2,38=5,53=13/2;
 7//1,2,3,16;
 1/5=1,11=1,14=-1,18=20,26=4/3(-5);
 2/9=110/2;
 6/7=2,8=2,9=2,10=2,19=2,28=1/1;
 99/9=1/99;
 ----------------------------------
 ts diels alder toluene 4 h2o - opt
 ----------------------------------
 Symbolic Z-matrix:
 Charge =  0 Multiplicity = 1
 C                    -2.63983   0.70491  -0.74702 
 C                    -1.90944  -0.57175  -0.59402 
 C                    -0.55735  -0.27239  -0.53338 
 C                    -0.42715   1.1947   -0.66348 
 H                    -2.34351  -1.48753  -0.9601 
 H                     0.24388  -0.93185  -0.8356 
 C                    -1.99678   3.13609  -0.73333 
 H                    -1.61913   3.55296  -1.66791 
 H                    -3.07701   3.2566   -0.69881 
 H                    -1.54616   3.66774   0.1046 
 N                    -1.70175   1.72606  -0.64354 
 O                     0.58608   1.85889  -0.7725 
 O                    -3.82224   0.89136  -0.94374 
 C                    -1.66046  -1.93988   1.84881 
 H                    -1.89377  -2.99791   1.91011 
 C                    -0.32024  -1.56459   1.90895 
 H                     0.42534  -2.34665   2.00008 
 C                    -2.67267  -1.07071   1.50405 
 H                    -2.53396  -0.0132    1.70144 
 C                    -4.09199  -1.51267   1.37271 
 H                    -4.64427  -0.88537   0.67395 
 H                    -4.16547  -2.54986   1.04605 
 H                    -4.59209  -1.42206   2.34232 
 C                     0.09986  -0.28553   1.6164 
 H                    -0.56986   0.5453    1.80913 
 C                     1.54194   0.11473   1.62201 
 H                     1.92438   0.13912   2.64696 
 H                     1.65314   1.10639   1.18894 
 C                     3.44799  -0.54065   0.30195 
 C                     4.10876   0.75816   0.63878 
 H                     4.07687   0.95599   1.71028 
 H                     5.13836   0.73235   0.29128 
 H                     3.58609   1.57331   0.13285 
 O                     2.28726  -0.84532   0.866 
 O                     3.91484  -1.35079  -0.47213 
 H                    -4.6724   -0.66922  -1.69218 
 H                     1.41891   4.62142   0.95212 
 H                     2.37367  -2.41757  -1.11983 
 H                     5.57345  -0.91724  -1.34873 
 O                     1.54673  -2.73225  -1.51117 
 H                     1.76417  -2.94578  -2.41975 
 O                     6.37475  -0.52738  -1.72754 
 H                     6.07456  -0.03929  -2.49561 
 O                     1.0284    3.78895   1.22225 
 H                     0.89677   3.28515   0.40573 
 O                    -4.93128  -1.51517  -2.08617 
 H                    -4.99173  -1.34396  -3.02708 
 
 Add virtual bond connecting atoms H45        and O12        Dist= 3.54D+00.
 Add virtual bond connecting atoms H39        and O35        Dist= 3.64D+00.
 Add virtual bond connecting atoms H36        and O13        Dist= 3.64D+00.
 Add virtual bond connecting atoms H38        and O35        Dist= 3.75D+00.
 Add virtual bond connecting atoms C18        and C2         Dist= 4.32D+00.
 Add virtual bond connecting atoms H21        and H36        Dist= 4.49D+00.
 Add virtual bond connecting atoms C24        and C3         Dist= 4.25D+00.
 Add virtual bond connecting atoms H28        and O12        Dist= 4.45D+00.
 Add virtual bond connecting atoms O40        and H6         Dist= 4.39D+00.

 GradGradGradGradGradGradGradGradGradGradGradGradGradGradGradGradGradGrad
 Berny optimization.
 Initialization pass.
                           ----------------------------
                           !    Initial Parameters    !
                           ! (Angstroms and Degrees)  !
 --------------------------                            --------------------------
 ! Name  Definition              Value          Derivative Info.                !
 --------------------------------------------------------------------------------
 ! R1    R(1,2)                  1.4788         calculate D2E/DX2 analytically  !
 ! R2    R(1,11)                 1.3905         calculate D2E/DX2 analytically  !
 ! R3    R(1,13)                 1.2131         calculate D2E/DX2 analytically  !
 ! R4    R(2,3)                  1.3862         calculate D2E/DX2 analytically  !
 ! R5    R(2,5)                  1.0775         calculate D2E/DX2 analytically  !
 ! R6    R(2,18)                 2.2877         calculate D2E/DX2 analytically  !
 ! R7    R(3,4)                  1.4786         calculate D2E/DX2 analytically  !
 ! R8    R(3,6)                  1.0808         calculate D2E/DX2 analytically  !
 ! R9    R(3,24)                 2.248          calculate D2E/DX2 analytically  !
 ! R10   R(4,11)                 1.3811         calculate D2E/DX2 analytically  !
 ! R11   R(4,12)                 1.2164         calculate D2E/DX2 analytically  !
 ! R12   R(6,40)                 2.3228         calculate D2E/DX2 analytically  !
 ! R13   R(7,8)                  1.0908         calculate D2E/DX2 analytically  !
 ! R14   R(7,9)                  1.0875         calculate D2E/DX2 analytically  !
 ! R15   R(7,10)                 1.0899         calculate D2E/DX2 analytically  !
 ! R16   R(7,11)                 1.4434         calculate D2E/DX2 analytically  !
 ! R17   R(12,28)                2.3563         calculate D2E/DX2 analytically  !
 ! R18   R(12,45)                1.8759         calculate D2E/DX2 analytically  !
 ! R19   R(13,36)                1.9283         calculate D2E/DX2 analytically  !
 ! R20   R(14,15)                1.0852         calculate D2E/DX2 analytically  !
 ! R21   R(14,16)                1.3931         calculate D2E/DX2 analytically  !
 ! R22   R(14,18)                1.378          calculate D2E/DX2 analytically  !
 ! R23   R(16,17)                1.0843         calculate D2E/DX2 analytically  !
 ! R24   R(16,24)                1.3777         calculate D2E/DX2 analytically  !
 ! R25   R(18,19)                1.0847         calculate D2E/DX2 analytically  !
 ! R26   R(18,20)                1.4923         calculate D2E/DX2 analytically  !
 ! R27   R(20,21)                1.0894         calculate D2E/DX2 analytically  !
 ! R28   R(20,22)                1.0899         calculate D2E/DX2 analytically  !
 ! R29   R(20,23)                1.0947         calculate D2E/DX2 analytically  !
 ! R30   R(21,36)                2.3761         calculate D2E/DX2 analytically  !
 ! R31   R(24,25)                1.0844         calculate D2E/DX2 analytically  !
 ! R32   R(24,26)                1.4966         calculate D2E/DX2 analytically  !
 ! R33   R(26,27)                1.0942         calculate D2E/DX2 analytically  !
 ! R34   R(26,28)                1.0878         calculate D2E/DX2 analytically  !
 ! R35   R(26,34)                1.4313         calculate D2E/DX2 analytically  !
 ! R36   R(29,30)                1.4957         calculate D2E/DX2 analytically  !
 ! R37   R(29,34)                1.326          calculate D2E/DX2 analytically  !
 ! R38   R(29,35)                1.2139         calculate D2E/DX2 analytically  !
 ! R39   R(30,31)                1.0901         calculate D2E/DX2 analytically  !
 ! R40   R(30,32)                1.087          calculate D2E/DX2 analytically  !
 ! R41   R(30,33)                1.0925         calculate D2E/DX2 analytically  !
 ! R42   R(35,38)                1.9831         calculate D2E/DX2 analytically  !
 ! R43   R(35,39)                1.9255         calculate D2E/DX2 analytically  !
 ! R44   R(36,46)                0.9684         calculate D2E/DX2 analytically  !
 ! R45   R(37,44)                0.9584         calculate D2E/DX2 analytically  !
 ! R46   R(38,40)                0.9675         calculate D2E/DX2 analytically  !
 ! R47   R(39,42)                0.9683         calculate D2E/DX2 analytically  !
 ! R48   R(40,41)                0.9583         calculate D2E/DX2 analytically  !
 ! R49   R(42,43)                0.9583         calculate D2E/DX2 analytically  !
 ! R50   R(44,45)                0.9684         calculate D2E/DX2 analytically  !
 ! R51   R(46,47)                0.9583         calculate D2E/DX2 analytically  !
 ! A1    A(2,1,11)             107.0434         calculate D2E/DX2 analytically  !
 ! A2    A(2,1,13)             129.117          calculate D2E/DX2 analytically  !
 ! A3    A(11,1,13)            123.8334         calculate D2E/DX2 analytically  !
 ! A4    A(1,2,3)              107.4491         calculate D2E/DX2 analytically  !
 ! A5    A(1,2,5)              119.9742         calculate D2E/DX2 analytically  !
 ! A6    A(1,2,18)              96.8            calculate D2E/DX2 analytically  !
 ! A7    A(3,2,5)              126.2522         calculate D2E/DX2 analytically  !
 ! A8    A(3,2,18)             109.4152         calculate D2E/DX2 analytically  !
 ! A9    A(5,2,18)              89.5311         calculate D2E/DX2 analytically  !
 ! A10   A(2,3,4)              107.2371         calculate D2E/DX2 analytically  !
 ! A11   A(2,3,6)              125.3864         calculate D2E/DX2 analytically  !
 ! A12   A(2,3,24)             109.0102         calculate D2E/DX2 analytically  !
 ! A13   A(4,3,6)              121.0319         calculate D2E/DX2 analytically  !
 ! A14   A(4,3,24)              93.6809         calculate D2E/DX2 analytically  !
 ! A15   A(6,3,24)              92.7002         calculate D2E/DX2 analytically  !
 ! A16   A(3,4,11)             107.4104         calculate D2E/DX2 analytically  !
 ! A17   A(3,4,12)             128.5362         calculate D2E/DX2 analytically  !
 ! A18   A(11,4,12)            124.0533         calculate D2E/DX2 analytically  !
 ! A19   A(8,7,9)              109.1931         calculate D2E/DX2 analytically  !
 ! A20   A(8,7,10)             109.2172         calculate D2E/DX2 analytically  !
 ! A21   A(8,7,11)             110.8472         calculate D2E/DX2 analytically  !
 ! A22   A(9,7,10)             109.4048         calculate D2E/DX2 analytically  !
 ! A23   A(9,7,11)             108.0185         calculate D2E/DX2 analytically  !
 ! A24   A(10,7,11)            110.133          calculate D2E/DX2 analytically  !
 ! A25   A(1,11,4)             109.8164         calculate D2E/DX2 analytically  !
 ! A26   A(1,11,7)             125.0923         calculate D2E/DX2 analytically  !
 ! A27   A(4,11,7)             124.3059         calculate D2E/DX2 analytically  !
 ! A28   A(4,12,28)             97.3673         calculate D2E/DX2 analytically  !
 ! A29   A(4,12,45)            119.7893         calculate D2E/DX2 analytically  !
 ! A30   A(28,12,45)            69.2047         calculate D2E/DX2 analytically  !
 ! A31   A(1,13,36)            111.6103         calculate D2E/DX2 analytically  !
 ! A32   A(15,14,16)           117.8435         calculate D2E/DX2 analytically  !
 ! A33   A(15,14,18)           118.1105         calculate D2E/DX2 analytically  !
 ! A34   A(16,14,18)           123.1998         calculate D2E/DX2 analytically  !
 ! A35   A(14,16,17)           118.0881         calculate D2E/DX2 analytically  !
 ! A36   A(14,16,24)           122.2965         calculate D2E/DX2 analytically  !
 ! A37   A(17,16,24)           118.5398         calculate D2E/DX2 analytically  !
 ! A38   A(2,18,14)             97.0052         calculate D2E/DX2 analytically  !
 ! A39   A(2,18,19)             84.9277         calculate D2E/DX2 analytically  !
 ! A40   A(2,18,20)            107.5288         calculate D2E/DX2 analytically  !
 ! A41   A(14,18,19)           118.3908         calculate D2E/DX2 analytically  !
 ! A42   A(14,18,20)           122.2649         calculate D2E/DX2 analytically  !
 ! A43   A(19,18,20)           115.2378         calculate D2E/DX2 analytically  !
 ! A44   A(18,20,21)           111.597          calculate D2E/DX2 analytically  !
 ! A45   A(18,20,22)           111.8595         calculate D2E/DX2 analytically  !
 ! A46   A(18,20,23)           109.3908         calculate D2E/DX2 analytically  !
 ! A47   A(21,20,22)           108.757          calculate D2E/DX2 analytically  !
 ! A48   A(21,20,23)           106.7894         calculate D2E/DX2 analytically  !
 ! A49   A(22,20,23)           108.2659         calculate D2E/DX2 analytically  !
 ! A50   A(20,21,36)           134.1946         calculate D2E/DX2 analytically  !
 ! A51   A(3,24,16)             96.8544         calculate D2E/DX2 analytically  !
 ! A52   A(3,24,25)             89.1365         calculate D2E/DX2 analytically  !
 ! A53   A(3,24,26)            106.4823         calculate D2E/DX2 analytically  !
 ! A54   A(16,24,25)           119.0283         calculate D2E/DX2 analytically  !
 ! A55   A(16,24,26)           122.7734         calculate D2E/DX2 analytically  !
 ! A56   A(25,24,26)           112.9244         calculate D2E/DX2 analytically  !
 ! A57   A(24,26,27)           110.2574         calculate D2E/DX2 analytically  !
 ! A58   A(24,26,28)           109.9266         calculate D2E/DX2 analytically  !
 ! A59   A(24,26,34)           108.6857         calculate D2E/DX2 analytically  !
 ! A60   A(27,26,28)           108.4729         calculate D2E/DX2 analytically  !
 ! A61   A(27,26,34)           109.1288         calculate D2E/DX2 analytically  !
 ! A62   A(28,26,34)           110.3618         calculate D2E/DX2 analytically  !
 ! A63   A(12,28,26)           125.1867         calculate D2E/DX2 analytically  !
 ! A64   A(30,29,34)           119.3708         calculate D2E/DX2 analytically  !
 ! A65   A(30,29,35)           123.5914         calculate D2E/DX2 analytically  !
 ! A66   A(34,29,35)           117.0377         calculate D2E/DX2 analytically  !
 ! A67   A(29,30,31)           111.4717         calculate D2E/DX2 analytically  !
 ! A68   A(29,30,32)           109.0176         calculate D2E/DX2 analytically  !
 ! A69   A(29,30,33)           109.4068         calculate D2E/DX2 analytically  !
 ! A70   A(31,30,32)           110.2593         calculate D2E/DX2 analytically  !
 ! A71   A(31,30,33)           107.8056         calculate D2E/DX2 analytically  !
 ! A72   A(32,30,33)           108.8339         calculate D2E/DX2 analytically  !
 ! A73   A(26,34,29)           121.761          calculate D2E/DX2 analytically  !
 ! A74   A(29,35,38)           105.5694         calculate D2E/DX2 analytically  !
 ! A75   A(29,35,39)           118.1215         calculate D2E/DX2 analytically  !
 ! A76   A(38,35,39)           129.9317         calculate D2E/DX2 analytically  !
 ! A77   A(13,36,21)            71.4521         calculate D2E/DX2 analytically  !
 ! A78   A(21,36,46)           109.197          calculate D2E/DX2 analytically  !
 ! A79   A(6,40,38)             96.2963         calculate D2E/DX2 analytically  !
 ! A80   A(6,40,41)            125.1502         calculate D2E/DX2 analytically  !
 ! A81   A(38,40,41)           105.1909         calculate D2E/DX2 analytically  !
 ! A82   A(39,42,43)           105.0349         calculate D2E/DX2 analytically  !
 ! A83   A(37,44,45)           105.6415         calculate D2E/DX2 analytically  !
 ! A84   A(12,45,44)           161.3725         calculate D2E/DX2 analytically  !
 ! A85   A(36,46,47)           105.0852         calculate D2E/DX2 analytically  !
 ! A86   L(3,6,40,15,-1)       169.966          calculate D2E/DX2 analytically  !
 ! A87   L(13,36,46,21,-1)     180.6491         calculate D2E/DX2 analytically  !
 ! A88   L(35,38,40,4,-1)      168.039          calculate D2E/DX2 analytically  !
 ! A89   L(35,39,42,32,-1)     169.7216         calculate D2E/DX2 analytically  !
 ! A90   L(3,6,40,15,-2)       169.9693         calculate D2E/DX2 analytically  !
 ! A91   L(13,36,46,21,-2)     191.2604         calculate D2E/DX2 analytically  !
 ! A92   L(35,38,40,4,-2)      173.1531         calculate D2E/DX2 analytically  !
 ! A93   L(35,39,42,32,-2)     184.032          calculate D2E/DX2 analytically  !
 ! D1    D(11,1,2,3)            -5.5556         calculate D2E/DX2 analytically  !
 ! D2    D(11,1,2,5)          -159.3036         calculate D2E/DX2 analytically  !
 ! D3    D(11,1,2,18)          107.2991         calculate D2E/DX2 analytically  !
 ! D4    D(13,1,2,3)           173.5555         calculate D2E/DX2 analytically  !
 ! D5    D(13,1,2,5)            19.8075         calculate D2E/DX2 analytically  !
 ! D6    D(13,1,2,18)          -73.5899         calculate D2E/DX2 analytically  !
 ! D7    D(2,1,11,4)             9.9735         calculate D2E/DX2 analytically  !
 ! D8    D(2,1,11,7)          -179.8427         calculate D2E/DX2 analytically  !
 ! D9    D(13,1,11,4)         -169.1962         calculate D2E/DX2 analytically  !
 ! D10   D(13,1,11,7)            0.9876         calculate D2E/DX2 analytically  !
 ! D11   D(2,1,13,36)          -21.0624         calculate D2E/DX2 analytically  !
 ! D12   D(11,1,13,36)         157.9145         calculate D2E/DX2 analytically  !
 ! D13   D(1,2,3,4)             -0.6338         calculate D2E/DX2 analytically  !
 ! D14   D(1,2,3,6)           -152.5725         calculate D2E/DX2 analytically  !
 ! D15   D(1,2,3,24)            99.6189         calculate D2E/DX2 analytically  !
 ! D16   D(5,2,3,4)            150.998          calculate D2E/DX2 analytically  !
 ! D17   D(5,2,3,6)             -0.9408         calculate D2E/DX2 analytically  !
 ! D18   D(5,2,3,24)          -108.7493         calculate D2E/DX2 analytically  !
 ! D19   D(18,2,3,4)          -104.661          calculate D2E/DX2 analytically  !
 ! D20   D(18,2,3,6)           103.4002         calculate D2E/DX2 analytically  !
 ! D21   D(18,2,3,24)           -4.4083         calculate D2E/DX2 analytically  !
 ! D22   D(1,2,18,14)         -158.7907         calculate D2E/DX2 analytically  !
 ! D23   D(1,2,18,19)          -40.754          calculate D2E/DX2 analytically  !
 ! D24   D(1,2,18,20)           74.135          calculate D2E/DX2 analytically  !
 ! D25   D(3,2,18,14)          -47.5542         calculate D2E/DX2 analytically  !
 ! D26   D(3,2,18,19)           70.4824         calculate D2E/DX2 analytically  !
 ! D27   D(3,2,18,20)         -174.6285         calculate D2E/DX2 analytically  !
 ! D28   D(5,2,18,14)           81.0643         calculate D2E/DX2 analytically  !
 ! D29   D(5,2,18,19)         -160.8991         calculate D2E/DX2 analytically  !
 ! D30   D(5,2,18,20)          -46.01           calculate D2E/DX2 analytically  !
 ! D31   D(2,3,4,11)             6.6668         calculate D2E/DX2 analytically  !
 ! D32   D(2,3,4,12)          -173.2311         calculate D2E/DX2 analytically  !
 ! D33   D(6,3,4,11)           160.079          calculate D2E/DX2 analytically  !
 ! D34   D(6,3,4,12)           -19.8189         calculate D2E/DX2 analytically  !
 ! D35   D(24,3,4,11)         -104.539          calculate D2E/DX2 analytically  !
 ! D36   D(24,3,4,12)           75.5631         calculate D2E/DX2 analytically  !
 ! D37   D(2,3,40,38)         -162.4424         calculate D2E/DX2 analytically  !
 ! D38   D(2,3,40,41)           80.5369         calculate D2E/DX2 analytically  !
 ! D39   D(4,3,40,38)           50.8255         calculate D2E/DX2 analytically  !
 ! D40   D(4,3,40,41)          -66.1952         calculate D2E/DX2 analytically  !
 ! D41   D(24,3,40,38)         -48.3771         calculate D2E/DX2 analytically  !
 ! D42   D(24,3,40,41)        -165.3978         calculate D2E/DX2 analytically  !
 ! D43   D(2,3,24,16)           55.8081         calculate D2E/DX2 analytically  !
 ! D44   D(2,3,24,25)          -63.3341         calculate D2E/DX2 analytically  !
 ! D45   D(2,3,24,26)         -177.0245         calculate D2E/DX2 analytically  !
 ! D46   D(4,3,24,16)          165.4556         calculate D2E/DX2 analytically  !
 ! D47   D(4,3,24,25)           46.3134         calculate D2E/DX2 analytically  !
 ! D48   D(4,3,24,26)          -67.377          calculate D2E/DX2 analytically  !
 ! D49   D(6,3,24,16)          -73.1994         calculate D2E/DX2 analytically  !
 ! D50   D(6,3,24,25)          167.6584         calculate D2E/DX2 analytically  !
 ! D51   D(6,3,24,26)           53.968          calculate D2E/DX2 analytically  !
 ! D52   D(3,4,11,1)           -10.3888         calculate D2E/DX2 analytically  !
 ! D53   D(3,4,11,7)           179.3337         calculate D2E/DX2 analytically  !
 ! D54   D(12,4,11,1)          169.5148         calculate D2E/DX2 analytically  !
 ! D55   D(12,4,11,7)           -0.7627         calculate D2E/DX2 analytically  !
 ! D56   D(3,4,12,28)          -56.3262         calculate D2E/DX2 analytically  !
 ! D57   D(3,4,12,45)         -126.5421         calculate D2E/DX2 analytically  !
 ! D58   D(11,4,12,28)         123.7914         calculate D2E/DX2 analytically  !
 ! D59   D(11,4,12,45)          53.5755         calculate D2E/DX2 analytically  !
 ! D60   D(8,7,11,1)          -108.7567         calculate D2E/DX2 analytically  !
 ! D61   D(8,7,11,4)            60.047          calculate D2E/DX2 analytically  !
 ! D62   D(9,7,11,1)            10.8335         calculate D2E/DX2 analytically  !
 ! D63   D(9,7,11,4)           179.6372         calculate D2E/DX2 analytically  !
 ! D64   D(10,7,11,1)          130.2636         calculate D2E/DX2 analytically  !
 ! D65   D(10,7,11,4)          -60.9327         calculate D2E/DX2 analytically  !
 ! D66   D(4,12,28,26)          31.3107         calculate D2E/DX2 analytically  !
 ! D67   D(45,12,28,26)        150.4381         calculate D2E/DX2 analytically  !
 ! D68   D(4,12,45,44)          57.4667         calculate D2E/DX2 analytically  !
 ! D69   D(28,12,45,44)        -29.1307         calculate D2E/DX2 analytically  !
 ! D70   D(1,13,36,21)          85.4547         calculate D2E/DX2 analytically  !
 ! D71   D(1,13,46,47)        -100.4427         calculate D2E/DX2 analytically  !
 ! D72   D(15,14,16,17)          0.8323         calculate D2E/DX2 analytically  !
 ! D73   D(15,14,16,24)        168.7917         calculate D2E/DX2 analytically  !
 ! D74   D(18,14,16,17)       -168.4218         calculate D2E/DX2 analytically  !
 ! D75   D(18,14,16,24)         -0.4624         calculate D2E/DX2 analytically  !
 ! D76   D(15,14,18,2)        -108.5648         calculate D2E/DX2 analytically  !
 ! D77   D(15,14,18,19)        163.432          calculate D2E/DX2 analytically  !
 ! D78   D(15,14,18,20)          7.3119         calculate D2E/DX2 analytically  !
 ! D79   D(16,14,18,2)          60.6624         calculate D2E/DX2 analytically  !
 ! D80   D(16,14,18,19)        -27.3409         calculate D2E/DX2 analytically  !
 ! D81   D(16,14,18,20)        176.5391         calculate D2E/DX2 analytically  !
 ! D82   D(14,16,24,3)         -62.7145         calculate D2E/DX2 analytically  !
 ! D83   D(14,16,24,25)         30.1142         calculate D2E/DX2 analytically  !
 ! D84   D(14,16,24,26)       -177.3756         calculate D2E/DX2 analytically  !
 ! D85   D(17,16,24,3)         105.1928         calculate D2E/DX2 analytically  !
 ! D86   D(17,16,24,25)       -161.9785         calculate D2E/DX2 analytically  !
 ! D87   D(17,16,24,26)         -9.4682         calculate D2E/DX2 analytically  !
 ! D88   D(2,18,20,21)         -42.3187         calculate D2E/DX2 analytically  !
 ! D89   D(2,18,20,22)          79.784          calculate D2E/DX2 analytically  !
 ! D90   D(2,18,20,23)        -160.2675         calculate D2E/DX2 analytically  !
 ! D91   D(14,18,20,21)       -152.8461         calculate D2E/DX2 analytically  !
 ! D92   D(14,18,20,22)        -30.7434         calculate D2E/DX2 analytically  !
 ! D93   D(14,18,20,23)         89.2051         calculate D2E/DX2 analytically  !
 ! D94   D(19,18,20,21)         50.3396         calculate D2E/DX2 analytically  !
 ! D95   D(19,18,20,22)        172.4424         calculate D2E/DX2 analytically  !
 ! D96   D(19,18,20,23)        -67.6091         calculate D2E/DX2 analytically  !
 ! D97   D(18,20,21,36)         73.9217         calculate D2E/DX2 analytically  !
 ! D98   D(22,20,21,36)        -49.9502         calculate D2E/DX2 analytically  !
 ! D99   D(23,20,21,36)       -166.5788         calculate D2E/DX2 analytically  !
 ! D100  D(20,21,36,13)       -108.4653         calculate D2E/DX2 analytically  !
 ! D101  D(20,21,36,46)         60.2743         calculate D2E/DX2 analytically  !
 ! D102  D(3,24,26,27)         179.3866         calculate D2E/DX2 analytically  !
 ! D103  D(3,24,26,28)          59.8453         calculate D2E/DX2 analytically  !
 ! D104  D(3,24,26,34)         -61.0389         calculate D2E/DX2 analytically  !
 ! D105  D(16,24,26,27)        -70.8273         calculate D2E/DX2 analytically  !
 ! D106  D(16,24,26,28)        169.6314         calculate D2E/DX2 analytically  !
 ! D107  D(16,24,26,34)         48.7472         calculate D2E/DX2 analytically  !
 ! D108  D(25,24,26,27)         83.1826         calculate D2E/DX2 analytically  !
 ! D109  D(25,24,26,28)        -36.3587         calculate D2E/DX2 analytically  !
 ! D110  D(25,24,26,34)       -157.2429         calculate D2E/DX2 analytically  !
 ! D111  D(24,26,28,12)        -44.2405         calculate D2E/DX2 analytically  !
 ! D112  D(27,26,28,12)       -164.8646         calculate D2E/DX2 analytically  !
 ! D113  D(34,26,28,12)         75.6298         calculate D2E/DX2 analytically  !
 ! D114  D(24,26,34,29)        155.8058         calculate D2E/DX2 analytically  !
 ! D115  D(27,26,34,29)        -83.9179         calculate D2E/DX2 analytically  !
 ! D116  D(28,26,34,29)         35.1899         calculate D2E/DX2 analytically  !
 ! D117  D(34,29,30,31)         44.1833         calculate D2E/DX2 analytically  !
 ! D118  D(34,29,30,32)        166.1312         calculate D2E/DX2 analytically  !
 ! D119  D(34,29,30,33)        -74.9574         calculate D2E/DX2 analytically  !
 ! D120  D(35,29,30,31)       -135.8999         calculate D2E/DX2 analytically  !
 ! D121  D(35,29,30,32)        -13.952          calculate D2E/DX2 analytically  !
 ! D122  D(35,29,30,33)        104.9594         calculate D2E/DX2 analytically  !
 ! D123  D(30,29,34,26)         10.0798         calculate D2E/DX2 analytically  !
 ! D124  D(35,29,34,26)       -169.8424         calculate D2E/DX2 analytically  !
 ! D125  D(30,29,35,38)       -156.4362         calculate D2E/DX2 analytically  !
 ! D126  D(30,29,35,39)         -1.6908         calculate D2E/DX2 analytically  !
 ! D127  D(34,29,35,38)         23.4824         calculate D2E/DX2 analytically  !
 ! D128  D(34,29,35,39)        178.2278         calculate D2E/DX2 analytically  !
 ! D129  D(29,35,40,6)          19.902          calculate D2E/DX2 analytically  !
 ! D130  D(29,35,40,41)        146.1904         calculate D2E/DX2 analytically  !
 ! D131  D(39,35,40,6)        -125.9527         calculate D2E/DX2 analytically  !
 ! D132  D(39,35,40,41)          0.3358         calculate D2E/DX2 analytically  !
 ! D133  D(29,35,42,43)        -87.1718         calculate D2E/DX2 analytically  !
 ! D134  D(38,35,42,43)         57.6461         calculate D2E/DX2 analytically  !
 ! D135  D(21,36,46,47)        175.6052         calculate D2E/DX2 analytically  !
 ! D136  D(37,44,45,12)        163.8086         calculate D2E/DX2 analytically  !
 --------------------------------------------------------------------------------
 Trust Radius=3.00D-01 FncErr=1.00D-07 GrdErr=1.00D-06
 Number of steps in this run=    282 maximum allowed number of steps=    282.
 Search for a saddle point of order  1.
 GradGradGradGradGradGradGradGradGradGradGradGradGradGradGradGradGradGrad

                          Input orientation:                          
 ---------------------------------------------------------------------
 Center     Atomic      Atomic             Coordinates (Angstroms)
 Number     Number       Type             X           Y           Z
 ---------------------------------------------------------------------
      1          6           0       -2.639830    0.704910   -0.747020
      2          6           0       -1.909440   -0.571750   -0.594020
      3          6           0       -0.557350   -0.272390   -0.533380
      4          6           0       -0.427150    1.194700   -0.663480
      5          1           0       -2.343510   -1.487530   -0.960100
      6          1           0        0.243880   -0.931850   -0.835600
      7          6           0       -1.996780    3.136090   -0.733330
      8          1           0       -1.619130    3.552960   -1.667910
      9          1           0       -3.077010    3.256600   -0.698810
     10          1           0       -1.546160    3.667740    0.104600
     11          7           0       -1.701750    1.726060   -0.643540
     12          8           0        0.586080    1.858890   -0.772500
     13          8           0       -3.822240    0.891360   -0.943740
     14          6           0       -1.660460   -1.939880    1.848810
     15          1           0       -1.893770   -2.997910    1.910110
     16          6           0       -0.320240   -1.564590    1.908950
     17          1           0        0.425340   -2.346650    2.000080
     18          6           0       -2.672670   -1.070710    1.504050
     19          1           0       -2.533960   -0.013200    1.701440
     20          6           0       -4.091990   -1.512670    1.372710
     21          1           0       -4.644270   -0.885370    0.673950
     22          1           0       -4.165470   -2.549860    1.046050
     23          1           0       -4.592090   -1.422060    2.342320
     24          6           0        0.099860   -0.285530    1.616400
     25          1           0       -0.569860    0.545300    1.809130
     26          6           0        1.541940    0.114730    1.622010
     27          1           0        1.924380    0.139120    2.646960
     28          1           0        1.653140    1.106390    1.188940
     29          6           0        3.447990   -0.540650    0.301950
     30          6           0        4.108760    0.758160    0.638780
     31          1           0        4.076870    0.955990    1.710280
     32          1           0        5.138360    0.732350    0.291280
     33          1           0        3.586090    1.573310    0.132850
     34          8           0        2.287260   -0.845320    0.866000
     35          8           0        3.914840   -1.350790   -0.472130
     36          1           0       -4.672400   -0.669220   -1.692180
     37          1           0        1.418910    4.621420    0.952120
     38          1           0        2.373670   -2.417570   -1.119830
     39          1           0        5.573450   -0.917240   -1.348730
     40          8           0        1.546730   -2.732250   -1.511170
     41          1           0        1.764170   -2.945780   -2.419750
     42          8           0        6.374750   -0.527380   -1.727540
     43          1           0        6.074560   -0.039290   -2.495610
     44          8           0        1.028400    3.788950    1.222250
     45          1           0        0.896770    3.285150    0.405730
     46          8           0       -4.931280   -1.515170   -2.086170
     47          1           0       -4.991730   -1.343960   -3.027080
 ---------------------------------------------------------------------
                    Distance matrix (angstroms):
                    1          2          3          4          5
     1  C    0.000000
     2  C    1.478763   0.000000
     3  C    2.310299   1.386161   0.000000
     4  C    2.267780   2.307023   1.478591   0.000000
     5  H    2.222611   1.077536   2.202050   3.309800   0.000000
     6  H    3.317019   2.196547   1.080830   2.236542   2.649315
     7  C    2.514823   3.711484   3.705358   2.497521   4.642145
     8  H    3.162476   4.272090   4.128903   2.826851   5.141231
     9  H    2.589319   4.003806   4.339335   3.357743   4.807605
    10  H    3.271045   4.311997   4.112103   2.821003   5.324111
    11  N    1.390485   2.307708   2.305556   1.381067   3.292298
    12  O    3.426195   3.488192   2.430425   1.216416   4.451541
    13  O    1.213077   2.433475   3.490303   3.420117   2.801076
    14  C    3.833068   2.810905   3.110017   4.202172   2.925945
    15  H    4.618205   3.486713   3.896809   5.133451   3.274388
    16  C    4.193484   3.126683   2.773261   3.773925   3.511553
    17  H    5.123851   3.915459   3.418575   4.512477   4.143342
    18  C    2.867267   2.287658   3.043520   3.856505   2.520738
    19  H    2.553791   2.443592   2.994760   3.389767   3.048560
    20  C    3.394066   3.084944   4.202993   4.990689   2.915445
    21  H    2.926760   3.030743   4.305381   4.888713   2.885518
    22  H    4.016990   3.419418   4.549725   5.560509   2.910794
    23  H    4.228397   4.067153   5.086307   5.764459   3.995795
    24  C    3.751350   3.000861   2.248033   2.768876   3.748762
    25  H    3.293046   2.969412   2.481154   2.560447   3.866118
    26  C    4.842294   4.158614   3.033577   3.204234   4.932672
    27  H    5.715875   5.070253   4.054983   4.195588   5.819945
    28  H    4.726385   4.322855   3.123089   2.786910   5.226854
    29  C    6.301850   5.431923   4.100303   4.354332   6.002568
    30  C    6.889611   6.285474   4.920221   4.739296   7.016504
    31  H    7.156495   6.593914   5.293290   5.096853   7.370414
    32  H    7.847233   7.221905   5.842147   5.665707   7.903936
    33  H    6.347470   5.943944   4.584601   4.108964   6.761911
    34  O    5.411216   4.451830   3.221540   3.724112   5.019074
    35  O    6.874967   5.877414   4.600781   5.036766   6.278834
    36  H    2.629240   2.974795   4.293475   4.749165   2.574743
    37  H    5.890628   6.359047   5.482854   4.214322   7.425070
    38  H    5.918112   4.693459   3.679212   4.593620   4.810642
    39  H    8.393533   7.528784   6.218307   6.398207   7.946982
    40  O    5.470400   4.177803   3.381440   4.476127   4.121526
    41  H    5.959931   4.739696   4.011840   5.002993   4.596750
    42  O    9.151099   8.361497   7.038824   7.096734   8.804482
    43  H    8.919192   8.224586   6.920037   6.866707   8.678657
    44  O    5.181239   5.562863   4.700141   3.522036   6.631265
    45  H    4.527031   4.873396   3.956322   2.695544   5.928185
    46  O    3.460176   3.499724   4.804885   5.445606   2.822295
    47  H    3.863674   4.002075   5.199089   5.732956   3.362453
                    6          7          8          9         10
     6  H    0.000000
     7  C    4.645337   0.000000
     8  H    4.927176   1.090798   0.000000
     9  H    5.346974   1.087479   1.775499   0.000000
    10  H    5.024385   1.089879   1.777721   1.777078   0.000000
    11  N    3.299522   1.443361   2.096121   2.058385   2.086634
    12  O    2.812350   2.881656   2.921401   3.921384   2.930476
    13  O    4.457479   2.900929   3.530188   2.491931   3.740032
    14  C    3.442193   5.704913   6.522294   5.958220   5.873733
    15  H    4.046860   6.680145   7.469374   6.879347   6.914592
    16  C    2.872481   5.647019   6.377332   6.135476   5.668848
    17  H    3.174219   6.587764   7.241506   7.137708   6.607007
    18  C    3.741592   4.812470   5.705226   4.872545   5.067583
    19  H    3.872581   4.016802   4.990684   4.092395   4.132187
    20  C    4.900383   5.516908   6.404765   5.297860   5.909822
    21  H    5.116142   5.016152   5.859569   4.636452   5.536538
    22  H    5.059736   6.340303   7.147995   6.159891   6.812170
    23  H    5.807417   6.080460   7.047784   5.782197   6.339649
    24  C    2.539838   4.650227   5.336256   5.291445   4.541284
    25  H    3.136677   3.900307   4.715590   4.463935   3.688932
    26  C    2.969871   5.215245   5.712912   6.049153   4.945986
    27  H    4.012391   5.981947   6.544377   6.776929   5.564117
    28  H    3.199875   4.597469   4.985484   5.528230   4.239319
    29  C    3.422481   6.650996   6.805417   7.615527   6.533837
    30  C    4.468470   6.694390   6.777938   7.724418   6.381937
    31  H    4.973656   6.900238   7.113427   7.891421   6.445949
    32  H    5.291064   7.598553   7.580101   8.651267   7.303025
    33  H    4.287667   5.861825   5.852868   6.922574   5.543232
    34  O    2.660513   6.063207   6.405111   6.931794   5.970138
    35  O    3.712623   7.426141   7.490092   8.376479   7.439139
    36  H    4.997251   4.749602   5.210552   4.352484   5.640126
    37  H    5.951088   4.088262   4.151608   4.980120   3.227915
    38  H    2.612309   7.077666   7.203476   7.879300   7.341341
    39  H    5.354235   8.609099   8.474537   9.626723   8.592034
    40  O    2.322768   6.899197   7.039254   7.609548   7.289482
    41  H    2.979384   7.346965   7.365161   8.054078   7.814683
    42  O    6.208600   9.191952   8.975235  10.232915   9.148584
    43  H    6.127734   8.850717   8.531249   9.891543   8.864454
    44  O    5.209239   3.660906   3.926593   4.563799   2.809305
    45  H    4.444126   3.113247   3.271308   4.124530   2.490976
    46  O    5.355975   5.663540   6.068873   5.304043   6.566663
    47  H    5.690697   5.856779   6.099311   5.500195   6.840797
                   11         12         13         14         15
    11  N    0.000000
    12  O    2.295308   0.000000
    13  O    2.298548   4.516495   0.000000
    14  C    4.433129   5.133114   4.526317   0.000000
    15  H    5.373443   6.077381   5.195178   1.085181   0.000000
    16  C    4.387727   4.442050   5.141355   1.393072   2.128475
    17  H    5.300963   5.039802   6.098584   2.130471   2.410499
    18  C    3.657424   4.938085   3.341093   1.378000   2.117940
    19  H    3.035874   4.399972   3.078128   2.120570   3.059719
    20  C    4.501987   6.152535   3.349338   2.514263   2.706826
    21  H    4.148948   6.081097   2.539572   3.375709   3.681870
    22  H    5.216141   6.732119   3.989870   2.700292   2.471431
    23  H    5.213452   6.876059   4.091793   3.017639   3.154527
    24  C    3.521310   3.246812   4.829312   2.426853   3.379028
    25  H    2.948043   3.118738   4.275047   2.714241   3.783817
    26  C    4.272075   3.112787   5.996720   3.811591   4.644958
    27  H    5.147289   4.054795   6.817817   4.220232   4.996216
    28  H    3.872630   2.356294   5.879996   4.549191   5.472288
    29  C    5.705414   3.886227   7.513896   5.517869   6.095794
    30  C    6.028532   3.951277   8.088441   6.482861   7.194075
    31  H    6.286965   4.377789   8.333303   6.428235   7.163923
    32  H    6.974844   4.808739   9.046707   7.469315   8.123195
    33  H    5.346715   3.146629   7.517144   6.543188   7.354153
    34  O    4.980252   3.590466   6.604332   4.212893   4.817138
    35  O    6.406440   4.633887   8.069204   6.067764   6.490610
    36  H    3.957496   5.906671   1.928301   4.819229   5.110780
    37  H    4.546181   3.361472   6.706511   7.303234   8.363360
    38  H    5.831429   4.648035   7.026331   5.031423   5.265774
    39  H    7.772571   5.736968   9.576745   7.974930   8.408841
    40  O    5.584078   4.748373   6.502182   4.712047   4.859298
    41  H    6.082237   5.214037   6.936154   5.564219   5.668415
    42  O    8.454756   6.333647  10.325007   8.907864   9.365065
    43  H    8.186429   6.057690  10.060868   9.072859   9.573823
    44  O    3.897487   2.810659   6.051136   6.359406   7.421166
    45  H    3.206873   1.875892   5.460802   5.993567   7.037550
    46  O    4.797564   6.599339   2.885568   5.134463   5.234046
    47  H    5.092176   6.815669   3.271799   5.935216   6.058775
                   16         17         18         19         20
    16  C    0.000000
    17  H    1.084349   0.000000
    18  C    2.437578   3.386995   0.000000
    19  H    2.711167   3.780427   1.084680   0.000000
    20  C    3.810032   4.636312   1.492330   2.187220   0.000000
    21  H    4.547945   5.440120   2.147236   2.503962   1.089396
    22  H    4.062160   4.693294   2.150837   3.086423   1.089894
    23  H    4.296141   5.113374   2.123751   2.575172   1.094739
    24  C    1.377702   2.121642   2.883757   2.649227   4.374570
    25  H    2.126949   3.064353   2.669527   2.044800   4.102573
    26  C    2.523918   2.729125   4.379740   4.078681   5.869561
    27  H    2.913006   2.973992   4.889049   4.560044   6.367796
    28  H    3.398055   3.753522   4.853008   4.364395   6.316626
    29  C    4.222613   3.909181   6.260071   6.166077   7.677412
    30  C    5.159897   5.006053   7.076811   6.771261   8.540938
    31  H    5.072215   4.932047   7.050272   6.681503   8.540405
    32  H    6.139145   5.883264   8.107652   7.836382   9.560804
    33  H    5.316048   5.370566   6.931314   6.514023   8.367403
    34  O    2.898991   2.647050   5.005878   4.963320   6.434046
    35  O    4.863245   4.390919   6.883242   6.935458   8.218209
    36  H    5.719364   6.514101   3.791570   4.064473   3.231383
    37  H    6.496683   7.116137   7.031785   6.137293   8.256753
    38  H    4.142250   3.678975   5.845026   6.150235   6.988302
    39  H    6.765140   6.305615   8.726993   8.709243  10.058902
    40  O    4.067705   3.706087   5.445696   5.862263   6.449752
    41  H    4.999009   4.656857   6.212700   6.637632   7.122581
    42  O    7.689132   7.252611   9.622587   9.559676  10.960611
    43  H    7.913290   7.579500   9.673424   9.577188  10.976953
    44  O    5.563342   6.214040   6.115033   5.232244   7.372124
    45  H    5.221184   5.872084   5.737659   4.932331   6.988695
    46  O    6.101239   6.788385   4.264803   4.727478   3.559251
    47  H    6.799698   7.458041   5.097435   5.492764   4.494012
                   21         22         23         24         25
    21  H    0.000000
    22  H    1.771506   0.000000
    23  H    1.753345   1.770382   0.000000
    24  C    4.873889   4.862667   4.881911   0.000000
    25  H    4.465005   4.805280   4.509227   1.084411   0.000000
    26  C    6.337840   6.325053   6.364503   1.496608   2.163355
    27  H    6.934660   6.846882   6.707792   2.138049   2.662363
    28  H    6.624930   6.873486   6.835660   2.129047   2.375118
    29  C    8.108137   7.909196   8.341635   3.605945   4.426511
    30  C    8.906063   8.920300   9.130181   4.256326   4.827475
    31  H    8.973454   8.981556   9.011407   4.167349   4.665891
    32  H    9.922868   9.894637  10.174965   5.308343   5.909537
    33  H    8.606784   8.827296   8.985356   4.220190   4.597678
    34  O    6.934306   6.676496   7.059575   2.379324   3.314582
    35  O    8.648033   8.308673   8.960696   4.477813   5.376973
    36  H    2.376149   3.360311   4.104925   5.819655   5.528568
    37  H    8.195381   9.089630   8.636459   5.124385   4.615672
    38  H    7.403835   6.889767   7.842151   4.147621   5.101154
    39  H   10.416048  10.161052  10.826675   6.257095   7.060550
    40  O    6.820132   6.261140   7.365534   4.226295   5.123151
    41  H    7.408399   6.879619   8.087093   5.112471   5.959762
    42  O   11.283356  11.085101  11.731828   7.114399   7.866784
    43  H   11.209607  11.122254  11.793856   7.257155   7.938567
    44  O    7.370827   8.196819   7.745908   4.197491   3.663349
    45  H    6.940339   7.751363   7.485706   3.853640   3.409885
    46  O    2.845573   3.386421   4.442437   6.366585   6.200071
    47  H    3.745485   4.327504   5.384818   6.971834   6.819909
                   26         27         28         29         30
    26  C    0.000000
    27  H    1.094248   0.000000
    28  H    1.087798   1.770594   0.000000
    29  C    2.409379   2.877941   2.592485   0.000000
    30  C    2.822996   3.031091   2.540474   1.495653   0.000000
    31  H    2.672336   2.485530   2.483724   2.149143   1.090076
    32  H    3.884139   4.028749   3.618350   2.116127   1.086968
    33  H    2.919521   3.337504   2.251585   2.125204   1.092529
    34  O    1.431345   2.067032   2.077395   1.325998   2.437343
    35  O    3.487668   3.988795   3.729903   1.213868   2.391526
    36  H    7.086357   7.937194   7.173988   8.362644   9.196715
    37  H    4.557866   4.818609   3.530777   5.584519   4.717865
    38  H    3.823873   4.574629   4.274094   2.588136   4.023494
    39  H    5.113055   5.513361   5.089566   2.717378   2.983702
    40  O    4.233454   5.067290   4.694366   3.421302   4.834175
    41  H    5.074636   5.934124   5.427251   4.003442   5.345173
    42  O    5.915052   6.275848   5.785211   3.561591   3.519488
    43  H    6.125615   6.610738   5.868343   3.869958   3.784798
    44  O    3.731410   4.019184   2.754549   5.044483   4.360590
    45  H    3.456464   3.997074   2.435674   4.599591   4.093516
    46  O    7.636082   8.493484   7.807273   8.767267   9.711627
    47  H    8.150500   9.067901   8.242168   9.108053  10.033761
                   31         32         33         34         35
    31  H    0.000000
    32  H    1.786151   0.000000
    33  H    1.763586   1.772528   0.000000
    34  O    2.675861   3.308794   2.841521   0.000000
    35  O    3.179686   2.533627   3.004070   2.166820   0.000000
    36  H    9.527212  10.106905   8.749990   7.417019   8.700216
    37  H    4.590744   5.421797   3.828687   5.535946   6.627628
    38  H    4.721368   4.422300   4.355031   2.534355   1.983114
    39  H    3.886680   2.366450   3.513904   3.963489   1.925456
    40  O    5.512029   5.305854   5.039805   3.124072   2.931890
    41  H    6.134292   5.680095   5.500667   3.934680   3.310981
    42  O    4.393091   2.681644   3.956081   4.851300   2.881877
    43  H    4.761392   3.039516   3.962545   5.127743   3.237112
    44  O    4.190108   5.205889   3.554945   4.815402   6.133464
    45  H    4.152093   4.951866   3.199578   4.382476   5.601011
    46  O   10.082977  10.587788   9.327827   7.827600   8.993664
    47  H   10.486747  10.860078   9.595552   8.269728   9.265787
                   36         37         38         39         40
    36  H    0.000000
    37  H    8.490421   0.000000
    38  H    7.282267   7.399454   0.000000
    39  H   10.254605   7.295949   3.541465   0.000000
    40  O    6.554879   7.756326   0.967471   4.419855   0.000000
    41  H    6.865968   8.291636   1.529800   4.446647   0.958328
    42  O   11.048117   7.632239   4.466629   0.968282   5.312066
    43  H   10.795344   7.435330   4.609292   1.528804   5.359328
    44  O    7.801814   0.958371   6.768750   7.029626   7.089873
    45  H    7.145203   1.535184   6.085194   6.527599   6.348705
    46  O    0.968441   9.338836   7.423640  10.547544   6.616383
    47  H    1.529446   9.618529   7.683707  10.706165   6.853962
                   41         42         43         44         45
    41  H    0.000000
    42  O    5.252167   0.000000
    43  H    5.199317   0.958268   0.000000
    44  O    7.691691   7.477662   7.344497   0.000000
    45  H    6.896391   7.006746   6.802881   0.968424   0.000000
    46  O    6.854704  11.354764  11.111902   8.636962   7.951025
    47  H    6.969710  11.469633  11.155599   8.980286   8.239374
                   46         47
    46  O    0.000000
    47  H    0.958269   0.000000
 Stoichiometry    C13H25NO8
 Framework group  C1[X(C13H25NO8)]
 Deg. of freedom   135
 Full point group                 C1      NOp   1
 Largest Abelian subgroup         C1      NOp   1
 Largest concise Abelian subgroup C1      NOp   1
                         Standard orientation:                         
 ---------------------------------------------------------------------
 Center     Atomic      Atomic             Coordinates (Angstroms)
 Number     Number       Type             X           Y           Z
 ---------------------------------------------------------------------
      1          6           0       -2.639831    0.704909   -0.747020
      2          6           0       -1.909441   -0.571751   -0.594020
      3          6           0       -0.557351   -0.272391   -0.533380
      4          6           0       -0.427151    1.194699   -0.663480
      5          1           0       -2.343511   -1.487531   -0.960100
      6          1           0        0.243879   -0.931851   -0.835600
      7          6           0       -1.996781    3.136089   -0.733330
      8          1           0       -1.619132    3.552959   -1.667910
      9          1           0       -3.077011    3.256599   -0.698810
     10          1           0       -1.546162    3.667739    0.104600
     11          7           0       -1.701751    1.726059   -0.643540
     12          8           0        0.586079    1.858890   -0.772500
     13          8           0       -3.822241    0.891359   -0.943740
     14          6           0       -1.660460   -1.939881    1.848810
     15          1           0       -1.893770   -2.997911    1.910110
     16          6           0       -0.320240   -1.564591    1.908950
     17          1           0        0.425340   -2.346650    2.000080
     18          6           0       -2.672671   -1.070711    1.504050
     19          1           0       -2.533961   -0.013201    1.701440
     20          6           0       -4.091991   -1.512671    1.372710
     21          1           0       -4.644271   -0.885371    0.673950
     22          1           0       -4.165470   -2.549861    1.046050
     23          1           0       -4.592091   -1.422061    2.342320
     24          6           0        0.099859   -0.285531    1.616400
     25          1           0       -0.569861    0.545299    1.809130
     26          6           0        1.541939    0.114730    1.622010
     27          1           0        1.924379    0.139120    2.646960
     28          1           0        1.653139    1.106390    1.188940
     29          6           0        3.447989   -0.540650    0.301950
     30          6           0        4.108759    0.758160    0.638780
     31          1           0        4.076869    0.955990    1.710280
     32          1           0        5.138359    0.732350    0.291280
     33          1           0        3.586089    1.573310    0.132850
     34          8           0        2.287259   -0.845320    0.866000
     35          8           0        3.914839   -1.350790   -0.472130
     36          1           0       -4.672401   -0.669221   -1.692180
     37          1           0        1.418908    4.621420    0.952120
     38          1           0        2.373670   -2.417570   -1.119830
     39          1           0        5.573449   -0.917239   -1.348730
     40          8           0        1.546730   -2.732250   -1.511170
     41          1           0        1.764170   -2.945780   -2.419750
     42          8           0        6.374749   -0.527379   -1.727540
     43          1           0        6.074559   -0.039289   -2.495610
     44          8           0        1.028398    3.788950    1.222250
     45          1           0        0.896769    3.285150    0.405730
     46          8           0       -4.931281   -1.515172   -2.086170
     47          1           0       -4.991731   -1.343962   -3.027080
 ---------------------------------------------------------------------
 Rotational constants (GHZ):      0.3481947      0.1495794      0.1332221
 Standard basis: def2TZVP (5D, 7F)
 There are   942 symmetry adapted cartesian basis functions of A   symmetry.
 There are   832 symmetry adapted basis functions of A   symmetry.
   832 basis functions,  1322 primitive gaussians,   942 cartesian basis functions
    87 alpha electrons       87 beta electrons
       nuclear repulsion energy      2020.5277286497 Hartrees.
 NAtoms=   47 NActive=   47 NUniq=   47 SFac= 1.00D+00 NAtFMM=   60 NAOKFM=F Big=F
 Integral buffers will be    131072 words long.
 Raffenetti 2 integral format.
 Two-electron integral symmetry is turned on.
 Nuclear repulsion after empirical dispersion term =     2020.4883475239 Hartrees.
 Force inversion solution in PCM.
 ------------------------------------------------------------------------------
 Polarizable Continuum Model (PCM)
 =================================
 Model                : PCM (using non-symmetric T matrix).
 Atomic radii         : SMD-Coulomb.
 Polarization charges : Total charges.
 Charge compensation  : None.
 Solution method      : Matrix inversion.
 Cavity type          : VdW (van der Waals Surface) (Alpha=1.000).
 Cavity algorithm     : GePol (No added spheres)
                        Default sphere list used, NSphG=   47.
                        Lebedev-Laikov grids with approx.  5.0 points / Ang**2.
                        Smoothing algorithm: Karplus/York (Gamma=1.0000).
                        Polarization charges: spherical gaussians, with
                                              point-specific exponents (IZeta= 3).
                        Self-potential: point-specific (ISelfS= 7).
                        Self-field    : sphere-specific E.n sum rule (ISelfD= 2).
 1st derivatives      : Analytical E(r).r(x)/FMM algorithm (CHGder, D1EAlg=3).
                        Cavity 1st derivative terms included.
 2nd derivatives      : Analytical E(r).r(xy)/FMM algorithm (CHGder, D2EAlg=3).
                        Cavity 2nd derivative terms included.
 Solvent              : Toluene, Eps=   2.374100 Eps(inf)=   2.238315
 ------------------------------------------------------------------------------
 ------------------------------------------------------------------------------
 Atomic radii for non-electrostatic terms: SMD-CDS.
 ------------------------------------------------------------------------------
 Nuclear repulsion after PCM non-electrostatic terms =     2020.4767938918 Hartrees.
 One-electron integrals computed using PRISM.
   1 Symmetry operations used in ECPInt.
 ECPInt:  NShTT=   58653 NPrTT=  174904 LenC2=   49362 LenP2D=  103127.
 LDataN:  DoStor=T MaxTD1= 6 Len=  172
 NBasis=   832 RedAO= T EigKep=  1.18D-05  NBF=   832
 NBsUse=   832 1.00D-06 EigRej= -1.00D+00 NBFU=   832
 ExpMin= 9.52D-02 ExpMax= 2.70D+04 ExpMxC= 9.22D+02 IAcc=3 IRadAn=         5 AccDes= 0.00D+00
 Harris functional with IExCor= 4639 and IRadAn=       5 diagonalized for initial guess.
 HarFok:  IExCor= 4639 AccDes= 0.00D+00 IRadAn=         5 IDoV= 1 UseB2=F ITyADJ=14
 ICtDFT=  3500011 ScaDFX=  1.000000  1.000000  1.000000  1.000000
 FoFCou: FMM=F IPFlag=           0 FMFlag=      100000 FMFlg1=           0
         NFxFlg=           0 DoJE=T BraDBF=F KetDBF=T FulRan=T
         wScrn=  0.000000 ICntrl=     500 IOpCl=  0 I1Cent=   200000004 NGrid=           0
         NMat0=    1 NMatS0=      1 NMatT0=    0 NMatD0=    1 NMtDS0=    0 NMtDT0=    0
 Petite list used in FoFCou.
 Requested convergence on RMS density matrix=1.00D-08 within 128 cycles.
 Requested convergence on MAX density matrix=1.00D-06.
 Requested convergence on             energy=1.00D-06.
 No special actions if energy rises.
 Inv3:  Mode=1 IEnd=    37065675.
 Iteration    1 A*A^-1 deviation from unit magnitude is 6.00D-15 for   3509.
 Iteration    1 A*A^-1 deviation from orthogonality  is 2.96D-15 for   1097    570.
 Iteration    1 A^-1*A deviation from unit magnitude is 6.11D-15 for   3509.
 Iteration    1 A^-1*A deviation from orthogonality  is 4.33D-13 for    869    831.
 Error on total polarization charges =  0.01397
 SCF Done:  E(RwB97XD) =  -1167.09664595     A.U. after   15 cycles
            NFock= 15  Conv=0.54D-08     -V/T= 2.0044
 SMD-CDS (non-electrostatic) energy       (kcal/mol) =      -7.25
 (included in total energy above)
 DoSCS=F DFT=T ScalE2(SS,OS)=  1.000000  1.000000
 Range of M.O.s used for correlation:     1   832
 NBasis=   832 NAE=    87 NBE=    87 NFC=     0 NFV=     0
 NROrb=    832 NOA=    87 NOB=    87 NVA=   745 NVB=   745

 **** Warning!!: The largest alpha MO coefficient is  0.27744341D+02

 PrsmSu:  requested number of processors reduced to:   7 ShMem   1 Linda.
   1 Symmetry operations used in ECPInt.
 ECPInt:  NShTT=   58653 NPrTT=  174904 LenC2=   49362 LenP2D=  103127.
 LDataN:  DoStor=T MaxTD1= 7 Len=  274
 Number of processors reduced to   2 by ecpmxn.
 Symmetrizing basis deriv contribution to polar:
 IMax=3 JMax=2 DiffMx= 0.00D+00
 G2DrvN: will do    24 centers at a time, making    2 passes.
 Calling FoFCou, ICntrl=  3107 FMM=F I1Cent=   0 AccDes= 0.00D+00.
 Calling FoFCou, ICntrl=  3107 FMM=F I1Cent=   0 AccDes= 0.00D+00.
 NEqPCM:  Using equilibrium solvation (IEInf=0, Eps=   2.3741, EpsInf=   2.2383)
 G2PCM: DoFxE=T DoFxN=T DoGrad=T DoDP/DQ/DG/TGxP=FFFF NFrqRd=   0 IEInf=0 SqF1=F DoCFld=F IF1Alg=4.
 CoulSu:  requested number of processors reduced to:   7 ShMem   1 Linda.
 CoulSu:  requested number of processors reduced to:   7 ShMem   1 Linda.
 End of G2Drv F.D. properties file   721 does not exist.
 End of G2Drv F.D. properties file   722 does not exist.
 End of G2Drv F.D. properties file   788 does not exist.
          IDoAtm=11111111111111111111111111111111111111111111111
 NEqPCM:  Using equilibrium solvation (IEInf=0, Eps=   2.3741, EpsInf=   2.2383)
          Differentiating once with respect to nuclear coordinates.
          There are   144 degrees of freedom in the 1st order CPHF.  IDoFFX=6 NUNeed=     0.
    141 vectors produced by pass  0 Test12= 6.48D-14 1.00D-09 XBig12= 1.55D-01 1.17D-01.
 AX will form    72 AO Fock derivatives at one time.
    139 vectors produced by pass  1 Test12= 6.48D-14 1.00D-09 XBig12= 6.01D-02 5.15D-02.
    138 vectors produced by pass  2 Test12= 6.48D-14 1.00D-09 XBig12= 1.55D-03 5.12D-03.
    138 vectors produced by pass  3 Test12= 6.48D-14 1.00D-09 XBig12= 1.85D-05 4.29D-04.
    138 vectors produced by pass  4 Test12= 6.48D-14 1.00D-09 XBig12= 1.82D-07 3.49D-05.
    138 vectors produced by pass  5 Test12= 6.48D-14 1.00D-09 XBig12= 1.46D-09 2.81D-06.
    131 vectors produced by pass  6 Test12= 6.48D-14 1.00D-09 XBig12= 1.02D-11 2.46D-07.
     42 vectors produced by pass  7 Test12= 6.48D-14 1.00D-09 XBig12= 6.49D-14 1.93D-08.
      7 vectors produced by pass  8 Test12= 6.48D-14 1.00D-09 XBig12= 3.28D-15 2.88D-09.
      3 vectors produced by pass  9 Test12= 6.48D-14 1.00D-09 XBig12= 5.70D-16 1.10D-09.
 InvSVY:  IOpt=1 It=  1 EMax= 4.44D-16
 Solved reduced A of dimension  1015 with   144 vectors.
 End of Minotr F.D. properties file   721 does not exist.
 End of Minotr F.D. properties file   722 does not exist.
 End of Minotr F.D. properties file   788 does not exist.

 **********************************************************************

            Population analysis using the SCF density.

 **********************************************************************

 Orbital symmetries:
       Occupied  (A) (A) (A) (A) (A) (A) (A) (A) (A) (A) (A) (A)
                 (A) (A) (A) (A) (A) (A) (A) (A) (A) (A) (A) (A)
                 (A) (A) (A) (A) (A) (A) (A) (A) (A) (A) (A) (A)
                 (A) (A) (A) (A) (A) (A) (A) (A) (A) (A) (A) (A)
                 (A) (A) (A) (A) (A) (A) (A) (A) (A) (A) (A) (A)
                 (A) (A) (A) (A) (A) (A) (A) (A) (A) (A) (A) (A)
                 (A) (A) (A) (A) (A) (A) (A) (A) (A) (A) (A) (A)
                 (A) (A) (A)
       Virtual   (A) (A) (A) (A) (A) (A) (A) (A) (A) (A) (A) (A)
                 (A) (A) (A) (A) (A) (A) (A) (A) (A) (A) (A) (A)
                 (A) (A) (A) (A) (A) (A) (A) (A) (A) (A) (A) (A)
                 (A) (A) (A) (A) (A) (A) (A) (A) (A) (A) (A) (A)
                 (A) (A) (A) (A) (A) (A) (A) (A) (A) (A) (A) (A)
                 (A) (A) (A) (A) (A) (A) (A) (A) (A) (A) (A) (A)
                 (A) (A) (A) (A) (A) (A) (A) (A) (A) (A) (A) (A)
                 (A) (A) (A) (A) (A) (A) (A) (A) (A) (A) (A) (A)
                 (A) (A) (A) (A) (A) (A) (A) (A) (A) (A) (A) (A)
                 (A) (A) (A) (A) (A) (A) (A) (A) (A) (A) (A) (A)
                 (A) (A) (A) (A) (A) (A) (A) (A) (A) (A) (A) (A)
                 (A) (A) (A) (A) (A) (A) (A) (A) (A) (A) (A) (A)
                 (A) (A) (A) (A) (A) (A) (A) (A) (A) (A) (A) (A)
                 (A) (A) (A) (A) (A) (A) (A) (A) (A) (A) (A) (A)
                 (A) (A) (A) (A) (A) (A) (A) (A) (A) (A) (A) (A)
                 (A) (A) (A) (A) (A) (A) (A) (A) (A) (A) (A) (A)
                 (A) (A) (A) (A) (A) (A) (A) (A) (A) (A) (A) (A)
                 (A) (A) (A) (A) (A) (A) (A) (A) (A) (A) (A) (A)
                 (A) (A) (A) (A) (A) (A) (A) (A) (A) (A) (A) (A)
                 (A) (A) (A) (A) (A) (A) (A) (A) (A) (A) (A) (A)
                 (A) (A) (A) (A) (A) (A) (A) (A) (A) (A) (A) (A)
                 (A) (A) (A) (A) (A) (A) (A) (A) (A) (A) (A) (A)
                 (A) (A) (A) (A) (A) (A) (A) (A) (A) (A) (A) (A)
                 (A) (A) (A) (A) (A) (A) (A) (A) (A) (A) (A) (A)
                 (A) (A) (A) (A) (A) (A) (A) (A) (A) (A) (A) (A)
                 (A) (A) (A) (A) (A) (A) (A) (A) (A) (A) (A) (A)
                 (A) (A) (A) (A) (A) (A) (A) (A) (A) (A) (A) (A)
                 (A) (A) (A) (A) (A) (A) (A) (A) (A) (A) (A) (A)
                 (A) (A) (A) (A) (A) (A) (A) (A) (A) (A) (A) (A)
                 (A) (A) (A) (A) (A) (A) (A) (A) (A) (A) (A) (A)
                 (A) (A) (A) (A) (A) (A) (A) (A) (A) (A) (A) (A)
                 (A) (A) (A) (A) (A) (A) (A) (A) (A) (A) (A) (A)
                 (A) (A) (A) (A) (A) (A) (A) (A) (A) (A) (A) (A)
                 (A) (A) (A) (A) (A) (A) (A) (A) (A) (A) (A) (A)
                 (A) (A) (A) (A) (A) (A) (A) (A) (A) (A) (A) (A)
                 (A) (A) (A) (A) (A) (A) (A) (A) (A) (A) (A) (A)
                 (A) (A) (A) (A) (A) (A) (A) (A) (A) (A) (A) (A)
                 (A) (A) (A) (A) (A) (A) (A) (A) (A) (A) (A) (A)
                 (A) (A) (A) (A) (A) (A) (A) (A) (A) (A) (A) (A)
                 (A) (A) (A) (A) (A) (A) (A) (A) (A) (A) (A) (A)
                 (A) (A) (A) (A) (A) (A) (A) (A) (A) (A) (A) (A)
                 (A) (A) (A) (A) (A) (A) (A) (A) (A) (A) (A) (A)
                 (A) (A) (A) (A) (A) (A) (A) (A) (A) (A) (A) (A)
                 (A) (A) (A) (A) (A) (A) (A) (A) (A) (A) (A) (A)
                 (A) (A) (A) (A) (A) (A) (A) (A) (A) (A) (A) (A)
                 (A) (A) (A) (A) (A) (A) (A) (A) (A) (A) (A) (A)
                 (A) (A) (A) (A) (A) (A) (A) (A) (A) (A) (A) (A)
                 (A) (A) (A) (A) (A) (A) (A) (A) (A) (A) (A) (A)
                 (A) (A) (A) (A) (A) (A) (A) (A) (A) (A) (A) (A)
                 (A) (A) (A) (A) (A) (A) (A) (A) (A) (A) (A) (A)
                 (A) (A) (A) (A) (A) (A) (A) (A) (A) (A) (A) (A)
                 (A) (A) (A) (A) (A) (A) (A) (A) (A) (A) (A) (A)
                 (A) (A) (A) (A) (A) (A) (A) (A) (A) (A) (A) (A)
                 (A) (A) (A) (A) (A) (A) (A) (A) (A) (A) (A) (A)
                 (A) (A) (A) (A) (A) (A) (A) (A) (A) (A) (A) (A)
                 (A) (A) (A) (A) (A) (A) (A) (A) (A) (A) (A) (A)
                 (A) (A) (A) (A) (A) (A) (A) (A) (A) (A) (A) (A)
                 (A) (A) (A) (A) (A) (A) (A) (A) (A) (A) (A) (A)
                 (A) (A) (A) (A) (A) (A) (A) (A) (A) (A) (A) (A)
                 (A) (A) (A) (A) (A) (A) (A) (A) (A) (A) (A) (A)
                 (A) (A) (A) (A) (A) (A) (A) (A) (A) (A) (A) (A)
                 (A) (A) (A) (A) (A) (A) (A) (A) (A) (A) (A) (A)
                 (A)
 The electronic state is 1-A.
 Alpha  occ. eigenvalues --  -19.31283 -19.25450 -19.25445 -19.25288 -19.23849
 Alpha  occ. eigenvalues --  -19.22975 -19.22631 -19.22564 -14.48949 -10.43843
 Alpha  occ. eigenvalues --  -10.41595 -10.41458 -10.35770 -10.32191 -10.32068
 Alpha  occ. eigenvalues --  -10.31917 -10.31025 -10.30783 -10.29900 -10.29703
 Alpha  occ. eigenvalues --  -10.29173 -10.27675  -1.23321  -1.18885  -1.16798
 Alpha  occ. eigenvalues --   -1.14338  -1.10241  -1.09394  -1.09079  -1.09009
 Alpha  occ. eigenvalues --   -1.07325  -0.95164  -0.92069  -0.89694  -0.86164
 Alpha  occ. eigenvalues --   -0.83915  -0.81027  -0.78212  -0.76354  -0.71904
 Alpha  occ. eigenvalues --   -0.70860  -0.68155  -0.65023  -0.63084  -0.62615
 Alpha  occ. eigenvalues --   -0.61755  -0.61038  -0.60696  -0.60485  -0.59734
 Alpha  occ. eigenvalues --   -0.59194  -0.58966  -0.58504  -0.56595  -0.55931
 Alpha  occ. eigenvalues --   -0.54878  -0.53819  -0.53312  -0.52299  -0.51976
 Alpha  occ. eigenvalues --   -0.51660  -0.50591  -0.50048  -0.49478  -0.48951
 Alpha  occ. eigenvalues --   -0.48599  -0.48303  -0.47796  -0.46933  -0.46413
 Alpha  occ. eigenvalues --   -0.45915  -0.45728  -0.45289  -0.44545  -0.43928
 Alpha  occ. eigenvalues --   -0.43714  -0.40292  -0.39644  -0.39144  -0.38911
 Alpha  occ. eigenvalues --   -0.38628  -0.38446  -0.38111  -0.36973  -0.36476
 Alpha  occ. eigenvalues --   -0.32618  -0.31381
 Alpha virt. eigenvalues --   -0.01545   0.01775   0.06272   0.09576   0.10095
 Alpha virt. eigenvalues --    0.11050   0.11630   0.12123   0.13058   0.13507
 Alpha virt. eigenvalues --    0.13792   0.14541   0.15092   0.15950   0.16112
 Alpha virt. eigenvalues --    0.16738   0.17333   0.18532   0.18742   0.19327
 Alpha virt. eigenvalues --    0.19452   0.19858   0.20435   0.21313   0.21583
 Alpha virt. eigenvalues --    0.21769   0.22443   0.22678   0.23092   0.23451
 Alpha virt. eigenvalues --    0.23742   0.23984   0.25058   0.25288   0.25461
 Alpha virt. eigenvalues --    0.26404   0.27349   0.27790   0.28182   0.28542
 Alpha virt. eigenvalues --    0.29078   0.30147   0.30551   0.30671   0.31379
 Alpha virt. eigenvalues --    0.31586   0.31841   0.33347   0.34204   0.34403
 Alpha virt. eigenvalues --    0.34551   0.35596   0.36178   0.36714   0.37410
 Alpha virt. eigenvalues --    0.37724   0.38219   0.38631   0.38955   0.39466
 Alpha virt. eigenvalues --    0.40523   0.41223   0.41808   0.42008   0.42661
 Alpha virt. eigenvalues --    0.43399   0.43662   0.44172   0.44420   0.44777
 Alpha virt. eigenvalues --    0.44909   0.45784   0.46031   0.46572   0.46614
 Alpha virt. eigenvalues --    0.47125   0.47569   0.47992   0.48228   0.49152
 Alpha virt. eigenvalues --    0.49633   0.49753   0.50025   0.50157   0.50634
 Alpha virt. eigenvalues --    0.51172   0.51531   0.51843   0.52072   0.52989
 Alpha virt. eigenvalues --    0.53363   0.53650   0.53845   0.54195   0.54276
 Alpha virt. eigenvalues --    0.55402   0.55491   0.55614   0.56303   0.56716
 Alpha virt. eigenvalues --    0.56868   0.57110   0.57640   0.58011   0.58428
 Alpha virt. eigenvalues --    0.58994   0.59785   0.60464   0.60957   0.61504
 Alpha virt. eigenvalues --    0.62147   0.62416   0.62501   0.63215   0.63323
 Alpha virt. eigenvalues --    0.63577   0.64207   0.64340   0.65348   0.65911
 Alpha virt. eigenvalues --    0.66112   0.66329   0.66630   0.66820   0.67690
 Alpha virt. eigenvalues --    0.68517   0.69227   0.69905   0.70660   0.71176
 Alpha virt. eigenvalues --    0.71652   0.72383   0.72843   0.73223   0.74046
 Alpha virt. eigenvalues --    0.74280   0.75573   0.76940   0.77276   0.78272
 Alpha virt. eigenvalues --    0.78797   0.79384   0.79760   0.81026   0.81422
 Alpha virt. eigenvalues --    0.81922   0.82815   0.83590   0.84628   0.86290
 Alpha virt. eigenvalues --    0.86504   0.86983   0.88028   0.88518   0.88810
 Alpha virt. eigenvalues --    0.90276   0.90485   0.91535   0.91968   0.93622
 Alpha virt. eigenvalues --    0.93913   0.94532   0.95457   0.95731   0.96882
 Alpha virt. eigenvalues --    0.97336   0.98056   0.98218   0.99322   0.99923
 Alpha virt. eigenvalues --    1.00893   1.01262   1.01563   1.02382   1.03952
 Alpha virt. eigenvalues --    1.04972   1.05007   1.05871   1.06372   1.08309
 Alpha virt. eigenvalues --    1.08357   1.09470   1.10109   1.10924   1.11619
 Alpha virt. eigenvalues --    1.12638   1.12779   1.13719   1.14347   1.15274
 Alpha virt. eigenvalues --    1.16507   1.17067   1.17821   1.18184   1.19072
 Alpha virt. eigenvalues --    1.20208   1.20624   1.21601   1.22099   1.23802
 Alpha virt. eigenvalues --    1.24535   1.24688   1.26039   1.26940   1.28326
 Alpha virt. eigenvalues --    1.29057   1.29181   1.30394   1.30714   1.31343
 Alpha virt. eigenvalues --    1.32702   1.33233   1.33611   1.34744   1.35411
 Alpha virt. eigenvalues --    1.35565   1.36681   1.38100   1.38481   1.39135
 Alpha virt. eigenvalues --    1.39689   1.39803   1.40858   1.41459   1.42205
 Alpha virt. eigenvalues --    1.43362   1.43811   1.45712   1.46975   1.47248
 Alpha virt. eigenvalues --    1.48026   1.49741   1.51910   1.52085   1.52657
 Alpha virt. eigenvalues --    1.53679   1.54417   1.54861   1.56814   1.57513
 Alpha virt. eigenvalues --    1.57788   1.58765   1.59251   1.59339   1.59565
 Alpha virt. eigenvalues --    1.60930   1.61210   1.61427   1.62336   1.63207
 Alpha virt. eigenvalues --    1.64033   1.64817   1.65077   1.65571   1.65866
 Alpha virt. eigenvalues --    1.66124   1.66617   1.67097   1.67908   1.68676
 Alpha virt. eigenvalues --    1.69476   1.70814   1.71373   1.71698   1.72133
 Alpha virt. eigenvalues --    1.72493   1.73455   1.73720   1.74611   1.75300
 Alpha virt. eigenvalues --    1.75790   1.76625   1.77918   1.78644   1.79002
 Alpha virt. eigenvalues --    1.79952   1.81122   1.82717   1.83865   1.84140
 Alpha virt. eigenvalues --    1.85887   1.86369   1.87302   1.87551   1.88229
 Alpha virt. eigenvalues --    1.89176   1.89922   1.90786   1.91483   1.92000
 Alpha virt. eigenvalues --    1.92324   1.93286   1.93663   1.94507   1.95589
 Alpha virt. eigenvalues --    1.96243   1.97310   1.98008   1.99159   1.99397
 Alpha virt. eigenvalues --    1.99879   2.00524   2.01273   2.03825   2.04048
 Alpha virt. eigenvalues --    2.04514   2.05274   2.06441   2.08146   2.08660
 Alpha virt. eigenvalues --    2.09685   2.10405   2.10774   2.11980   2.12952
 Alpha virt. eigenvalues --    2.13806   2.14369   2.14478   2.16000   2.16613
 Alpha virt. eigenvalues --    2.17456   2.18035   2.18499   2.19072   2.19830
 Alpha virt. eigenvalues --    2.20046   2.20708   2.21111   2.21525   2.21877
 Alpha virt. eigenvalues --    2.22515   2.22857   2.23834   2.24369   2.25074
 Alpha virt. eigenvalues --    2.26267   2.28177   2.28559   2.28960   2.29794
 Alpha virt. eigenvalues --    2.30337   2.31551   2.32055   2.32627   2.32943
 Alpha virt. eigenvalues --    2.34434   2.35394   2.36485   2.37891   2.39269
 Alpha virt. eigenvalues --    2.39907   2.39966   2.41311   2.41838   2.42224
 Alpha virt. eigenvalues --    2.42715   2.43336   2.43661   2.44990   2.45310
 Alpha virt. eigenvalues --    2.46023   2.46758   2.47367   2.48327   2.49238
 Alpha virt. eigenvalues --    2.49916   2.50322   2.50872   2.51412   2.52384
 Alpha virt. eigenvalues --    2.53525   2.54585   2.55216   2.55410   2.56346
 Alpha virt. eigenvalues --    2.56926   2.57570   2.57834   2.58817   2.59576
 Alpha virt. eigenvalues --    2.60100   2.61193   2.61241   2.61944   2.62919
 Alpha virt. eigenvalues --    2.64108   2.64807   2.65253   2.65852   2.67753
 Alpha virt. eigenvalues --    2.67996   2.69109   2.69696   2.70356   2.70794
 Alpha virt. eigenvalues --    2.71097   2.72800   2.73685   2.74076   2.74922
 Alpha virt. eigenvalues --    2.75391   2.75988   2.76560   2.77058   2.77197
 Alpha virt. eigenvalues --    2.78109   2.78840   2.79473   2.79903   2.80402
 Alpha virt. eigenvalues --    2.80873   2.81423   2.81475   2.82074   2.82851
 Alpha virt. eigenvalues --    2.83484   2.83632   2.84926   2.85214   2.86276
 Alpha virt. eigenvalues --    2.86884   2.87200   2.88211   2.88905   2.89925
 Alpha virt. eigenvalues --    2.90463   2.91596   2.92267   2.94475   2.94763
 Alpha virt. eigenvalues --    2.95074   2.95347   2.97295   2.98916   2.99570
 Alpha virt. eigenvalues --    3.01188   3.01871   3.02408   3.02710   3.03513
 Alpha virt. eigenvalues --    3.04495   3.04641   3.05501   3.06096   3.07647
 Alpha virt. eigenvalues --    3.07984   3.08328   3.09507   3.09816   3.10445
 Alpha virt. eigenvalues --    3.10993   3.12729   3.13130   3.13735   3.14676
 Alpha virt. eigenvalues --    3.15502   3.15599   3.16332   3.17360   3.17895
 Alpha virt. eigenvalues --    3.18676   3.19089   3.20433   3.20486   3.21472
 Alpha virt. eigenvalues --    3.22133   3.22860   3.23407   3.24630   3.25963
 Alpha virt. eigenvalues --    3.26746   3.27048   3.27409   3.27823   3.28259
 Alpha virt. eigenvalues --    3.29390   3.29873   3.31939   3.33179   3.33679
 Alpha virt. eigenvalues --    3.34580   3.35360   3.35581   3.35997   3.37241
 Alpha virt. eigenvalues --    3.38020   3.39044   3.39280   3.39569   3.40492
 Alpha virt. eigenvalues --    3.41376   3.42221   3.43418   3.44092   3.44360
 Alpha virt. eigenvalues --    3.45370   3.47076   3.47341   3.47827   3.48445
 Alpha virt. eigenvalues --    3.49688   3.50491   3.51724   3.51864   3.53217
 Alpha virt. eigenvalues --    3.53813   3.54817   3.55921   3.56189   3.56949
 Alpha virt. eigenvalues --    3.57925   3.59015   3.59611   3.61439   3.62164
 Alpha virt. eigenvalues --    3.62649   3.63632   3.64512   3.64843   3.65962
 Alpha virt. eigenvalues --    3.68345   3.69675   3.70277   3.70595   3.72804
 Alpha virt. eigenvalues --    3.73003   3.74399   3.75529   3.75743   3.77276
 Alpha virt. eigenvalues --    3.77991   3.78536   3.79071   3.80023   3.80620
 Alpha virt. eigenvalues --    3.81097   3.82198   3.83634   3.84510   3.85926
 Alpha virt. eigenvalues --    3.87179   3.88963   3.89309   3.90825   3.93257
 Alpha virt. eigenvalues --    3.96530   3.97293   3.97771   3.98414   3.99448
 Alpha virt. eigenvalues --    4.01458   4.04657   4.06076   4.06656   4.07349
 Alpha virt. eigenvalues --    4.07750   4.07920   4.08952   4.09821   4.10766
 Alpha virt. eigenvalues --    4.12423   4.13282   4.15369   4.16751   4.18381
 Alpha virt. eigenvalues --    4.19558   4.23703   4.24204   4.25847   4.26723
 Alpha virt. eigenvalues --    4.28483   4.29077   4.29886   4.31726   4.32599
 Alpha virt. eigenvalues --    4.35490   4.36655   4.41559   4.42194   4.43639
 Alpha virt. eigenvalues --    4.45228   4.47006   4.47822   4.48916   4.50667
 Alpha virt. eigenvalues --    4.52052   4.53005   4.54693   4.55716   4.58675
 Alpha virt. eigenvalues --    4.61696   4.64532   4.64983   4.66078   4.67791
 Alpha virt. eigenvalues --    4.68910   4.70151   4.72162   4.72769   4.79535
 Alpha virt. eigenvalues --    4.82077   4.84667   4.86635   4.87485   4.88651
 Alpha virt. eigenvalues --    4.90156   4.94082   4.97452   4.99404   5.03094
 Alpha virt. eigenvalues --    5.04937   5.09994   5.11357   5.11887   5.18920
 Alpha virt. eigenvalues --    5.19704   5.20699   5.20813   5.20903   5.21423
 Alpha virt. eigenvalues --    5.21916   5.23692   5.24804   5.25524   5.25697
 Alpha virt. eigenvalues --    5.27288   5.30053   5.30951   5.31174   5.31739
 Alpha virt. eigenvalues --    5.32229   5.34211   5.35437   5.36099   5.37049
 Alpha virt. eigenvalues --    5.41767   5.43203   5.48291   5.49150   5.49303
 Alpha virt. eigenvalues --    5.49511   5.50277   5.51276   5.52845   5.53047
 Alpha virt. eigenvalues --    5.53397   5.54751   5.57244   5.57961   5.58569
 Alpha virt. eigenvalues --    5.58704   5.59234   5.66005   5.68660   5.71640
 Alpha virt. eigenvalues --    5.72590   5.78503   5.82633   5.86152   5.93101
 Alpha virt. eigenvalues --    5.97395   5.98609   6.02355   6.10909   6.12393
 Alpha virt. eigenvalues --    6.14367   6.14492   6.16460   6.16681   6.25315
 Alpha virt. eigenvalues --    6.26261   6.28802   6.33144   6.33986   6.34364
 Alpha virt. eigenvalues --    6.35159   6.35438   6.41107   6.42123   6.42860
 Alpha virt. eigenvalues --    6.43142   6.44817   6.48967   6.49568   6.50091
 Alpha virt. eigenvalues --    6.50699   6.50900   6.52332   6.52706   6.53748
 Alpha virt. eigenvalues --    6.54647   6.54956   6.56363   6.57665   6.60506
 Alpha virt. eigenvalues --    6.65966   6.68439   6.70438   6.74813   6.83863
 Alpha virt. eigenvalues --    6.86866   6.89378   6.92136   6.94605   6.97353
 Alpha virt. eigenvalues --    6.99128   7.00680   7.03883   7.04334   7.04491
[...]
     7  C   -0.000925   0.000496  -0.000002  -0.000791  -0.000025   0.000018
     8  H    0.000128  -0.000013   0.000000   0.000015   0.000000   0.000000
     9  H   -0.000044   0.000000   0.000000  -0.000006   0.000000   0.000000
    10  H    0.000284  -0.000210  -0.000003   0.000301   0.000010  -0.000003
    11  N    0.007745   0.000574  -0.000006   0.000069   0.000078  -0.000072
    12  O   -0.001100  -0.016368   0.000541   0.010829   0.004381  -0.006102
    13  O   -0.000052  -0.000002   0.000000   0.000001   0.000000   0.000000
    14  C   -0.006090   0.006887   0.000072  -0.000599  -0.000177  -0.000020
    15  H   -0.000003   0.000018  -0.000003   0.000002  -0.000005   0.000000
    16  C   -0.041833  -0.046173  -0.016142   0.015929  -0.001017   0.001345
    17  H    0.003048  -0.007795   0.000173   0.000721   0.000348   0.000288
    18  C    0.002102  -0.002027  -0.000095   0.000515  -0.000003   0.000009
    19  H    0.006367   0.000901  -0.000040  -0.000135  -0.000006   0.000000
    20  C    0.000396  -0.000273   0.000005  -0.000002   0.000001   0.000000
    21  H    0.000010   0.000001   0.000000  -0.000001   0.000000   0.000000
    22  H   -0.000011   0.000000   0.000000   0.000000   0.000000   0.000000
    23  H   -0.000051   0.000009  -0.000001   0.000000   0.000000   0.000000
    24  C    0.405600   0.284560  -0.015697  -0.031338   0.011983  -0.007601
    25  H    0.510062  -0.025321   0.002352  -0.004216   0.000400   0.000062
    26  C   -0.025321   4.913307   0.415096   0.365660  -0.054846   0.018044
    27  H    0.002352   0.415096   0.527293  -0.036884  -0.002122  -0.000972
    28  H   -0.004216   0.365660  -0.036884   0.585233  -0.008986   0.001426
    29  C    0.000400  -0.054846  -0.002122  -0.008986   4.518680   0.298720
    30  C    0.000062   0.018044  -0.000972   0.001426   0.298720   5.108990
    31  H   -0.000027  -0.000264  -0.001788  -0.004031  -0.030056   0.391670
    32  H   -0.000002   0.001515   0.000063  -0.000026  -0.018603   0.374920
    33  H    0.000008  -0.009854   0.000892  -0.000504  -0.013882   0.378273
    34  O    0.003568   0.211208  -0.034076  -0.026660   0.367231  -0.073749
    35  O    0.000007   0.003089   0.000018   0.000417   0.479306  -0.054491
    36  H    0.000003   0.000001   0.000000   0.000000   0.000000   0.000000
    37  H   -0.000099   0.000882   0.000006  -0.001747  -0.000028   0.000114
    38  H    0.000008   0.000478   0.000027   0.000036  -0.009084   0.000676
    39  H    0.000000  -0.000124   0.000005   0.000007  -0.008700   0.006097
    40  O    0.000035  -0.002632  -0.000030   0.000075   0.003957  -0.000978
    41  H   -0.000002  -0.000045   0.000000   0.000005   0.000420  -0.000076
    42  O    0.000000   0.000039  -0.000001  -0.000001  -0.000385  -0.007930
    43  H    0.000000   0.000001   0.000000   0.000001  -0.000101   0.001563
    44  O    0.003385  -0.015901  -0.000045   0.023033  -0.000023  -0.001031
    45  H   -0.001928   0.006298  -0.000003  -0.011828  -0.000529   0.001000
    46  O   -0.000002   0.000000   0.000000   0.000000   0.000000   0.000000
    47  H    0.000000   0.000000   0.000000   0.000000   0.000000   0.000000
              31         32         33         34         35         36
     1  C   -0.000001   0.000000  -0.000012  -0.000139   0.000002  -0.009225
     2  C    0.000014   0.000003   0.000040   0.001799  -0.000035   0.002426
     3  C   -0.000016  -0.000010  -0.000235   0.005738  -0.000614  -0.000624
     4  C    0.000045  -0.000009  -0.000263  -0.001802   0.000034  -0.000079
     5  H    0.000000   0.000000   0.000000   0.000015   0.000000  -0.005190
     6  H   -0.000030   0.000026   0.000258  -0.000038   0.000305   0.000012
     7  C    0.000000   0.000000  -0.000004  -0.000002   0.000000  -0.000055
     8  H    0.000000   0.000000   0.000000   0.000000   0.000000   0.000007
     9  H    0.000000   0.000000   0.000000   0.000000   0.000000   0.000026
    10  H    0.000000   0.000000  -0.000022   0.000001   0.000000   0.000000
    11  N    0.000001   0.000000   0.000093  -0.000083   0.000000  -0.000093
    12  O    0.000180   0.000027   0.005058   0.000037  -0.000050   0.000002
    13  O    0.000000   0.000000   0.000000   0.000000   0.000000   0.028712
    14  C   -0.000003   0.000000   0.000002   0.000857   0.000005   0.000087
    15  H    0.000000   0.000000   0.000000  -0.000042  -0.000001   0.000015
    16  C   -0.000072   0.000003  -0.000173   0.014054   0.000135  -0.000033
    17  H   -0.000003  -0.000003  -0.000018   0.010002   0.000248   0.000000
    18  C    0.000001   0.000000  -0.000003   0.000248   0.000003   0.001174
    19  H    0.000000   0.000000   0.000000  -0.000008   0.000000  -0.000043
    20  C    0.000000   0.000000   0.000000   0.000000   0.000000  -0.002200
    21  H    0.000000   0.000000   0.000000   0.000000   0.000000  -0.003255
    22  H    0.000000   0.000000   0.000000   0.000000   0.000000  -0.000064
    23  H    0.000000   0.000000   0.000000   0.000000   0.000000   0.000041
    24  C    0.003123  -0.000235  -0.000599  -0.082972  -0.000734   0.000015
    25  H   -0.000027  -0.000002   0.000008   0.003568   0.000007   0.000003
    26  C   -0.000264   0.001515  -0.009854   0.211208   0.003089   0.000001
    27  H   -0.001788   0.000063   0.000892  -0.034076   0.000018   0.000000
    28  H   -0.004031  -0.000026  -0.000504  -0.026660   0.000417   0.000000
    29  C   -0.030056  -0.018603  -0.013882   0.367231   0.479306   0.000000
    30  C    0.391670   0.374920   0.378273  -0.073749  -0.054491   0.000000
    31  H    0.497598  -0.010893  -0.018507   0.002660   0.002209   0.000000
    32  H   -0.010893   0.475069  -0.007282   0.002880  -0.002027   0.000000
    33  H   -0.018507  -0.007282   0.483823   0.002808   0.000233   0.000000
    34  O    0.002660   0.002880   0.002808   7.950799  -0.098225   0.000000
    35  O    0.002209  -0.002027   0.000233  -0.098225   8.146677   0.000000
    36  H    0.000000   0.000000   0.000000   0.000000   0.000000   0.368886
    37  H   -0.000023   0.000003   0.000014  -0.000006   0.000000   0.000000
    38  H   -0.000048   0.000018  -0.000101   0.001049   0.028996   0.000000
    39  H   -0.000256  -0.006909   0.000052   0.000112   0.027002   0.000000
    40  O   -0.000004   0.000013   0.000096  -0.001439  -0.014769   0.000000
    41  H    0.000000   0.000001   0.000000   0.000066   0.000666   0.000000
    42  O    0.000540   0.022394  -0.000568  -0.000002  -0.018179   0.000000
    43  H    0.000013  -0.001671  -0.000088   0.000009   0.001478   0.000000
    44  O    0.000429   0.000087   0.002741   0.000095   0.000000   0.000000
    45  H   -0.000103   0.000023  -0.000054  -0.000069   0.000001   0.000000
    46  O    0.000000   0.000000   0.000000   0.000000   0.000000   0.303284
    47  H    0.000000   0.000000   0.000000   0.000000   0.000000  -0.020448
              37         38         39         40         41         42
     1  C    0.000004  -0.000054   0.000000   0.000744  -0.000029   0.000000
     2  C   -0.000011  -0.000263   0.000000   0.002620   0.000108   0.000000
     3  C   -0.000022   0.004538   0.000004  -0.051215   0.003045   0.000000
     4  C   -0.000793   0.001007   0.000002  -0.007685   0.000047   0.000000
     5  H    0.000000   0.000054   0.000000  -0.000794   0.000023   0.000000
     6  H    0.000004  -0.006795  -0.000016   0.065499  -0.004835   0.000001
     7  C    0.000602   0.000000   0.000000  -0.000001   0.000000   0.000000
     8  H   -0.000031   0.000000   0.000000   0.000000   0.000000   0.000000
     9  H   -0.000003   0.000000   0.000000   0.000000   0.000000   0.000000
    10  H   -0.000745   0.000000   0.000000   0.000000   0.000000   0.000000
    11  N    0.000055  -0.000007   0.000000   0.000027   0.000003   0.000000
    12  O    0.000868  -0.000015  -0.000001  -0.000020  -0.000004   0.000000
    13  O    0.000000   0.000000   0.000000   0.000000   0.000000   0.000000
    14  C    0.000000   0.000294   0.000000  -0.001549   0.000040   0.000000
    15  H    0.000000  -0.000002   0.000000  -0.000040   0.000001   0.000000
    16  C    0.000001  -0.000712  -0.000002   0.002896  -0.000022   0.000000
    17  H    0.000000   0.000286   0.000000   0.001329  -0.000057   0.000000
    18  C    0.000000   0.000037   0.000000  -0.000210   0.000004   0.000000
    19  H    0.000001   0.000001   0.000000  -0.000009   0.000000   0.000000
    20  C    0.000000  -0.000001   0.000000   0.000007   0.000000   0.000000
    21  H    0.000000   0.000000   0.000000   0.000000   0.000000   0.000000
    22  H    0.000000   0.000000   0.000000  -0.000001   0.000000   0.000000
    23  H    0.000000   0.000000   0.000000   0.000000   0.000000   0.000000
    24  C   -0.000037  -0.001246   0.000011   0.003588  -0.000009   0.000000
    25  H   -0.000099   0.000008   0.000000   0.000035  -0.000002   0.000000
    26  C    0.000882   0.000478  -0.000124  -0.002632  -0.000045   0.000039
    27  H    0.000006   0.000027   0.000005  -0.000030   0.000000  -0.000001
    28  H   -0.001747   0.000036   0.000007   0.000075   0.000005  -0.000001
    29  C   -0.000028  -0.009084  -0.008700   0.003957   0.000420  -0.000385
    30  C    0.000114   0.000676   0.006097  -0.000978  -0.000076  -0.007930
    31  H   -0.000023  -0.000048  -0.000256  -0.000004   0.000000   0.000540
    32  H    0.000003   0.000018  -0.006909   0.000013   0.000001   0.022394
    33  H    0.000014  -0.000101   0.000052   0.000096   0.000000  -0.000568
    34  O   -0.000006   0.001049   0.000112  -0.001439   0.000066  -0.000002
    35  O    0.000000   0.028996   0.027002  -0.014769   0.000666  -0.018179
    36  H    0.000000   0.000000   0.000000   0.000000   0.000000   0.000000
    37  H    0.375637   0.000000   0.000000   0.000000   0.000000   0.000000
    38  H    0.000000   0.360035   0.000259   0.302404  -0.019773   0.000016
    39  H    0.000000   0.000259   0.344615   0.000019  -0.000012   0.315645
    40  O    0.000000   0.302404   0.000019   8.070185   0.306287  -0.000006
    41  H    0.000000  -0.019773  -0.000012   0.306287   0.378104   0.000004
    42  O    0.000000   0.000016   0.315645  -0.000006   0.000004   8.072154
    43  H    0.000000  -0.000028  -0.024407   0.000003   0.000002   0.307936
    44  O    0.300494   0.000000   0.000000   0.000000   0.000000   0.000000
    45  H   -0.010030   0.000000   0.000000  -0.000001   0.000000   0.000000
    46  O    0.000000   0.000000   0.000000   0.000000   0.000000   0.000000
    47  H    0.000000   0.000000   0.000000   0.000000   0.000000   0.000000
              43         44         45         46         47
     1  C    0.000000   0.000145  -0.000328   0.008723   0.002905
     2  C    0.000000   0.000090  -0.000007  -0.008475  -0.001763
     3  C    0.000000  -0.000426  -0.001224   0.000046  -0.000222
     4  C    0.000000   0.002066  -0.013371   0.000187   0.000021
     5  H    0.000000   0.000000   0.000001   0.016919  -0.000032
     6  H    0.000000  -0.000023   0.000063   0.000000   0.000002
     7  C    0.000000  -0.009743   0.005279   0.000032   0.000005
     8  H    0.000000   0.000035  -0.000431  -0.000001   0.000000
     9  H    0.000000   0.000320   0.000028   0.000007  -0.000005
    10  H    0.000000   0.017503  -0.004701   0.000000   0.000000
    11  N    0.000000   0.000545  -0.000884   0.000354   0.000058
    12  O    0.000000  -0.021262   0.027907   0.000000   0.000000
    13  O    0.000000   0.000000  -0.000002  -0.022598   0.000578
    14  C    0.000000  -0.000018   0.000064  -0.000046  -0.000035
    15  H    0.000000   0.000000   0.000000  -0.000027   0.000001
    16  C    0.000000   0.000092  -0.000235   0.000011   0.000002
    17  H    0.000000   0.000003  -0.000008   0.000000   0.000000
    18  C    0.000000   0.000020  -0.000052  -0.001057   0.000077
    19  H    0.000000  -0.000042   0.000057   0.000092   0.000005
    20  C    0.000000   0.000000  -0.000001  -0.003194   0.000400
    21  H    0.000000   0.000000   0.000000   0.005787  -0.000499
    22  H    0.000000   0.000000   0.000000   0.000845  -0.000018
    23  H    0.000000   0.000000   0.000000   0.000222  -0.000013
    24  C    0.000001   0.000743   0.000630  -0.000033  -0.000002
    25  H    0.000000   0.003385  -0.001928  -0.000002   0.000000
    26  C    0.000001  -0.015901   0.006298   0.000000   0.000000
    27  H    0.000000  -0.000045  -0.000003   0.000000   0.000000
    28  H    0.000001   0.023033  -0.011828   0.000000   0.000000
    29  C   -0.000101  -0.000023  -0.000529   0.000000   0.000000
    30  C    0.001563  -0.001031   0.001000   0.000000   0.000000
    31  H    0.000013   0.000429  -0.000103   0.000000   0.000000
    32  H   -0.001671   0.000087   0.000023   0.000000   0.000000
    33  H   -0.000088   0.002741  -0.000054   0.000000   0.000000
    34  O    0.000009   0.000095  -0.000069   0.000000   0.000000
    35  O    0.001478   0.000000   0.000001   0.000000   0.000000
    36  H    0.000000   0.000000   0.000000   0.303284  -0.020448
    37  H    0.000000   0.300494  -0.010030   0.000000   0.000000
    38  H   -0.000028   0.000000   0.000000   0.000000   0.000000
    39  H   -0.024407   0.000000   0.000000   0.000000   0.000000
    40  O    0.000003   0.000000  -0.000001   0.000000   0.000000
    41  H    0.000002   0.000000   0.000000   0.000000   0.000000
    42  O    0.307936   0.000000   0.000000   0.000000   0.000000
    43  H    0.383260   0.000000   0.000000   0.000000   0.000000
    44  O    0.000000   8.089756   0.281065   0.000000   0.000000
    45  H    0.000000   0.281065   0.391861   0.000000   0.000000
    46  O    0.000000   0.000000   0.000000   8.069539   0.304296
    47  H    0.000000   0.000000   0.000000   0.304296   0.385422
 Mulliken charges:
               1
     1  C    0.280557
     2  C   -0.210755
     3  C   -0.094825
     4  C    0.283224
     5  H    0.201829
     6  H    0.169506
     7  C   -0.311709
     8  H    0.153301
     9  H    0.165897
    10  H    0.147831
    11  N   -0.070570
    12  O   -0.468796
    13  O   -0.450952
    14  C   -0.133443
    15  H    0.147124
    16  C   -0.137854
    17  H    0.158969
    18  C   -0.088648
    19  H    0.149023
    20  C   -0.360671
    21  H    0.138239
    22  H    0.138558
    23  H    0.147731
    24  C   -0.120668
    25  H    0.166998
    26  C   -0.045263
    27  H    0.158443
    28  H    0.129285
    29  C    0.463359
    30  C   -0.429889
    31  H    0.167642
    32  H    0.170624
    33  H    0.177780
    34  O   -0.255923
    35  O   -0.501706
    36  H    0.336618
    37  H    0.334890
    38  H    0.337911
    39  H    0.346595
    40  O   -0.678404
    41  H    0.336038
    42  O   -0.691659
    43  H    0.332027
    44  O   -0.674133
    45  H    0.331515
    46  O   -0.674914
    47  H    0.329264
 Sum of Mulliken charges =   0.00000
 Mulliken charges with hydrogens summed into heavy atoms:
               1
     1  C    0.280557
     2  C   -0.008926
     3  C    0.074681
     4  C    0.283224
     7  C    0.155321
    11  N   -0.070570
    12  O   -0.468796
    13  O   -0.450952
    14  C    0.013681
    16  C    0.021116
    18  C    0.060375
    20  C    0.063857
    24  C    0.046331
    26  C    0.242465
    29  C    0.463359
    30  C    0.086158
    34  O   -0.255923
    35  O   -0.501706
    40  O   -0.004456
    42  O   -0.013036
    44  O   -0.007728
    46  O   -0.009031
 Electronic spatial extent (au):  <R**2>=           8921.3050
 Charge=              0.0000 electrons
 Dipole moment (field-independent basis, Debye):
    X=             -1.3192    Y=              4.0007    Z=              0.4846  Tot=              4.2404
 Quadrupole moment (field-independent basis, Debye-Ang):
   XX=           -173.5932   YY=           -130.5755   ZZ=           -118.7598
   XY=              4.1647   XZ=             -0.5337   YZ=             -5.1972
 Traceless Quadrupole moment (field-independent basis, Debye-Ang):
   XX=            -32.6170   YY=             10.4007   ZZ=             22.2164
   XY=              4.1647   XZ=             -0.5337   YZ=             -5.1972
 Octapole moment (field-independent basis, Debye-Ang**2):
  XXX=           -140.3642  YYY=             75.4192  ZZZ=            -83.4896  XYY=             18.4811
  XXY=             93.8032  XXZ=             20.3363  XZZ=             21.6457  YZZ=            -28.8370
  YYZ=            -20.5149  XYZ=             17.1137
 Hexadecapole moment (field-independent basis, Debye-Ang**3):
 XXXX=          -9765.6723 YYYY=          -2118.2192 ZZZZ=          -1229.5041 XXXY=            173.9639
 XXXZ=            122.6192 YYYX=             11.4337 YYYZ=            -29.4910 ZZZX=             16.8533
 ZZZY=            115.7076 XXYY=          -1681.9332 XXZZ=          -1074.7905 YYZZ=           -625.2724
 XXYZ=            -33.3459 YYXZ=            -35.6161 ZZXY=            -24.3690
 N-N= 2.016872513854D+03 E-N=-6.767270719040D+03  KE= 1.161967587007D+03
 1\1\GINC-D10S1B3\FTS\RwB97XD\def2TZVP\C13H25N1O8\PMMASS\28-Feb-2022\0\
 \#n wB97XD/Def2TZVP scrf(smd,solvent=toluene) opt=(calcfc,ts,noeigente
 st) int=(grid=ultrafine)\\ts diels alder toluene 4 h2o - opt\\0,1\C,-2
 .6680124248,0.704259616,-0.7513165102\C,-1.8945963879,-0.5474694995,-0
 .6109570148\C,-0.5532471354,-0.2027576103,-0.5455524371\C,-0.474370369
 5,1.2703278727,-0.6514832725\H,-2.2951145858,-1.474836891,-0.985680921
 8\H,0.2678098353,-0.830670392,-0.8607300074\C,-2.1098916495,3.15627224
 88,-0.7035472733\H,-1.8349300011,3.5720784947,-1.6741014773\H,-3.18451
 82597,3.2513863297,-0.5661941593\H,-1.5934624901,3.7076420024,0.081600
 0832\N,-1.7671976832,1.7561106535,-0.6264584541\O,0.5144305615,1.97168
 74477,-0.7493456224\O,-3.8547856522,0.8527094606,-0.9540193537\C,-1.62
 40973873,-1.9312545453,1.8143435833\H,-1.8469892865,-2.9922862507,1.86
 13392574\C,-0.2880520493,-1.5433421068,1.8747896761\H,0.464698972,-2.3
 200588966,1.9493433532\C,-2.6472616174,-1.0689717899,1.4840283153\H,-2
 .5182310399,-0.0119693803,1.6919912077\C,-4.0623100304,-1.5256415305,1
 .3537354384\H,-4.6286940271,-0.8847995693,0.6790291045\H,-4.1249641073
 ,-2.5533903811,0.9965093624\H,-4.5539409826,-1.471175556,2.3303231088\
 C,0.1193127739,-0.2565387366,1.5993392284\H,-0.5532681134,0.5671543831
 ,1.8117299931\C,1.5583099036,0.1512774664,1.595074639\H,1.9404802045,0
 .2032495152,2.6192892973\H,1.6644102483,1.1324318643,1.1387965709\C,3.
 4602825023,-0.5319224556,0.2779533579\C,4.0849696991,0.8064212896,0.51
 36615995\H,4.0843621179,1.0684924937,1.571698643\H,5.1020243143,0.7958
 582246,0.1305006284\H,3.5137693225,1.5703492767,-0.0191112313\O,2.3091
 349495,-0.8258137865,0.8675436546\O,3.945027329,-1.3831233438,-0.43895
 9448\H,-4.6673928469,-0.7244423656,-1.6860736447\H,1.3900707681,4.6234
 236827,1.1358478332\H,2.345323789,-2.4361532226,-1.0780093364\H,5.6722
 700459,-1.056891504,-1.2045062549\O,1.5216343626,-2.7064137745,-1.5066
 883712\H,1.7621942107,-2.8926115522,-2.4155134569\O,6.521025765,-0.732
 692555,-1.5394140089\H,6.3595807029,-0.5130781453,-2.4579509299\O,0.99
 54571922,3.7786954919,1.3575473852\H,0.8558501025,3.3260840122,0.51333
 25742\O,-4.9246121005,-1.5676288028,-2.0875967889\H,-5.0768294446,-1.3
 663671826,-3.0120079199\\Version=ES64L-G09RevD.01\State=1-A\HF=-1167.0
 968092\RMSD=4.757e-09\RMSF=1.806e-06\Dipole=-0.4930777,1.5735272,0.253
 1293\Quadrupole=-24.1217402,7.9532466,16.1684936,3.7144665,-0.6483359,
 -4.1868386\PG=C01 [X(C13H25N1O8)]\\@


 GOD GAVE US TWO ENDS... ONE TO SIT ON...    
 AND THE OTHER TO THINK WITH...              
 YOUR SUCCESS DEPENDS UPON WHICH END YOU     
 USE THE MOST...                             
                                             
 IT'S A CASE OF HEADS YOU WIN TAILS YOU LOSE.
          SOURCE UNKNOWN(IT'S JUST AS WELL.) 
 Job cpu time:       3 days 23 hours 19 minutes  7.5 seconds.
 File lengths (MBytes):  RWF=   2665 Int=      0 D2E=      0 Chk=     57 Scr=      1
 Normal termination of Gaussian 09 at Mon Feb 28 22:42:11 2022.
