 Entering Gaussian System, Link 0=g09
 Input=ts_diels_water_freq.com
 Output=ts_diels_water_freq.log
 Initial command:
 /apps/applications/gaussian/G09.D01/2/default/g09/l1.exe "/nobackup/pmmass/Temp/Gau-138478.inp" -scrdir="/nobackup/pmmass/Temp/"
 Entering Link 1 = /apps/applications/gaussian/G09.D01/2/default/g09/l1.exe PID=    138479.
  
 Copyright (c) 1988,1990,1992,1993,1995,1998,2003,2009,2013,
            Gaussian, Inc.  All Rights Reserved.
  
 This is part of the Gaussian(R) 09 program.  It is based on
 the Gaussian(R) 03 system (copyright 2003, Gaussian, Inc.),
 the Gaussian(R) 98 system (copyright 1998, Gaussian, Inc.),
 the Gaussian(R) 94 system (copyright 1995, Gaussian, Inc.),
 the Gaussian 92(TM) system (copyright 1992, Gaussian, Inc.),
 the Gaussian 90(TM) system (copyright 1990, Gaussian, Inc.),
 the Gaussian 88(TM) system (copyright 1988, Gaussian, Inc.),
 the Gaussian 86(TM) system (copyright 1986, Carnegie Mellon
 University), and the Gaussian 82(TM) system (copyright 1983,
 Carnegie Mellon University). Gaussian is a federally registered
 trademark of Gaussian, Inc.
  
 This software contains proprietary and confidential information,
 including trade secrets, belonging to Gaussian, Inc.
  
 This software is provided under written license and may be
 used, copied, transmitted, or stored only in accord with that
 written license.
  
 The following legend is applicable only to US Government
 contracts under FAR:
  
                    RESTRICTED RIGHTS LEGEND
  
 Use, reproduction and disclosure by the US Government is
 subject to restrictions as set forth in subparagraphs (a)
 and (c) of the Commercial Computer Software - Restricted
 Rights clause in FAR 52.227-19.
  
 Gaussian, Inc.
 340 Quinnipiac St., Bldg. 40, Wallingford CT 06492
  
  
 ---------------------------------------------------------------
 Warning -- This program may not be used in any manner that
 competes with the business of Gaussian, Inc. or will provide
 assistance to any competitor of Gaussian, Inc.  The licensee
 of this program is prohibited from giving any competitor of
 Gaussian, Inc. access to this program.  By using this program,
 the user acknowledges that Gaussian, Inc. is engaged in the
 business of creating and licensing software in the field of
 computational chemistry and represents and warrants to the
 licensee that it is not a competitor of Gaussian, Inc. and that
 it will not use this program in any manner prohibited above.
 ---------------------------------------------------------------
  

 Cite this work as:
 Gaussian 09, Revision D.01,
 M. J. Frisch, G. W. Trucks, H. B. Schlegel, G. E. Scuseria, 
 M. A. Robb, J. R. Cheeseman, G. Scalmani, V. Barone, B. Mennucci, 
 G. A. Petersson, H. Nakatsuji, M. Caricato, X. Li, H. P. Hratchian, 
 A. F. Izmaylov, J. Bloino, G. Zheng, J. L. Sonnenberg, M. Hada, 
 M. Ehara, K. Toyota, R. Fukuda, J. Hasegawa, M. Ishida, T. Nakajima, 
 Y. Honda, O. Kitao, H. Nakai, T. Vreven, J. A. Montgomery, Jr., 
 J. E. Peralta, F. Ogliaro, M. Bearpark, J. J. Heyd, E. Brothers, 
 K. N. Kudin, V. N. Staroverov, T. Keith, R. Kobayashi, J. Normand, 
 K. Raghavachari, A. Rendell, J. C. Burant, S. S. Iyengar, J. Tomasi, 
 M. Cossi, N. Rega, J. M. Millam, M. Klene, J. E. Knox, J. B. Cross, 
 V. Bakken, C. Adamo, J. Jaramillo, R. Gomperts, R. E. Stratmann, 
 O. Yazyev, A. J. Austin, R. Cammi, C. Pomelli, J. W. Ochterski, 
 R. L. Martin, K. Morokuma, V. G. Zakrzewski, G. A. Voth, 
 P. Salvador, J. J. Dannenberg, S. Dapprich, A. D. Daniels, 
 O. Farkas, J. B. Foresman, J. V. Ortiz, J. Cioslowski, 
 and D. J. Fox, Gaussian, Inc., Wallingford CT, 2013.
 
 ******************************************
 Gaussian 09:  ES64L-G09RevD.01 24-Apr-2013
                 2-Mar-2022 
 ******************************************
 %nprocshared=8
 Will use up to    8 processors via shared memory.
 %mem=4GB
 %NoSave
 %chk="ts_diels_water_freq.chk"
 ----------------------------------------------------------------------
 #n wB97XD/Def2TZVP scrf(smd,solvent=toluene) freq int=(grid=ultrafine)
 ----------------------------------------------------------------------
 1/10=4,30=1,38=1/1,3;
 2/12=2,17=6,18=5,40=1/2;
 3/5=44,7=101,11=2,16=1,25=1,30=1,70=32201,71=2,72=13,74=-58,75=-5,140=1/1,2,3;
 4//1;
 5/5=2,38=5,53=13,98=1/2;
 8/6=4,10=90,11=11/1;
 11/6=1,8=1,9=11,15=111,16=1/1,2,10;
 10/6=1/2;
 6/7=2,8=2,9=2,10=2,18=1,28=1/1;
 7/8=1,10=1,25=1/1,2,3,16;
 1/10=4,30=1/3;
 99//99;
 -----------------------------
 ts diels water toluene - freq
 -----------------------------
 Symbolic Z-matrix:
 Charge =  0 Multiplicity = 1
 C                    -2.6846    0.62171  -0.76508 
 C                    -1.88802  -0.60929  -0.57854 
 C                    -0.55255  -0.2388   -0.53897 
 C                    -0.50066   1.22963  -0.70758 
 H                    -2.27485  -1.55852  -0.91046 
 H                     0.2771   -0.86509  -0.83425 
 C                    -2.16977   3.0829   -0.82543 
 H                    -1.90965   3.462    -1.81493 
 H                    -3.24484   3.165    -0.68322 
 H                    -1.65724   3.67591  -0.06859 
 N                    -1.80168   1.69344  -0.69224 
 O                     0.47475   1.94335  -0.84321 
 O                    -3.87533   0.74075  -0.96392 
 C                    -1.57449  -1.88429   1.90061 
 H                    -1.77813  -2.94611   1.99417 
 C                    -0.24512  -1.47095   1.93345 
 H                     0.52186  -2.23058   2.03439 
 C                    -2.6153   -1.05472   1.5428 
 H                    -2.50348   0.01222   1.70492 
 C                    -4.02296  -1.54108   1.44374 
 H                    -4.60577  -0.93933   0.74738 
 H                    -4.07008  -2.58396   1.13071 
 H                    -4.50802  -1.45392   2.42124 
 C                     0.13721  -0.19005   1.60058 
 H                    -0.54826   0.63005   1.78367 
 C                     1.56866   0.24223   1.56707 
 H                     1.95765   0.34414   2.58494 
 H                     1.65383   1.2049    1.06895 
 C                     3.47236  -0.46284   0.26405 
 C                     4.07496   0.89496   0.43787 
 H                     4.07777   1.20151   1.48388 
 H                     5.08909   0.88591   0.04699 
 H                     3.48623   1.62559  -0.12185 
 O                     2.33115  -0.75154   0.87513 
 O                     3.96667  -1.33504  -0.42037 
 H                    -4.66536  -0.87989  -1.62198 
 H                     1.31751   4.68733   0.92108 
 H                     2.38109  -2.44188  -1.00102 
 H                     5.68195  -1.01145  -1.21343 
 O                     1.55908  -2.74435  -1.41101 
 H                     1.79597  -2.96461  -2.31316 
 O                     6.52223  -0.68697  -1.56881 
 H                     6.34991  -0.50926  -2.4944 
 O                     0.93967   3.84599   1.1815 
 H                     0.80169   3.3557    0.35832 
 O                    -4.91062  -1.74366  -1.98542 
 H                    -5.07344  -1.58438  -2.91619 
 

 GradGradGradGradGradGradGradGradGradGradGradGradGradGradGradGradGradGrad
 Berny optimization.
 Initialization pass.
 Trust Radius=3.00D-01 FncErr=1.00D-07 GrdErr=1.00D-07
 Number of steps in this run=      2 maximum allowed number of steps=      2.
 GradGradGradGradGradGradGradGradGradGradGradGradGradGradGradGradGradGrad

                          Input orientation:                          
 ---------------------------------------------------------------------
 Center     Atomic      Atomic             Coordinates (Angstroms)
 Number     Number       Type             X           Y           Z
 ---------------------------------------------------------------------
      1          6           0       -2.684600    0.621710   -0.765080
      2          6           0       -1.888020   -0.609290   -0.578540
      3          6           0       -0.552550   -0.238800   -0.538970
      4          6           0       -0.500660    1.229630   -0.707580
      5          1           0       -2.274850   -1.558520   -0.910460
      6          1           0        0.277100   -0.865090   -0.834250
      7          6           0       -2.169770    3.082900   -0.825430
      8          1           0       -1.909650    3.462000   -1.814930
      9          1           0       -3.244840    3.165000   -0.683220
     10          1           0       -1.657240    3.675910   -0.068590
     11          7           0       -1.801680    1.693440   -0.692240
     12          8           0        0.474750    1.943350   -0.843210
     13          8           0       -3.875330    0.740750   -0.963920
     14          6           0       -1.574490   -1.884290    1.900610
     15          1           0       -1.778130   -2.946110    1.994170
     16          6           0       -0.245120   -1.470950    1.933450
     17          1           0        0.521860   -2.230580    2.034390
     18          6           0       -2.615300   -1.054720    1.542800
     19          1           0       -2.503480    0.012220    1.704920
     20          6           0       -4.022960   -1.541080    1.443740
     21          1           0       -4.605770   -0.939330    0.747380
     22          1           0       -4.070080   -2.583960    1.130710
     23          1           0       -4.508020   -1.453920    2.421240
     24          6           0        0.137210   -0.190050    1.600580
     25          1           0       -0.548260    0.630050    1.783670
     26          6           0        1.568660    0.242230    1.567070
     27          1           0        1.957650    0.344140    2.584940
     28          1           0        1.653830    1.204900    1.068950
     29          6           0        3.472360   -0.462840    0.264050
     30          6           0        4.074960    0.894960    0.437870
     31          1           0        4.077770    1.201510    1.483880
     32          1           0        5.089090    0.885910    0.046990
     33          1           0        3.486230    1.625590   -0.121850
     34          8           0        2.331150   -0.751540    0.875130
     35          8           0        3.966670   -1.335040   -0.420370
     36          1           0       -4.665360   -0.879890   -1.621980
     37          1           0        1.317510    4.687330    0.921080
     38          1           0        2.381090   -2.441880   -1.001020
     39          1           0        5.681950   -1.011450   -1.213430
     40          8           0        1.559080   -2.744350   -1.411010
     41          1           0        1.795970   -2.964610   -2.313160
     42          8           0        6.522230   -0.686970   -1.568810
     43          1           0        6.349910   -0.509260   -2.494400
     44          8           0        0.939670    3.845990    1.181500
     45          1           0        0.801690    3.355700    0.358320
     46          8           0       -4.910620   -1.743660   -1.985420
     47          1           0       -5.073440   -1.584380   -2.916190
 ---------------------------------------------------------------------
                    Distance matrix (angstroms):
                    1          2          3          4          5
     1  C    0.000000
     2  C    1.478072   0.000000
     3  C    2.310247   1.386473   0.000000
     4  C    2.267701   2.307173   1.478989   0.000000
     5  H    2.223158   1.077426   2.201359   3.310995   0.000000
     6  H    3.314668   2.195123   1.080624   2.238037   2.645582
     7  C    2.515184   3.711146   3.705557   2.496883   4.643388
     8  H    3.125697   4.254942   4.143153   2.862683   5.114397
     9  H    2.605551   4.012130   4.342245   3.358091   4.827438
    10  H    3.296772   4.321602   4.094698   2.780337   5.337550
    11  N    1.390489   2.307151   2.305942   1.381307   3.293441
    12  O    3.425541   3.488367   2.430985   1.216230   4.452855
    13  O    1.213073   2.433213   3.490124   3.419519   2.801970
    14  C    3.823386   2.805372   3.115052   4.201460   2.915261
    15  H    4.600488   3.477304   3.904916   5.134996   3.257148
    16  C    4.196707   3.122767   2.779491   3.785957   3.495039
    17  H    5.123863   3.906854   3.426912   4.531777   4.116478
    18  C    2.853337   2.286357   3.042109   3.841115   2.527490
    19  H    2.550526   2.445252   2.983987   3.363559   3.059364
    20  C    3.368643   3.084772   4.203667   4.971077   2.932311
    21  H    2.900909   3.041900   4.309760   4.865514   2.926605
    22  H    3.973650   3.403269   4.545396   5.537467   2.905297
    23  H    4.217314   4.071422   5.087740   5.748903   4.012258
    24  C    3.770665   3.004311   2.248515   2.783877   3.741132
    25  H    3.325680   2.985123   2.479834   2.562828   3.876763
    26  C    4.865506   4.156605   3.027594   3.229718   4.914613
    27  H    5.731506   5.070090   4.049659   4.203340   5.809647
    28  H    4.746130   4.306995   3.088331   2.792579   5.195102
    29  C    6.335891   5.428175   4.110345   4.426444   5.967446
    30  C    6.871201   6.233216   4.863484   4.728674   6.939571
    31  H    7.150080   6.566827   5.254168   5.075954   7.328466
    32  H    7.820455   7.162889   5.782424   5.650914   7.817900
    33  H    6.284955   5.838306   4.467850   4.049093   6.629518
    34  O    5.452876   4.464839   3.252431   3.801204   5.005475
    35  O    6.941692   5.901621   4.651791   5.159172   6.264719
    36  H    2.629162   2.979196   4.301060   4.757198   2.584828
    37  H    5.948889   6.370123   5.467689   4.232489   7.434395
    38  H    5.924733   4.664995   3.697742   4.676599   4.739863
    39  H    8.536240   7.607185   6.318297   6.595680   7.981337
    40  O    5.454943   4.139322   3.390754   4.530989   4.044226
    41  H    5.944220   4.704064   4.011650   5.044209   4.529485
    42  O    9.334042   8.468706   7.163375   7.330488   8.864629
    43  H    9.267794   8.458370   7.179193   7.290183   8.831551
    44  O    5.226900   5.562651   4.676777   3.533909   6.627078
    45  H    4.570662   4.881946   3.944556   2.711537   5.935020
    46  O    3.469780   3.521678   4.832142   5.470016   2.852560
    47  H    3.898803   4.069682   5.282065   5.805767   3.443215
                    6          7          8          9         10
     6  H    0.000000
     7  C    4.644769   0.000000
     8  H    4.946445   1.091096   0.000000
     9  H    5.354297   1.087538   1.775305   0.000000
    10  H    4.994856   1.089566   1.777406   1.777434   0.000000
    11  N    3.299632   1.443547   2.097593   2.061136   2.083264
    12  O    2.815401   2.879649   2.989298   3.918338   2.854327
    13  O    4.454011   2.900652   3.463137   2.520575   3.786384
    14  C    3.456387   5.697247   6.519232   5.912831   5.899188
    15  H    4.068731   6.667270   7.455898   6.831202   6.936912
    16  C    2.880962   5.661559   6.415217   6.110427   5.700212
    17  H    3.186466   6.607307   7.289374   7.119390   6.637592
    18  C    3.748640   4.788205   5.672129   4.812226   5.088548
    19  H    3.866353   3.992882   4.964168   4.024034   4.157413
    20  C    4.912913   5.473996   6.333705   5.222702   5.924589
    21  H    5.133175   4.958443   5.762482   4.554588   5.537154
    22  H    5.070854   6.288956   7.063844   6.084563   6.815137
    23  H    5.817414   6.049051   6.990203   5.706813   6.375057
    24  C    2.530542   4.681867   5.403037   5.283026   4.577316
    25  H    3.125727   3.931052   4.777368   4.447815   3.733359
    26  C    2.942894   5.269660   5.822670   6.064336   4.987181
    27  H    3.997167   6.013903   6.635956   6.760475   5.586532
    28  H    3.130881   4.662132   5.109761   5.559592   4.285216
    29  C    3.402610   6.752249   6.978005   7.692810   6.599447
    30  C    4.374906   6.736443   6.890599   7.745282   6.391268
    31  H    4.908121   6.921293   7.200081   7.884937   6.436083
    32  H    5.195944   7.634064   7.686699   8.670747   7.301399
    33  H    4.124259   5.882951   5.945960   6.927642   5.537322
    34  O    2.674695   6.152489   6.555511   6.989950   6.033256
    35  O    3.742336   7.572197   7.712816   8.504430   7.540672
    36  H    5.004862   4.750386   5.146181   4.388654   5.676013
    37  H    5.915489   4.217299   4.404741   5.070139   3.294170
    38  H    2.634550   7.159913   7.343616   7.949163   7.389512
    39  H    5.420111   8.863620   8.832098   9.869723   8.783263
    40  O    2.346858   6.942915   7.121378   7.650343   7.305241
    41  H    2.983643   7.383279   7.435131   8.101765   7.814042
    42  O    6.290704   9.503441   9.400592  10.536489   9.390906
    43  H    6.305691   9.395426   9.189827  10.432631   9.354927
    44  O    5.166868   3.778716   4.152670   4.631528   2.887143
    45  H    4.417294   3.210180   3.476446   4.182771   2.516172
    46  O    5.386048   5.670407   6.011138   5.344669   6.605336
    47  H    5.786202   5.880993   6.057086   5.557566   6.888389
                   11         12         13         14         15
    11  N    0.000000
    12  O    2.295077   0.000000
    13  O    2.298141   4.514866   0.000000
    14  C    4.424323   5.136026   4.515554   0.000000
    15  H    5.361229   6.085476   5.171217   1.085212   0.000000
    16  C    4.396645   4.459316   5.144394   1.392535   2.128357
    17  H    5.313312   5.069960   6.095404   2.128966   2.409057
    18  C    3.634524   4.922385   3.330921   1.378223   2.117060
    19  H    3.010880   4.369449   3.087950   2.120865   3.059659
    20  C    4.467507   6.131948   3.320447   2.514265   2.704874
    21  H    4.106934   6.054049   2.506942   3.378098   3.684725
    22  H    5.173484   6.711809   3.934349   2.703748   2.475833
    23  H    5.188825   6.857556   4.083648   3.010294   3.140274
    24  C    3.544553   3.261509   4.852167   2.427011   3.379247
    25  H    2.971866   3.109953   4.316353   2.718222   3.787586
    26  C    4.309256   3.146410   6.024239   3.809557   4.642082
    27  H    5.166535   4.063087   6.839252   4.232047   5.013064
    28  H    3.909093   2.364719   5.909281   4.544976   5.464912
    29  C    5.777502   4.000180   7.546197   5.492681   6.060329
    30  C    6.037352   3.962550   8.074398   6.463755   7.171789
    31  H    6.288515   4.352864   8.334016   6.453206   7.194075
    32  H    6.977197   4.816925   9.022407   7.450719   8.101518
    33  H    5.319017   3.112932   7.462211   6.482321   7.286389
    34  O    5.051224   3.696126   6.642998   4.193895   4.791093
    35  O    6.520695   4.808341   8.130272   6.032668   6.436480
    36  H    3.960695   5.915902   1.919287   4.792801   5.067732
    37  H    4.614707   3.369331   6.789279   7.246332   8.306860
    38  H    5.889973   4.784274   7.019494   4.937305   5.150196
    39  H    7.974509   5.998570   9.719777   7.944496   8.347718
    40  O    5.612960   4.844863   6.471370   4.639590   4.772099
    41  H    6.104744   5.290978   6.907517   5.502995   5.597109
    42  O    8.701851   6.634538  10.512542   8.889731   9.310989
    43  H    8.634123   6.577175  10.414434   9.165312   9.599507
    44  O    3.957193   2.817027   6.117971   6.298748   7.360672
    45  H    3.262563   1.882896   5.519130   5.956709   7.003163
    46  O    4.811598   6.625775   2.878816   5.123550   5.205335
    47  H    5.137555   6.893804   3.263902   5.961054   6.068362
                   16         17         18         19         20
    16  C    0.000000
    17  H    1.084198   0.000000
    18  C    2.437952   3.386160   0.000000
    19  H    2.711496   3.780395   1.084964   0.000000
    20  C    3.810093   4.634616   1.492604   2.188556   0.000000
    21  H    4.550236   5.442087   2.146620   2.498390   1.089352
    22  H    4.063681   4.693339   2.150530   3.086115   1.089865
    23  H    4.290751   5.104170   2.124478   2.584736   1.094708
    24  C    1.377564   2.121299   2.885707   2.650480   4.376859
    25  H    2.128034   3.064510   2.677522   2.052024   4.111313
    26  C    2.521709   2.725613   4.380433   4.080960   5.870402
    27  H    2.927659   2.998963   4.894358   4.559198   6.373703
    28  H    3.393161   3.743789   4.853441   4.371518   6.317184
    29  C    4.197957   3.868392   6.248610   6.165424   7.663817
    30  C    5.147561   4.994236   7.055615   6.757257   8.516007
    31  H    5.102111   4.972605   7.063373   6.691496   8.552499
    32  H    6.129218   5.875530   8.084622   7.820434   9.532610
    33  H    5.266478   5.320424   6.869046   6.466582   8.298603
    34  O    2.876588   2.608634   5.000507   4.964426   6.428173
    35  O    4.826812   4.323720   6.874223   6.942248   8.206799
    36  H    5.703416   6.488502   3.774804   4.066675   3.201326
    37  H    6.433593   7.051950   6.987465   6.088598   8.221124
    38  H    4.055958   3.565824   5.775738   6.099487   6.913765
    39  H    6.726377   6.217808   8.743171   8.750196  10.076028
    40  O    4.007755   3.634634   5.385656   5.814817   6.384092
    41  H    4.942749   4.589482   6.162419   6.594828   7.071116
    42  O    7.660122   7.167302   9.659804   9.626506  11.000272
    43  H    8.001570   7.578855   9.847411   9.812683  11.143161
    44  O    5.499001   6.150341   6.065089   5.179483   7.329188
    45  H    5.183956   5.839010   5.703562   4.890433   6.959442
    46  O    6.099082   6.775530   4.265146   4.743000   3.547974
    47  H    6.844308   7.498880   5.119139   5.523449   4.484905
                   21         22         23         24         25
    21  H    0.000000
    22  H    1.771641   0.000000
    23  H    1.753900   1.770381   0.000000
    24  C    4.877010   4.863422   4.883545   0.000000
    25  H    4.472163   4.812425   4.519859   1.084415   0.000000
    26  C    6.339682   6.322432   6.366520   1.495673   2.163023
    27  H    6.935590   6.857265   6.713025   2.137364   2.646387
    28  H    6.624479   6.864577   6.845904   2.128063   2.385472
    29  C    8.106592   7.882807   8.325994   3.603325   4.434979
    30  C    8.877809   8.883951   9.116937   4.246765   4.822398
    31  H    8.973823   8.991216   9.035803   4.180678   4.670824
    32  H    9.890013   9.854179  10.159547   5.300231   5.904341
    33  H    8.533161   8.739968   8.936371   4.180819   4.571566
    34  O    6.940637   6.663245   7.046846   2.378008   3.320427
    35  O    8.660656   8.279795   8.939197   4.478840   5.394809
    36  H    2.370854   3.291734   4.086795   5.824556   5.552376
    37  H    8.171580   9.052167   8.596641   5.063957   4.548261
    38  H    7.357362   6.795738   7.755499   4.107805   5.076647
    39  H   10.473164  10.152333  10.827839   6.271961   7.105818
    40  O    6.776586   6.178471   7.291163   4.197122   5.102297
    41  H    7.379088   6.812905   8.027267   5.076123   5.933044
    42  O   11.369292  11.094278  11.754792   7.145659   7.935080
    43  H   11.433329  11.225952  11.956193   7.447711   8.196625
    44  O    7.337551   8.151345   7.700865   4.136326   3.594275
    45  H    6.916594   7.720770   7.455274   3.815375   3.359041
    46  O    2.864974   3.335098   4.434489   6.383862   6.234639
    47  H    3.749207   4.287574   5.368881   7.035356   6.889821
                   26         27         28         29         30
    26  C    0.000000
    27  H    1.094421   0.000000
    28  H    1.087249   1.769588   0.000000
    29  C    2.412272   2.886537   2.595433   0.000000
    30  C    2.825365   3.065341   2.521150   1.495647   0.000000
    31  H    2.687521   2.538174   2.459200   2.150481   1.090008
    32  H    3.888238   4.067016   3.598217   2.116615   1.086889
    33  H    2.905720   3.362348   2.225461   2.123829   1.092570
    34  O    1.430996   2.064816   2.079420   1.326321   2.437833
    35  O    3.491153   3.985937   3.744142   1.213881   2.391904
    36  H    7.091699   7.941076   7.177717   8.363822   9.153484
    37  H    4.498810   4.694839   3.501756   5.621327   4.713713
    38  H    3.802575   4.560737   4.255900   2.589956   4.009252
    39  H    5.120747   5.489595   5.132954   2.714076   2.990587
    40  O    4.217667   5.066088   4.664306   3.416395   4.795059
    41  H    5.039016   5.913151   5.370632   3.963729   5.259110
    42  O    5.935909   6.257173   5.851348   3.565293   3.538135
    43  H    6.318277   6.769042   6.139135   3.986414   3.968052
    44  O    3.678502   3.907541   2.738256   5.081560   4.369394
    45  H    3.426808   3.919639   2.420140   4.660752   4.095835
    46  O    7.651471   8.510008   7.817620   8.773538   9.673433
    47  H    8.219101   9.133337   8.301662   9.187082  10.054356
                   31         32         33         34         35
    31  H    0.000000
    32  H    1.785224   0.000000
    33  H    1.762990   1.773357   0.000000
    34  O    2.689919   3.312596   2.824699   0.000000
    35  O    3.173736   2.531970   3.014178   2.166499   0.000000
    36  H    9.508991  10.052502   8.658882   7.429885   8.727140
    37  H    4.481821   5.425831   3.894265   5.532710   6.714646
    38  H    4.725224   4.416534   4.305646   2.525803   2.018988
    39  H    3.840061   2.353745   3.600932   3.956955   1.917248
    40  O    5.503998   5.269300   4.946940   3.129508   2.960407
    41  H    6.081174   5.589405   5.359921   3.917817   3.309092
    42  O    4.342886   2.671825   4.081534   4.852027   2.875725
    43  H    4.890405   3.161460   4.288035   5.250035   3.265478
    44  O    4.114897   5.221769   3.621307   4.813249   6.210619
    45  H    4.079230   4.957680   3.229644   4.413135   5.711961
    46  O   10.074782  10.537530   9.237523   7.849222   9.023449
    47  H   10.529314  10.870133   9.559299   8.360364   9.381624
                   36         37         38         39         40
    36  H    0.000000
    37  H    8.558962   0.000000
    38  H    7.244161   7.459980   0.000000
    39  H   10.356208   7.488696   3.603738   0.000000
    40  O    6.501106   7.792745   0.967099   4.476610   0.000000
    41  H    6.824410   8.321143   1.528831   4.486099   0.958387
    42  O   11.189380   7.884907   4.533336   0.968325   5.374995
    43  H   11.055978   7.999694   4.660122   1.529461   5.396426
    44  O    7.849191   0.958350   6.810168   7.198585   7.108963
    45  H    7.193778   1.534929   6.160702   6.734934   6.396466
    46  O    0.968679   9.412491   7.390913  10.645874   6.571784
    47  H    1.528991   9.741829   7.744237  10.904405   6.899378
                   41         42         43         44         45
    41  H    0.000000
    42  O    5.298984   0.000000
    43  H    5.176868   0.958119   0.000000
    44  O    7.702608   7.699150   7.858189   0.000000
    45  H    6.933377   7.265094   7.338847   0.968012   0.000000
    46  O    6.824696  11.489135  11.339415   8.689043   8.007938
    47  H    7.032601  11.708131  11.481582   9.079508   8.345296
                   46         47
    46  O    0.000000
    47  H    0.958234   0.000000
 Stoichiometry    C13H25NO8
 Framework group  C1[X(C13H25NO8)]
 Deg. of freedom   135
 Full point group                 C1      NOp   1
 Largest Abelian subgroup         C1      NOp   1
 Largest concise Abelian subgroup C1      NOp   1
                         Standard orientation:                         
 ---------------------------------------------------------------------
 Center     Atomic      Atomic             Coordinates (Angstroms)
 Number     Number       Type             X           Y           Z
 ---------------------------------------------------------------------
      1          6           0       -2.684599    0.621711   -0.765080
      2          6           0       -1.888020   -0.609290   -0.578540
      3          6           0       -0.552549   -0.238800   -0.538970
      4          6           0       -0.500659    1.229630   -0.707580
      5          1           0       -2.274850   -1.558520   -0.910460
      6          1           0        0.277100   -0.865090   -0.834250
      7          6           0       -2.169768    3.082900   -0.825430
      8          1           0       -1.909648    3.462000   -1.814930
      9          1           0       -3.244838    3.165001   -0.683220
     10          1           0       -1.657238    3.675910   -0.068590
     11          7           0       -1.801679    1.693440   -0.692240
     12          8           0        0.474751    1.943349   -0.843210
     13          8           0       -3.875329    0.740751   -0.963920
     14          6           0       -1.574490   -1.884290    1.900610
     15          1           0       -1.778130   -2.946110    1.994170
     16          6           0       -0.245120   -1.470950    1.933450
     17          1           0        0.521860   -2.230581    2.034390
     18          6           0       -2.615300   -1.054719    1.542800
     19          1           0       -2.503479    0.012220    1.704920
     20          6           0       -4.022960   -1.541079    1.443740
     21          1           0       -4.605770   -0.939329    0.747380
     22          1           0       -4.070080   -2.583959    1.130710
     23          1           0       -4.508020   -1.453919    2.421240
     24          6           0        0.137211   -0.190050    1.600580
     25          1           0       -0.548259    0.630050    1.783670
     26          6           0        1.568661    0.242229    1.567070
     27          1           0        1.957651    0.344139    2.584940
     28          1           0        1.653831    1.204899    1.068950
     29          6           0        3.472360   -0.462842    0.264050
     30          6           0        4.074961    0.894958    0.437870
     31          1           0        4.077771    1.201508    1.483880
     32          1           0        5.089091    0.885908    0.046990
     33          1           0        3.486231    1.625588   -0.121850
     34          8           0        2.331150   -0.751541    0.875130
     35          8           0        3.966670   -1.335042   -0.420370
     36          1           0       -4.665360   -0.879889   -1.621980
     37          1           0        1.317512    4.687329    0.921080
     38          1           0        2.381090   -2.441881   -1.001020
     39          1           0        5.681950   -1.011452   -1.213430
     40          8           0        1.559080   -2.744351   -1.411010
     41          1           0        1.795970   -2.964611   -2.313160
     42          8           0        6.522230   -0.686973   -1.568810
     43          1           0        6.349910   -0.509262   -2.494400
     44          8           0        0.939672    3.845989    1.181500
     45          1           0        0.801692    3.355699    0.358320
     46          8           0       -4.910620   -1.743659   -1.985420
     47          1           0       -5.073440   -1.584379   -2.916190
 ---------------------------------------------------------------------
 Rotational constants (GHZ):      0.3485008      0.1483104      0.1311561
 Standard basis: def2TZVP (5D, 7F)
 There are   942 symmetry adapted cartesian basis functions of A   symmetry.
 There are   832 symmetry adapted basis functions of A   symmetry.
   832 basis functions,  1322 primitive gaussians,   942 cartesian basis functions
    87 alpha electrons       87 beta electrons
       nuclear repulsion energy      2016.9232753457 Hartrees.
 NAtoms=   47 NActive=   47 NUniq=   47 SFac= 1.00D+00 NAtFMM=   60 NAOKFM=F Big=F
 Integral buffers will be    131072 words long.
 Raffenetti 2 integral format.
 Two-electron integral symmetry is turned on.
 Nuclear repulsion after empirical dispersion term =     2016.8840129328 Hartrees.
 Force inversion solution in PCM.
 ------------------------------------------------------------------------------
 Polarizable Continuum Model (PCM)
 =================================
 Model                : PCM (using non-symmetric T matrix).
 Atomic radii         : SMD-Coulomb.
 Polarization charges : Total charges.
 Charge compensation  : None.
 Solution method      : Matrix inversion.
 Cavity type          : VdW (van der Waals Surface) (Alpha=1.000).
 Cavity algorithm     : GePol (No added spheres)
                        Default sphere list used, NSphG=   47.
                        Lebedev-Laikov grids with approx.  5.0 points / Ang**2.
                        Smoothing algorithm: Karplus/York (Gamma=1.0000).
                        Polarization charges: spherical gaussians, with
                                              point-specific exponents (IZeta= 3).
                        Self-potential: point-specific (ISelfS= 7).
                        Self-field    : sphere-specific E.n sum rule (ISelfD= 2).
 1st derivatives      : Analytical E(r).r(x)/FMM algorithm (CHGder, D1EAlg=3).
                        Cavity 1st derivative terms included.
 2nd derivatives      : Analytical E(r).r(xy)/FMM algorithm (CHGder, D2EAlg=3).
                        Cavity 2nd derivative terms included.
 Solvent              : Toluene, Eps=   2.374100 Eps(inf)=   2.238315
 ------------------------------------------------------------------------------
 ------------------------------------------------------------------------------
 Atomic radii for non-electrostatic terms: SMD-CDS.
 ------------------------------------------------------------------------------
 Nuclear repulsion after PCM non-electrostatic terms =     2016.8724550441 Hartrees.
 One-electron integrals computed using PRISM.
   1 Symmetry operations used in ECPInt.
 ECPInt:  NShTT=   58653 NPrTT=  174904 LenC2=   49249 LenP2D=  102921.
 LDataN:  DoStor=T MaxTD1= 6 Len=  172
 NBasis=   832 RedAO= T EigKep=  1.19D-05  NBF=   832
 NBsUse=   832 1.00D-06 EigRej= -1.00D+00 NBFU=   832
 ExpMin= 9.52D-02 ExpMax= 2.70D+04 ExpMxC= 9.22D+02 IAcc=3 IRadAn=         5 AccDes= 0.00D+00
 Harris functional with IExCor= 4639 and IRadAn=       5 diagonalized for initial guess.
 HarFok:  IExCor= 4639 AccDes= 0.00D+00 IRadAn=         5 IDoV= 1 UseB2=F ITyADJ=14
 ICtDFT=  3500011 ScaDFX=  1.000000  1.000000  1.000000  1.000000
 FoFCou: FMM=F IPFlag=           0 FMFlag=      100000 FMFlg1=           0
         NFxFlg=           0 DoJE=T BraDBF=F KetDBF=T FulRan=T
         wScrn=  0.000000 ICntrl=     500 IOpCl=  0 I1Cent=   200000004 NGrid=           0
         NMat0=    1 NMatS0=      1 NMatT0=    0 NMatD0=    1 NMtDS0=    0 NMtDT0=    0
 Petite list used in FoFCou.
 Requested convergence on RMS density matrix=1.00D-08 within 128 cycles.
 Requested convergence on MAX density matrix=1.00D-06.
 Requested convergence on             energy=1.00D-06.
 No special actions if energy rises.
 Inv3:  Mode=1 IEnd=    37276875.
 Iteration    1 A*A^-1 deviation from unit magnitude is 8.22D-15 for   1316.
 Iteration    1 A*A^-1 deviation from orthogonality  is 4.59D-15 for    907     95.
 Iteration    1 A^-1*A deviation from unit magnitude is 5.77D-15 for   3488.
 Iteration    1 A^-1*A deviation from orthogonality  is 1.54D-14 for   1139   1131.
 Error on total polarization charges =  0.01386
 SCF Done:  E(RwB97XD) =  -1167.09680923     A.U. after   15 cycles
            NFock= 15  Conv=0.53D-08     -V/T= 2.0044
 SMD-CDS (non-electrostatic) energy       (kcal/mol) =      -7.25
 (included in total energy above)
 DoSCS=F DFT=T ScalE2(SS,OS)=  1.000000  1.000000
 Range of M.O.s used for correlation:     1   832
 NBasis=   832 NAE=    87 NBE=    87 NFC=     0 NFV=     0
 NROrb=    832 NOA=    87 NOB=    87 NVA=   745 NVB=   745

 **** Warning!!: The largest alpha MO coefficient is  0.27688820D+02

 PrsmSu:  requested number of processors reduced to:   7 ShMem   1 Linda.
   1 Symmetry operations used in ECPInt.
 ECPInt:  NShTT=   58653 NPrTT=  174904 LenC2=   49249 LenP2D=  102921.
 LDataN:  DoStor=T MaxTD1= 7 Len=  274
 Number of processors reduced to   2 by ecpmxn.
 Symmetrizing basis deriv contribution to polar:
 IMax=3 JMax=2 DiffMx= 0.00D+00
 G2DrvN: will do    24 centers at a time, making    2 passes.
 Calling FoFCou, ICntrl=  3107 FMM=F I1Cent=   0 AccDes= 0.00D+00.
 Calling FoFCou, ICntrl=  3107 FMM=F I1Cent=   0 AccDes= 0.00D+00.
 NEqPCM:  Using equilibrium solvation (IEInf=0, Eps=   2.3741, EpsInf=   2.2383)
 G2PCM: DoFxE=T DoFxN=T DoGrad=T DoDP/DQ/DG/TGxP=FFFF NFrqRd=   0 IEInf=0 SqF1=F DoCFld=F IF1Alg=4.
 CoulSu:  requested number of processors reduced to:   7 ShMem   1 Linda.
 CoulSu:  requested number of processors reduced to:   7 ShMem   1 Linda.
 End of G2Drv F.D. properties file   721 does not exist.
 End of G2Drv F.D. properties file   722 does not exist.
 End of G2Drv F.D. properties file   788 does not exist.
          IDoAtm=11111111111111111111111111111111111111111111111
 NEqPCM:  Using equilibrium solvation (IEInf=0, Eps=   2.3741, EpsInf=   2.2383)
          Differentiating once with respect to electric field.
                with respect to dipole field.
          Differentiating once with respect to nuclear coordinates.
          There are   144 degrees of freedom in the 1st order CPHF.  IDoFFX=6 NUNeed=     3.
    144 vectors produced by pass  0 Test12= 6.48D-14 1.00D-09 XBig12= 1.18D+02 4.37D+00.
 AX will form    72 AO Fock derivatives at one time.
    142 vectors produced by pass  1 Test12= 6.48D-14 1.00D-09 XBig12= 1.69D+01 5.96D-01.
    141 vectors produced by pass  2 Test12= 6.48D-14 1.00D-09 XBig12= 4.48D-01 1.37D-01.
    141 vectors produced by pass  3 Test12= 6.48D-14 1.00D-09 XBig12= 5.61D-03 1.16D-02.
    141 vectors produced by pass  4 Test12= 6.48D-14 1.00D-09 XBig12= 4.65D-05 5.48D-04.
    141 vectors produced by pass  5 Test12= 6.48D-14 1.00D-09 XBig12= 3.38D-07 4.31D-05.
    134 vectors produced by pass  6 Test12= 6.48D-14 1.00D-09 XBig12= 2.04D-09 3.62D-06.
     39 vectors produced by pass  7 Test12= 6.48D-14 1.00D-09 XBig12= 1.23D-11 2.50D-07.
      5 vectors produced by pass  8 Test12= 6.48D-14 1.00D-09 XBig12= 7.30D-14 2.13D-08.
      3 vectors produced by pass  9 Test12= 6.48D-14 1.00D-09 XBig12= 2.38D-15 2.91D-09.
 InvSVY:  IOpt=1 It=  1 EMax= 5.33D-15
 Solved reduced A of dimension  1031 with   144 vectors.
 Isotropic polarizability for W=    0.000000      243.57 Bohr**3.
 End of Minotr F.D. properties file   721 does not exist.
 End of Minotr F.D. properties file   722 does not exist.
 End of Minotr F.D. properties file   788 does not exist.

 **********************************************************************

            Population analysis using the SCF density.

 **********************************************************************

 Orbital symmetries:
       Occupied  (A) (A) (A) (A) (A) (A) (A) (A) (A) (A) (A) (A)
                 (A) (A) (A) (A) (A) (A) (A) (A) (A) (A) (A) (A)
                 (A) (A) (A) (A) (A) (A) (A) (A) (A) (A) (A) (A)
                 (A) (A) (A) (A) (A) (A) (A) (A) (A) (A) (A) (A)
                 (A) (A) (A) (A) (A) (A) (A) (A) (A) (A) (A) (A)
                 (A) (A) (A) (A) (A) (A) (A) (A) (A) (A) (A) (A)
                 (A) (A) (A) (A) (A) (A) (A) (A) (A) (A) (A) (A)
                 (A) (A) (A)
       Virtual   (A) (A) (A) (A) (A) (A) (A) (A) (A) (A) (A) (A)
                 (A) (A) (A) (A) (A) (A) (A) (A) (A) (A) (A) (A)
                 (A) (A) (A) (A) (A) (A) (A) (A) (A) (A) (A) (A)
                 (A) (A) (A) (A) (A) (A) (A) (A) (A) (A) (A) (A)
                 (A) (A) (A) (A) (A) (A) (A) (A) (A) (A) (A) (A)
                 (A) (A) (A) (A) (A) (A) (A) (A) (A) (A) (A) (A)
                 (A) (A) (A) (A) (A) (A) (A) (A) (A) (A) (A) (A)
                 (A) (A) (A) (A) (A) (A) (A) (A) (A) (A) (A) (A)
                 (A) (A) (A) (A) (A) (A) (A) (A) (A) (A) (A) (A)
                 (A) (A) (A) (A) (A) (A) (A) (A) (A) (A) (A) (A)
                 (A) (A) (A) (A) (A) (A) (A) (A) (A) (A) (A) (A)
                 (A) (A) (A) (A) (A) (A) (A) (A) (A) (A) (A) (A)
                 (A) (A) (A) (A) (A) (A) (A) (A) (A) (A) (A) (A)
                 (A) (A) (A) (A) (A) (A) (A) (A) (A) (A) (A) (A)
                 (A) (A) (A) (A) (A) (A) (A) (A) (A) (A) (A) (A)
                 (A) (A) (A) (A) (A) (A) (A) (A) (A) (A) (A) (A)
                 (A) (A) (A) (A) (A) (A) (A) (A) (A) (A) (A) (A)
                 (A) (A) (A) (A) (A) (A) (A) (A) (A) (A) (A) (A)
                 (A) (A) (A) (A) (A) (A) (A) (A) (A) (A) (A) (A)
                 (A) (A) (A) (A) (A) (A) (A) (A) (A) (A) (A) (A)
                 (A) (A) (A) (A) (A) (A) (A) (A) (A) (A) (A) (A)
                 (A) (A) (A) (A) (A) (A) (A) (A) (A) (A) (A) (A)
                 (A) (A) (A) (A) (A) (A) (A) (A) (A) (A) (A) (A)
                 (A) (A) (A) (A) (A) (A) (A) (A) (A) (A) (A) (A)
                 (A) (A) (A) (A) (A) (A) (A) (A) (A) (A) (A) (A)
                 (A) (A) (A) (A) (A) (A) (A) (A) (A) (A) (A) (A)
                 (A) (A) (A) (A) (A) (A) (A) (A) (A) (A) (A) (A)
                 (A) (A) (A) (A) (A) (A) (A) (A) (A) (A) (A) (A)
                 (A) (A) (A) (A) (A) (A) (A) (A) (A) (A) (A) (A)
                 (A) (A) (A) (A) (A) (A) (A) (A) (A) (A) (A) (A)
                 (A) (A) (A) (A) (A) (A) (A) (A) (A) (A) (A) (A)
                 (A) (A) (A) (A) (A) (A) (A) (A) (A) (A) (A) (A)
                 (A) (A) (A) (A) (A) (A) (A) (A) (A) (A) (A) (A)
                 (A) (A) (A) (A) (A) (A) (A) (A) (A) (A) (A) (A)
                 (A) (A) (A) (A) (A) (A) (A) (A) (A) (A) (A) (A)
                 (A) (A) (A) (A) (A) (A) (A) (A) (A) (A) (A) (A)
                 (A) (A) (A) (A) (A) (A) (A) (A) (A) (A) (A) (A)
                 (A) (A) (A) (A) (A) (A) (A) (A) (A) (A) (A) (A)
                 (A) (A) (A) (A) (A) (A) (A) (A) (A) (A) (A) (A)
                 (A) (A) (A) (A) (A) (A) (A) (A) (A) (A) (A) (A)
                 (A) (A) (A) (A) (A) (A) (A) (A) (A) (A) (A) (A)
                 (A) (A) (A) (A) (A) (A) (A) (A) (A) (A) (A) (A)
                 (A) (A) (A) (A) (A) (A) (A) (A) (A) (A) (A) (A)
                 (A) (A) (A) (A) (A) (A) (A) (A) (A) (A) (A) (A)
                 (A) (A) (A) (A) (A) (A) (A) (A) (A) (A) (A) (A)
                 (A) (A) (A) (A) (A) (A) (A) (A) (A) (A) (A) (A)
                 (A) (A) (A) (A) (A) (A) (A) (A) (A) (A) (A) (A)
                 (A) (A) (A) (A) (A) (A) (A) (A) (A) (A) (A) (A)
                 (A) (A) (A) (A) (A) (A) (A) (A) (A) (A) (A) (A)
                 (A) (A) (A) (A) (A) (A) (A) (A) (A) (A) (A) (A)
                 (A) (A) (A) (A) (A) (A) (A) (A) (A) (A) (A) (A)
                 (A) (A) (A) (A) (A) (A) (A) (A) (A) (A) (A) (A)
                 (A) (A) (A) (A) (A) (A) (A) (A) (A) (A) (A) (A)
                 (A) (A) (A) (A) (A) (A) (A) (A) (A) (A) (A) (A)
                 (A) (A) (A) (A) (A) (A) (A) (A) (A) (A) (A) (A)
                 (A) (A) (A) (A) (A) (A) (A) (A) (A) (A) (A) (A)
                 (A) (A) (A) (A) (A) (A) (A) (A) (A) (A) (A) (A)
                 (A) (A) (A) (A) (A) (A) (A) (A) (A) (A) (A) (A)
                 (A) (A) (A) (A) (A) (A) (A) (A) (A) (A) (A) (A)
                 (A) (A) (A) (A) (A) (A) (A) (A) (A) (A) (A) (A)
                 (A) (A) (A) (A) (A) (A) (A) (A) (A) (A) (A) (A)
                 (A) (A) (A) (A) (A) (A) (A) (A) (A) (A) (A) (A)
                 (A)
 The electronic state is 1-A.
 Alpha  occ. eigenvalues --  -19.31300 -19.25427 -19.25402 -19.25294 -19.23868
 Alpha  occ. eigenvalues --  -19.23174 -19.22539 -19.22496 -14.48942 -10.43826
 Alpha  occ. eigenvalues --  -10.41591 -10.41460 -10.35731 -10.32234 -10.32053
 Alpha  occ. eigenvalues --  -10.31902 -10.31030 -10.30817 -10.29855 -10.29638
 Alpha  occ. eigenvalues --  -10.29165 -10.27653  -1.23307  -1.18879  -1.16795
 Alpha  occ. eigenvalues --   -1.14308  -1.10262  -1.09576  -1.08994  -1.08957
 Alpha  occ. eigenvalues --   -1.07313  -0.95148  -0.92068  -0.89691  -0.86127
 Alpha  occ. eigenvalues --   -0.83900  -0.81036  -0.78215  -0.76341  -0.71917
 Alpha  occ. eigenvalues --   -0.70850  -0.68142  -0.65050  -0.63013  -0.62608
 Alpha  occ. eigenvalues --   -0.61670  -0.60958  -0.60787  -0.60429  -0.59797
 Alpha  occ. eigenvalues --   -0.59193  -0.59011  -0.58516  -0.56557  -0.55940
 Alpha  occ. eigenvalues --   -0.54812  -0.53829  -0.53362  -0.52287  -0.52011
 Alpha  occ. eigenvalues --   -0.51665  -0.50483  -0.50076  -0.49454  -0.48955
 Alpha  occ. eigenvalues --   -0.48562  -0.48299  -0.47777  -0.46923  -0.46467
 Alpha  occ. eigenvalues --   -0.45932  -0.45698  -0.45232  -0.44575  -0.43939
 Alpha  occ. eigenvalues --   -0.43658  -0.40311  -0.39655  -0.39159  -0.39006
 Alpha  occ. eigenvalues --   -0.38643  -0.38366  -0.38077  -0.36962  -0.36486
 Alpha  occ. eigenvalues --   -0.32613  -0.31352
 Alpha virt. eigenvalues --   -0.01537   0.01838   0.06298   0.09621   0.10106
 Alpha virt. eigenvalues --    0.11002   0.11707   0.12082   0.13031   0.13541
 Alpha virt. eigenvalues --    0.13831   0.14567   0.15045   0.15920   0.16140
 Alpha virt. eigenvalues --    0.16646   0.17324   0.18534   0.18638   0.19357
 Alpha virt. eigenvalues --    0.19481   0.20068   0.20454   0.21400   0.21559
 Alpha virt. eigenvalues --    0.21691   0.22530   0.22833   0.23137   0.23521
 Alpha virt. eigenvalues --    0.23712   0.24000   0.24913   0.25283   0.25480
 Alpha virt. eigenvalues --    0.26449   0.27273   0.27752   0.28242   0.28583
 Alpha virt. eigenvalues --    0.28866   0.30084   0.30544   0.30606   0.31298
 Alpha virt. eigenvalues --    0.31925   0.32041   0.33180   0.34032   0.34342
 Alpha virt. eigenvalues --    0.34492   0.35800   0.36165   0.36685   0.37448
 Alpha virt. eigenvalues --    0.37602   0.38239   0.38857   0.39082   0.39489
 Alpha virt. eigenvalues --    0.40539   0.41163   0.41842   0.42084   0.42707
 Alpha virt. eigenvalues --    0.43432   0.43597   0.44275   0.44463   0.44770
 Alpha virt. eigenvalues --    0.44961   0.45704   0.45903   0.46482   0.46796
 Alpha virt. eigenvalues --    0.47188   0.47815   0.47950   0.48397   0.48972
 Alpha virt. eigenvalues --    0.49533   0.49776   0.50013   0.50143   0.50554
 Alpha virt. eigenvalues --    0.51085   0.51468   0.51916   0.52082   0.52696
 Alpha virt. eigenvalues --    0.53238   0.53551   0.53686   0.54056   0.54236
 Alpha virt. eigenvalues --    0.55134   0.55436   0.55751   0.56161   0.56717
 Alpha virt. eigenvalues --    0.56977   0.57286   0.57723   0.58209   0.58373
 Alpha virt. eigenvalues --    0.58896   0.59965   0.60400   0.61101   0.61456
 Alpha virt. eigenvalues --    0.62138   0.62541   0.62899   0.63105   0.63246
 Alpha virt. eigenvalues --    0.63504   0.64204   0.64535   0.65159   0.65503
 Alpha virt. eigenvalues --    0.65756   0.66325   0.66746   0.67036   0.67769
 Alpha virt. eigenvalues --    0.68338   0.69152   0.70047   0.70467   0.71175
 Alpha virt. eigenvalues --    0.71391   0.72271   0.72759   0.73377   0.73729
 Alpha virt. eigenvalues --    0.74453   0.75644   0.76175   0.77238   0.78306
 Alpha virt. eigenvalues --    0.78844   0.79198   0.79878   0.81177   0.81501
 Alpha virt. eigenvalues --    0.81807   0.83220   0.84095   0.84802   0.86093
 Alpha virt. eigenvalues --    0.86471   0.87006   0.87858   0.88660   0.88956
 Alpha virt. eigenvalues --    0.89861   0.90452   0.91365   0.92170   0.93148
 Alpha virt. eigenvalues --    0.94205   0.94296   0.95384   0.95858   0.96699
 Alpha virt. eigenvalues --    0.97464   0.97844   0.98607   0.99161   0.99489
 Alpha virt. eigenvalues --    1.00550   1.01427   1.01737   1.02497   1.03693
 Alpha virt. eigenvalues --    1.04838   1.05307   1.06297   1.06674   1.08213
 Alpha virt. eigenvalues --    1.08454   1.09335   1.10006   1.11010   1.11149
 Alpha virt. eigenvalues --    1.12384   1.12733   1.13625   1.14580   1.15211
 Alpha virt. eigenvalues --    1.16817   1.16939   1.17835   1.17941   1.19331
 Alpha virt. eigenvalues --    1.20244   1.20981   1.21600   1.22185   1.23889
 Alpha virt. eigenvalues --    1.24538   1.24839   1.26320   1.26857   1.28279
 Alpha virt. eigenvalues --    1.28927   1.29246   1.30374   1.30848   1.31421
 Alpha virt. eigenvalues --    1.32742   1.33574   1.34073   1.35103   1.35634
 Alpha virt. eigenvalues --    1.35790   1.36533   1.38019   1.38376   1.39416
 Alpha virt. eigenvalues --    1.39636   1.39912   1.40649   1.41585   1.41723
 Alpha virt. eigenvalues --    1.43328   1.43752   1.45775   1.46751   1.47579
 Alpha virt. eigenvalues --    1.48194   1.49867   1.51087   1.51928   1.52552
 Alpha virt. eigenvalues --    1.53157   1.54290   1.54806   1.56644   1.57369
 Alpha virt. eigenvalues --    1.57769   1.58482   1.58973   1.59315   1.59440
 Alpha virt. eigenvalues --    1.60931   1.61127   1.61378   1.62278   1.63081
 Alpha virt. eigenvalues --    1.63713   1.64334   1.65086   1.65546   1.65839
 Alpha virt. eigenvalues --    1.66154   1.66878   1.67164   1.68087   1.68495
 Alpha virt. eigenvalues --    1.69374   1.70781   1.71440   1.71515   1.72019
 Alpha virt. eigenvalues --    1.72179   1.73303   1.73472   1.74572   1.75062
 Alpha virt. eigenvalues --    1.75579   1.76753   1.77857   1.78717   1.79150
 Alpha virt. eigenvalues --    1.79756   1.81332   1.82862   1.83855   1.84242
 Alpha virt. eigenvalues --    1.85722   1.86387   1.87279   1.87622   1.88160
 Alpha virt. eigenvalues --    1.89126   1.90230   1.90758   1.91564   1.92181
 Alpha virt. eigenvalues --    1.92313   1.93101   1.93360   1.94670   1.95236
 Alpha virt. eigenvalues --    1.96048   1.96987   1.98114   1.98905   1.99126
 Alpha virt. eigenvalues --    1.99613   2.00807   2.01112   2.03769   2.03980
 Alpha virt. eigenvalues --    2.04344   2.05216   2.06396   2.08223   2.08852
 Alpha virt. eigenvalues --    2.09594   2.10483   2.11144   2.12157   2.13132
 Alpha virt. eigenvalues --    2.14227   2.14530   2.14944   2.15594   2.16511
 Alpha virt. eigenvalues --    2.17479   2.17783   2.18167   2.18507   2.19417
 Alpha virt. eigenvalues --    2.20231   2.20438   2.20752   2.21403   2.21828
 Alpha virt. eigenvalues --    2.22603   2.23049   2.23789   2.23913   2.24706
 Alpha virt. eigenvalues --    2.26085   2.27750   2.28547   2.28834   2.29376
 Alpha virt. eigenvalues --    2.30462   2.31515   2.32072   2.32800   2.32922
 Alpha virt. eigenvalues --    2.34566   2.35382   2.36417   2.38007   2.39009
 Alpha virt. eigenvalues --    2.39725   2.40315   2.41024   2.41988   2.42041
 Alpha virt. eigenvalues --    2.42699   2.43067   2.43632   2.45013   2.45225
 Alpha virt. eigenvalues --    2.46078   2.46541   2.47301   2.47961   2.48966
 Alpha virt. eigenvalues --    2.49764   2.50334   2.50711   2.51211   2.52263
 Alpha virt. eigenvalues --    2.53512   2.54351   2.54998   2.55561   2.56207
 Alpha virt. eigenvalues --    2.56758   2.57790   2.58022   2.58954   2.59712
 Alpha virt. eigenvalues --    2.60278   2.61176   2.61283   2.61993   2.62736
 Alpha virt. eigenvalues --    2.64373   2.64604   2.65393   2.65899   2.67682
 Alpha virt. eigenvalues --    2.68022   2.69295   2.69680   2.70249   2.70621
 Alpha virt. eigenvalues --    2.71546   2.72984   2.73837   2.73971   2.74945
 Alpha virt. eigenvalues --    2.75662   2.75836   2.76319   2.76905   2.77642
 Alpha virt. eigenvalues --    2.78129   2.78845   2.79446   2.79835   2.80144
 Alpha virt. eigenvalues --    2.80842   2.81209   2.81496   2.82004   2.82796
 Alpha virt. eigenvalues --    2.83005   2.84015   2.85003   2.85174   2.86178
 Alpha virt. eigenvalues --    2.86573   2.87204   2.88100   2.88943   2.89943
 Alpha virt. eigenvalues --    2.90379   2.91501   2.92680   2.94321   2.94739
 Alpha virt. eigenvalues --    2.95304   2.95573   2.97613   2.98857   2.99746
 Alpha virt. eigenvalues --    3.00686   3.01745   3.02304   3.03111   3.03590
 Alpha virt. eigenvalues --    3.04377   3.05025   3.05437   3.06439   3.07368
 Alpha virt. eigenvalues --    3.07705   3.08522   3.09299   3.09522   3.10498
 Alpha virt. eigenvalues --    3.11015   3.12759   3.13026   3.13948   3.14877
 Alpha virt. eigenvalues --    3.15334   3.15818   3.16311   3.17013   3.17978
 Alpha virt. eigenvalues --    3.18479   3.18896   3.20682   3.20958   3.21584
 Alpha virt. eigenvalues --    3.21989   3.22979   3.23275   3.24387   3.26016
 Alpha virt. eigenvalues --    3.26374   3.27157   3.27731   3.28024   3.28290
 Alpha virt. eigenvalues --    3.29260   3.30111   3.31996   3.32909   3.33716
 Alpha virt. eigenvalues --    3.34306   3.35060   3.35486   3.36142   3.37099
 Alpha virt. eigenvalues --    3.38005   3.38683   3.39185   3.39401   3.40523
 Alpha virt. eigenvalues --    3.41515   3.42206   3.43228   3.43858   3.44707
 Alpha virt. eigenvalues --    3.44976   3.47198   3.47299   3.47748   3.48178
 Alpha virt. eigenvalues --    3.49457   3.50312   3.51381   3.51721   3.52851
 Alpha virt. eigenvalues --    3.53763   3.54557   3.55955   3.56144   3.57013
 Alpha virt. eigenvalues --    3.57793   3.59112   3.59665   3.61325   3.61702
 Alpha virt. eigenvalues --    3.62632   3.63887   3.64608   3.65023   3.66719
 Alpha virt. eigenvalues --    3.68349   3.69554   3.70694   3.71039   3.73181
 Alpha virt. eigenvalues --    3.73696   3.74364   3.75606   3.76119   3.77180
 Alpha virt. eigenvalues --    3.77898   3.78338   3.78822   3.80162   3.80316
 Alpha virt. eigenvalues --    3.81310   3.82367   3.83319   3.84380   3.85772
 Alpha virt. eigenvalues --    3.87204   3.88964   3.89261   3.90787   3.93421
 Alpha virt. eigenvalues --    3.96469   3.97529   3.97743   3.98168   3.99489
 Alpha virt. eigenvalues --    4.01424   4.04942   4.06273   4.06690   4.07389
 Alpha virt. eigenvalues --    4.07638   4.08195   4.08782   4.09275   4.10890
 Alpha virt. eigenvalues --    4.12296   4.12999   4.14896   4.16543   4.18267
 Alpha virt. eigenvalues --    4.19170   4.23737   4.24344   4.25908   4.26441
 Alpha virt. eigenvalues --    4.28347   4.29139   4.30384   4.32041   4.32679
 Alpha virt. eigenvalues --    4.35618   4.36871   4.40948   4.41740   4.43860
 Alpha virt. eigenvalues --    4.45202   4.46746   4.47478   4.48896   4.50762
 Alpha virt. eigenvalues --    4.51928   4.52170   4.54563   4.55700   4.58603
 Alpha virt. eigenvalues --    4.62040   4.64439   4.65076   4.66115   4.68029
 Alpha virt. eigenvalues --    4.69084   4.70232   4.72125   4.72893   4.79455
 Alpha virt. eigenvalues --    4.82302   4.84644   4.86841   4.87759   4.88756
 Alpha virt. eigenvalues --    4.90360   4.94076   4.97442   4.99497   5.03006
 Alpha virt. eigenvalues --    5.04624   5.10111   5.11503   5.12255   5.19019
 Alpha virt. eigenvalues --    5.19724   5.20591   5.20894   5.20897   5.21269
 Alpha virt. eigenvalues --    5.21824   5.23334   5.24687   5.25654   5.25844
 Alpha virt. eigenvalues --    5.27274   5.30009   5.30956   5.31246   5.31661
 Alpha virt. eigenvalues --    5.32091   5.34252   5.35250   5.36022   5.36749
 Alpha virt. eigenvalues --    5.41662   5.43078   5.48234   5.48818   5.49100
 Alpha virt. eigenvalues --    5.49410   5.50235   5.51206   5.52795   5.52997
 Alpha virt. eigenvalues --    5.53327   5.54655   5.57329   5.58273   5.58329
 Alpha virt. eigenvalues --    5.58672   5.59222   5.66079   5.68762   5.71699
 Alpha virt. eigenvalues --    5.72576   5.78398   5.82869   5.85991   5.93487
 Alpha virt. eigenvalues --    5.97358   5.98551   6.01791   6.10585   6.12434
 Alpha virt. eigenvalues --    6.14373   6.14560   6.16699   6.16921   6.25343
 Alpha virt. eigenvalues --    6.26391   6.28835   6.33098   6.34008   6.34276
 Alpha virt. eigenvalues --    6.35309   6.35906   6.41071   6.42041   6.42329
 Alpha virt. eigenvalues --    6.43042   6.44677   6.49157   6.49296   6.49662
 Alpha virt. eigenvalues --    6.50409   6.50856   6.52186   6.52434   6.53606
 Alpha virt. eigenvalues --    6.54327   6.54797   6.56496   6.57549   6.59171
 Alpha virt. eigenvalues --    6.66631   6.67708   6.70903   6.74279   6.83932
 Alpha virt. eigenvalues --    6.87084   6.89565   6.92263   6.94666   6.97161
 Alpha virt. eigenvalues --    6.99009   7.00435   7.04084   7.04319   7.04476
 Alpha virt. eigenvalues --    7.06757   7.12419   7.12513   7.14371   7.14789
 Alpha virt. eigenvalues --    7.17432   7.18629   7.19965   7.21229   7.22782
 Alpha virt. eigenvalues --    7.26769   7.33252   7.52631  22.47927  22.48461
 Alpha virt. eigenvalues --   22.50667  22.58478  22.63114  22.68467  22.82399
 Alpha virt. eigenvalues --   22.86097  23.02632  23.07884  23.31126  23.46616
 Alpha virt. eigenvalues --   23.79198  33.01353  43.51462  43.55855  43.56219
 Alpha virt. eigenvalues --   43.58219  43.99019  44.14205  44.15333  44.39990
          Condensed to atoms (all electrons):
               1          2          3          4          5          6
     1  C    4.878738   0.043571   0.161771  -0.181334  -0.034459   0.009978
     2  C    0.043571   5.953936  -0.129669   0.201622   0.398352  -0.018468
     3  C    0.161771  -0.129669   5.964359   0.016197  -0.009309   0.356226
     4  C   -0.181334   0.201622   0.016197   4.877681   0.007898  -0.057713
     5  H   -0.034459   0.398352  -0.009309   0.007898   0.433679  -0.004488
     6  H    0.009978  -0.018468   0.356226  -0.057713  -0.004488   0.468375
     7  C   -0.056035   0.005417   0.005029  -0.049886   0.000150  -0.000178
     8  H    0.001263  -0.002104   0.001930  -0.009835   0.000006   0.000075
     9  H   -0.017892   0.003969  -0.001592   0.009832   0.000002  -0.000018
    10  H    0.008155   0.000205   0.000557  -0.003018  -0.000003  -0.000085
    11  N    0.374821  -0.137164  -0.074320   0.326957   0.003771   0.006696
    12  O    0.002808   0.006222  -0.096344   0.569558  -0.000037   0.009966
    13  O    0.514061  -0.080066   0.018627  -0.000994  -0.003866   0.000120
    14  C   -0.016011   0.027774  -0.063024   0.010674  -0.003662  -0.007213
    15  H   -0.000127   0.000919  -0.001982   0.000130   0.000455  -0.000104
    16  C    0.011060  -0.071184   0.011124  -0.014697  -0.001158   0.005094
    17  H    0.000116  -0.002192   0.001622   0.000106   0.000019   0.001064
    18  C    0.015497   0.097396  -0.035706   0.001234  -0.001270  -0.000464
    19  H    0.000463  -0.035523  -0.023646   0.006586   0.003463  -0.000033
    20  C    0.008113  -0.016641   0.002259   0.000051  -0.001338   0.000172
    21  H   -0.008330   0.003729   0.001647  -0.000046  -0.001093  -0.000045
    22  H   -0.000062  -0.005222   0.000873  -0.000018   0.000948   0.000007
    23  H   -0.000531   0.004134  -0.000231  -0.000023   0.000062  -0.000004
    24  C   -0.002761  -0.020497   0.073614   0.013429  -0.000818   0.001824
    25  H    0.003913  -0.014973  -0.024767   0.002312  -0.000093   0.002749
    26  C   -0.000157  -0.000720  -0.012391   0.010255  -0.000040   0.001098
    27  H   -0.000047  -0.000074   0.002436   0.000392  -0.000001   0.000218
    28  H    0.000047   0.001782  -0.008027   0.001291   0.000012  -0.000912
    29  C    0.000057  -0.000053  -0.001159  -0.000315  -0.000009   0.001179
    30  C    0.000020  -0.000265  -0.000044  -0.000955   0.000000   0.000943
    31  H   -0.000001   0.000014  -0.000016   0.000045   0.000000  -0.000030
    32  H    0.000000   0.000003  -0.000010  -0.000009   0.000000   0.000026
    33  H   -0.000012   0.000040  -0.000235  -0.000263   0.000000   0.000258
    34  O   -0.000139   0.001799   0.005738  -0.001802   0.000015  -0.000038
    35  O    0.000002  -0.000035  -0.000614   0.000034   0.000000   0.000305
    36  H   -0.009225   0.002427  -0.000624  -0.000079  -0.005190   0.000012
    37  H    0.000004  -0.000011  -0.000022  -0.000793   0.000000   0.000004
    38  H   -0.000054  -0.000263   0.004538   0.001007   0.000054  -0.006795
    39  H    0.000000   0.000000   0.000004   0.000002   0.000000  -0.000016
    40  O    0.000744   0.002620  -0.051215  -0.007685  -0.000794   0.065499
    41  H   -0.000029   0.000108   0.003045   0.000047   0.000023  -0.004836
    42  O    0.000000   0.000000   0.000000   0.000000   0.000000   0.000001
    43  H    0.000000   0.000000   0.000000   0.000000   0.000000   0.000000
    44  O    0.000145   0.000090  -0.000426   0.002066   0.000000  -0.000023
    45  H   -0.000328  -0.000007  -0.001224  -0.013371   0.000001   0.000063
    46  O    0.008723  -0.008475   0.000046   0.000187   0.016919   0.000000
    47  H    0.002905  -0.001763  -0.000222   0.000021  -0.000032   0.000002
               7          8          9         10         11         12
     1  C   -0.056035   0.001263  -0.017892   0.008155   0.374821   0.002808
     2  C    0.005417  -0.002104   0.003969   0.000205  -0.137164   0.006222
     3  C    0.005029   0.001930  -0.001592   0.000557  -0.074320  -0.096344
     4  C   -0.049886  -0.009835   0.009832  -0.003018   0.326957   0.569558
     5  H    0.000150   0.000006   0.000002  -0.000003   0.003771  -0.000037
     6  H   -0.000178   0.000075  -0.000018  -0.000085   0.006696   0.009966
     7  C    4.938512   0.414099   0.399494   0.393650   0.249819   0.019320
     8  H    0.414099   0.523359  -0.020809  -0.029477  -0.032454   0.000727
     9  H    0.399494  -0.020809   0.490153  -0.014250  -0.029483   0.000624
    10  H    0.393650  -0.029477  -0.014250   0.525226  -0.039955  -0.001094
    11  N    0.249819  -0.032454  -0.029483  -0.039955   6.610886  -0.107152
    12  O    0.019320   0.000727   0.000624  -0.001094  -0.107152   8.057808
    13  O   -0.004240   0.000255   0.013775   0.000427  -0.083934  -0.000138
    14  C    0.000024  -0.000005   0.000016  -0.000018  -0.002503   0.000179
    15  H    0.000000   0.000000   0.000000   0.000000  -0.000007   0.000001
    16  C   -0.000121   0.000014  -0.000007   0.000024   0.000333  -0.000404
    17  H   -0.000001   0.000000   0.000000   0.000001  -0.000001   0.000009
    18  C    0.000359  -0.000071  -0.000042   0.000328  -0.006894   0.000014
    19  H    0.000276   0.000073  -0.000055  -0.000450   0.007198   0.000041
    20  C    0.000102   0.000004  -0.000024  -0.000010   0.001635  -0.000002
    21  H   -0.000117  -0.000004   0.000029   0.000006  -0.000537   0.000001
    22  H    0.000000   0.000000   0.000001   0.000000  -0.000002   0.000000
    23  H   -0.000001   0.000000  -0.000003   0.000001  -0.000052   0.000000
    24  C    0.001150  -0.000054   0.000059  -0.000465  -0.005548   0.001785
    25  H   -0.000925   0.000128  -0.000044   0.000284   0.007745  -0.001100
    26  C    0.000496  -0.000013   0.000000  -0.000210   0.000574  -0.016368
    27  H   -0.000002   0.000000   0.000000  -0.000003  -0.000006   0.000541
    28  H   -0.000791   0.000015  -0.000006   0.000301   0.000069   0.010830
    29  C   -0.000025   0.000000   0.000000   0.000010   0.000078   0.004381
    30  C    0.000018   0.000000   0.000000  -0.000003  -0.000072  -0.006102
    31  H    0.000000   0.000000   0.000000   0.000000   0.000001   0.000180
    32  H    0.000000   0.000000   0.000000   0.000000   0.000000   0.000027
    33  H   -0.000004   0.000000   0.000000  -0.000022   0.000093   0.005058
    34  O   -0.000002   0.000000   0.000000   0.000001  -0.000083   0.000037
    35  O    0.000000   0.000000   0.000000   0.000000   0.000000  -0.000050
    36  H   -0.000055   0.000007   0.000026   0.000000  -0.000093   0.000002
    37  H    0.000602  -0.000031  -0.000003  -0.000745   0.000055   0.000868
    38  H    0.000000   0.000000   0.000000   0.000000  -0.000007  -0.000015
    39  H    0.000000   0.000000   0.000000   0.000000   0.000000  -0.000001
    40  O   -0.000001   0.000000   0.000000   0.000000   0.000027  -0.000020
    41  H    0.000000   0.000000   0.000000   0.000000   0.000003  -0.000004
    42  O    0.000000   0.000000   0.000000   0.000000   0.000000   0.000000
    43  H    0.000000   0.000000   0.000000   0.000000   0.000000   0.000000
    44  O   -0.009743   0.000035   0.000320   0.017503   0.000545  -0.021262
    45  H    0.005279  -0.000431   0.000028  -0.004701  -0.000884   0.027907
    46  O    0.000032  -0.000001   0.000007   0.000000   0.000354   0.000000
    47  H    0.000005   0.000000  -0.000005   0.000000   0.000058   0.000000
              13         14         15         16         17         18
     1  C    0.514061  -0.016011  -0.000127   0.011060   0.000116   0.015497
     2  C   -0.080066   0.027774   0.000919  -0.071184  -0.002192   0.097396
     3  C    0.018627  -0.063024  -0.001982   0.011124   0.001622  -0.035706
     4  C   -0.000994   0.010674   0.000130  -0.014697   0.000106   0.001234
     5  H   -0.003866  -0.003662   0.000455  -0.001158   0.000019  -0.001270
     6  H    0.000120  -0.007213  -0.000104   0.005094   0.001064  -0.000464
     7  C   -0.004240   0.000024   0.000000  -0.000121  -0.000001   0.000359
     8  H    0.000255  -0.000005   0.000000   0.000014   0.000000  -0.000071
     9  H    0.013775   0.000016   0.000000  -0.000007   0.000000  -0.000042
    10  H    0.000427  -0.000018   0.000000   0.000024   0.000001   0.000328
    11  N   -0.083934  -0.002503  -0.000007   0.000333  -0.000001  -0.006894
    12  O   -0.000138   0.000179   0.000001  -0.000404   0.000009   0.000014
    13  O    8.069685   0.002252   0.000012  -0.000215   0.000000  -0.001924
    14  C    0.002252   5.070362   0.418609   0.442921  -0.033251   0.401796
    15  H    0.000012   0.418609   0.500872  -0.036370  -0.005727  -0.034362
    16  C   -0.000215   0.442921  -0.036370   5.053992   0.420524  -0.023186
    17  H    0.000000  -0.033251  -0.005727   0.420524   0.482897   0.006467
    18  C   -0.001924   0.401796  -0.034362  -0.023186   0.006467   5.170235
    19  H   -0.001135  -0.056886   0.003568  -0.004564  -0.000129   0.422676
    20  C   -0.012365  -0.037587  -0.003068   0.007386  -0.000003   0.247284
    21  H    0.013446   0.014356  -0.000034  -0.000509   0.000008  -0.062928
    22  H    0.000147  -0.001043   0.002726   0.001138  -0.000026  -0.044279
    23  H    0.000174  -0.008600   0.000197  -0.000995  -0.000008  -0.024485
    24  C    0.000203  -0.025487   0.007253   0.409594  -0.039021  -0.039774
    25  H   -0.000052  -0.006090  -0.000003  -0.041833   0.003048   0.002102
    26  C   -0.000002   0.006887   0.000018  -0.046173  -0.007795  -0.002027
    27  H    0.000000   0.000072  -0.000003  -0.016142   0.000173  -0.000095
    28  H    0.000001  -0.000599   0.000002   0.015929   0.000721   0.000515
    29  C    0.000000  -0.000177  -0.000005  -0.001017   0.000348  -0.000003
    30  C    0.000000  -0.000020   0.000000   0.001345   0.000288   0.000009
    31  H    0.000000  -0.000003   0.000000  -0.000072  -0.000003   0.000001
    32  H    0.000000   0.000000   0.000000   0.000003  -0.000003   0.000000
    33  H    0.000000   0.000002   0.000000  -0.000173  -0.000018  -0.000003
    34  O    0.000000   0.000856  -0.000042   0.014054   0.010002   0.000248
    35  O    0.000000   0.000005  -0.000001   0.000135   0.000248   0.000003
    36  H    0.028711   0.000087   0.000015  -0.000033   0.000000   0.001174
    37  H    0.000000   0.000000   0.000000   0.000001   0.000000   0.000000
    38  H    0.000000   0.000294  -0.000002  -0.000712   0.000286   0.000037
    39  H    0.000000   0.000000   0.000000  -0.000002   0.000000   0.000000
    40  O    0.000000  -0.001549  -0.000040   0.002896   0.001329  -0.000210
    41  H    0.000000   0.000040   0.000001  -0.000022  -0.000057   0.000004
    42  O    0.000000   0.000000   0.000000   0.000000   0.000000   0.000000
    43  H    0.000000   0.000000   0.000000   0.000000   0.000000   0.000000
    44  O    0.000000  -0.000018   0.000000   0.000092   0.000003   0.000020
    45  H   -0.000002   0.000064   0.000000  -0.000235  -0.000008  -0.000052
    46  O   -0.022597  -0.000046  -0.000027   0.000011   0.000000  -0.001057
    47  H    0.000578  -0.000035   0.000001   0.000002   0.000000   0.000077
              19         20         21         22         23         24
     1  C    0.000463   0.008113  -0.008330  -0.000062  -0.000531  -0.002761
     2  C   -0.035523  -0.016641   0.003729  -0.005222   0.004134  -0.020497
     3  C   -0.023646   0.002259   0.001647   0.000873  -0.000231   0.073614
     4  C    0.006586   0.000051  -0.000046  -0.000018  -0.000023   0.013429
     5  H    0.003463  -0.001338  -0.001093   0.000948   0.000062  -0.000818
     6  H   -0.000033   0.000172  -0.000045   0.000007  -0.000004   0.001824
     7  C    0.000276   0.000102  -0.000117   0.000000  -0.000001   0.001150
     8  H    0.000073   0.000004  -0.000004   0.000000   0.000000  -0.000054
     9  H   -0.000055  -0.000024   0.000029   0.000001  -0.000003   0.000059
    10  H   -0.000450  -0.000010   0.000006   0.000000   0.000001  -0.000465
    11  N    0.007198   0.001635  -0.000537  -0.000002  -0.000052  -0.005548
    12  O    0.000041  -0.000002   0.000001   0.000000   0.000000   0.001785
    13  O   -0.001135  -0.012365   0.013446   0.000147   0.000174   0.000203
    14  C   -0.056886  -0.037587   0.014356  -0.001043  -0.008600  -0.025487
    15  H    0.003568  -0.003068  -0.000034   0.002726   0.000197   0.007253
    16  C   -0.004564   0.007386  -0.000509   0.001138  -0.000995   0.409594
    17  H   -0.000129  -0.000003   0.000008  -0.000026  -0.000008  -0.039021
    18  C    0.422676   0.247284  -0.062928  -0.044279  -0.024485  -0.039774
    19  H    0.541694  -0.018905  -0.006924   0.005173  -0.002270   0.003148
    20  C   -0.018905   4.952971   0.424436   0.416932   0.395331  -0.001202
    21  H   -0.006924   0.424436   0.525171  -0.020853  -0.022409   0.000717
    22  H    0.005173   0.416932  -0.020853   0.522992  -0.018622  -0.000118
    23  H   -0.002270   0.395331  -0.022409  -0.018622   0.530370   0.000026
    24  C    0.003148  -0.001202   0.000717  -0.000118   0.000026   5.173865
    25  H    0.006367   0.000396   0.000010  -0.000011  -0.000051   0.405599
    26  C    0.000901  -0.000273   0.000001   0.000000   0.000009   0.284560
    27  H   -0.000040   0.000005   0.000000   0.000000  -0.000001  -0.015698
    28  H   -0.000135  -0.000002  -0.000001   0.000000   0.000000  -0.031338
    29  C   -0.000006   0.000001   0.000000   0.000000   0.000000   0.011983
    30  C    0.000000   0.000000   0.000000   0.000000   0.000000  -0.007601
    31  H    0.000000   0.000000   0.000000   0.000000   0.000000   0.003123
    32  H    0.000000   0.000000   0.000000   0.000000   0.000000  -0.000235
    33  H    0.000000   0.000000   0.000000   0.000000   0.000000  -0.000599
    34  O   -0.000008   0.000000   0.000000   0.000000   0.000000  -0.082971
    35  O    0.000000   0.000000   0.000000   0.000000   0.000000  -0.000734
    36  H   -0.000043  -0.002200  -0.003255  -0.000064   0.000041   0.000015
    37  H    0.000001   0.000000   0.000000   0.000000   0.000000  -0.000037
    38  H    0.000001  -0.000001   0.000000   0.000000   0.000000  -0.001246
    39  H    0.000000   0.000000   0.000000   0.000000   0.000000   0.000011
    40  O   -0.000009   0.000007   0.000000  -0.000001   0.000000   0.003588
    41  H    0.000000   0.000000   0.000000   0.000000   0.000000  -0.000009
    42  O    0.000000   0.000000   0.000000   0.000000   0.000000   0.000000
    43  H    0.000000   0.000000   0.000000   0.000000   0.000000   0.000001
    44  O   -0.000042   0.000000   0.000000   0.000000   0.000000   0.000743
    45  H    0.000057  -0.000001   0.000000   0.000000   0.000000   0.000630
    46  O    0.000092  -0.003194   0.005787   0.000845   0.000222  -0.000033
    47  H    0.000005   0.000400  -0.000499  -0.000018  -0.000013  -0.000002
              25         26         27         28         29         30
     1  C    0.003913  -0.000157  -0.000047   0.000047   0.000057   0.000020
     2  C   -0.014973  -0.000720  -0.000074   0.001782  -0.000053  -0.000265
     3  C   -0.024767  -0.012391   0.002436  -0.008027  -0.001159  -0.000044
     4  C    0.002312   0.010255   0.000392   0.001291  -0.000315  -0.000955
     5  H   -0.000093  -0.000040  -0.000001   0.000012  -0.000009   0.000000
     6  H    0.002749   0.001098   0.000218  -0.000912   0.001179   0.000943
     7  C   -0.000925   0.000496  -0.000002  -0.000791  -0.000025   0.000018
     8  H    0.000128  -0.000013   0.000000   0.000015   0.000000   0.000000
     9  H   -0.000044   0.000000   0.000000  -0.000006   0.000000   0.000000
    10  H    0.000284  -0.000210  -0.000003   0.000301   0.000010  -0.000003
    11  N    0.007745   0.000574  -0.000006   0.000069   0.000078  -0.000072
    12  O   -0.001100  -0.016368   0.000541   0.010830   0.004381  -0.006102
    13  O   -0.000052  -0.000002   0.000000   0.000001   0.000000   0.000000
    14  C   -0.006090   0.006887   0.000072  -0.000599  -0.000177  -0.000020
    15  H   -0.000003   0.000018  -0.000003   0.000002  -0.000005   0.000000
    16  C   -0.041833  -0.046173  -0.016142   0.015929  -0.001017   0.001345
    17  H    0.003048  -0.007795   0.000173   0.000721   0.000348   0.000288
    18  C    0.002102  -0.002027  -0.000095   0.000515  -0.000003   0.000009
    19  H    0.006367   0.000901  -0.000040  -0.000135  -0.000006   0.000000
    20  C    0.000396  -0.000273   0.000005  -0.000002   0.000001   0.000000
    21  H    0.000010   0.000001   0.000000  -0.000001   0.000000   0.000000
    22  H   -0.000011   0.000000   0.000000   0.000000   0.000000   0.000000
    23  H   -0.000051   0.000009  -0.000001   0.000000   0.000000   0.000000
    24  C    0.405599   0.284560  -0.015698  -0.031338   0.011983  -0.007601
    25  H    0.510061  -0.025321   0.002352  -0.004216   0.000400   0.000062
    26  C   -0.025321   4.913307   0.415097   0.365660  -0.054846   0.018043
    27  H    0.002352   0.415097   0.527291  -0.036884  -0.002122  -0.000972
    28  H   -0.004216   0.365660  -0.036884   0.585231  -0.008986   0.001426
    29  C    0.000400  -0.054846  -0.002122  -0.008986   4.518680   0.298720
    30  C    0.000062   0.018043  -0.000972   0.001426   0.298720   5.108986
    31  H   -0.000027  -0.000264  -0.001788  -0.004031  -0.030056   0.391671
    32  H   -0.000002   0.001515   0.000063  -0.000026  -0.018603   0.374920
    33  H    0.000008  -0.009854   0.000892  -0.000504  -0.013882   0.378272
    34  O    0.003568   0.211207  -0.034076  -0.026659   0.367231  -0.073748
    35  O    0.000007   0.003089   0.000018   0.000417   0.479304  -0.054491
    36  H    0.000003   0.000001   0.000000   0.000000   0.000000   0.000000
    37  H   -0.000099   0.000882   0.000006  -0.001747  -0.000028   0.000114
    38  H    0.000008   0.000478   0.000027   0.000036  -0.009084   0.000676
    39  H    0.000000  -0.000124   0.000005   0.000007  -0.008699   0.006097
    40  O    0.000035  -0.002632  -0.000030   0.000075   0.003957  -0.000978
    41  H   -0.000002  -0.000045   0.000000   0.000005   0.000420  -0.000076
    42  O    0.000000   0.000039  -0.000001  -0.000001  -0.000385  -0.007930
    43  H    0.000000   0.000001   0.000000   0.000001  -0.000101   0.001563
    44  O    0.003385  -0.015900  -0.000045   0.023033  -0.000023  -0.001031
    45  H   -0.001928   0.006298  -0.000003  -0.011828  -0.000529   0.001000
    46  O   -0.000002   0.000000   0.000000   0.000000   0.000000   0.000000
    47  H    0.000000   0.000000   0.000000   0.000000   0.000000   0.000000
              31         32         33         34         35         36
     1  C   -0.000001   0.000000  -0.000012  -0.000139   0.000002  -0.009225
     2  C    0.000014   0.000003   0.000040   0.001799  -0.000035   0.002427
     3  C   -0.000016  -0.000010  -0.000235   0.005738  -0.000614  -0.000624
     4  C    0.000045  -0.000009  -0.000263  -0.001802   0.000034  -0.000079
     5  H    0.000000   0.000000   0.000000   0.000015   0.000000  -0.005190
     6  H   -0.000030   0.000026   0.000258  -0.000038   0.000305   0.000012
     7  C    0.000000   0.000000  -0.000004  -0.000002   0.000000  -0.000055
     8  H    0.000000   0.000000   0.000000   0.000000   0.000000   0.000007
     9  H    0.000000   0.000000   0.000000   0.000000   0.000000   0.000026
    10  H    0.000000   0.000000  -0.000022   0.000001   0.000000   0.000000
    11  N    0.000001   0.000000   0.000093  -0.000083   0.000000  -0.000093
    12  O    0.000180   0.000027   0.005058   0.000037  -0.000050   0.000002
    13  O    0.000000   0.000000   0.000000   0.000000   0.000000   0.028711
    14  C   -0.000003   0.000000   0.000002   0.000856   0.000005   0.000087
    15  H    0.000000   0.000000   0.000000  -0.000042  -0.000001   0.000015
    16  C   -0.000072   0.000003  -0.000173   0.014054   0.000135  -0.000033
    17  H   -0.000003  -0.000003  -0.000018   0.010002   0.000248   0.000000
    18  C    0.000001   0.000000  -0.000003   0.000248   0.000003   0.001174
    19  H    0.000000   0.000000   0.000000  -0.000008   0.000000  -0.000043
    20  C    0.000000   0.000000   0.000000   0.000000   0.000000  -0.002200
    21  H    0.000000   0.000000   0.000000   0.000000   0.000000  -0.003255
    22  H    0.000000   0.000000   0.000000   0.000000   0.000000  -0.000064
    23  H    0.000000   0.000000   0.000000   0.000000   0.000000   0.000041
    24  C    0.003123  -0.000235  -0.000599  -0.082971  -0.000734   0.000015
    25  H   -0.000027  -0.000002   0.000008   0.003568   0.000007   0.000003
    26  C   -0.000264   0.001515  -0.009854   0.211207   0.003089   0.000001
    27  H   -0.001788   0.000063   0.000892  -0.034076   0.000018   0.000000
    28  H   -0.004031  -0.000026  -0.000504  -0.026659   0.000417   0.000000
    29  C   -0.030056  -0.018603  -0.013882   0.367231   0.479304   0.000000
    30  C    0.391671   0.374920   0.378272  -0.073748  -0.054491   0.000000
    31  H    0.497597  -0.010893  -0.018507   0.002660   0.002209   0.000000
    32  H   -0.010893   0.475069  -0.007282   0.002880  -0.002027   0.000000
    33  H   -0.018507  -0.007282   0.483823   0.002808   0.000233   0.000000
    34  O    0.002660   0.002880   0.002808   7.950795  -0.098225   0.000000
    35  O    0.002209  -0.002027   0.000233  -0.098225   8.146689   0.000000
    36  H    0.000000   0.000000   0.000000   0.000000   0.000000   0.368885
    37  H   -0.000023   0.000003   0.000014  -0.000006   0.000000   0.000000
    38  H   -0.000048   0.000018  -0.000101   0.001049   0.028996   0.000000
    39  H   -0.000256  -0.006908   0.000052   0.000112   0.027003   0.000000
    40  O   -0.000004   0.000013   0.000096  -0.001439  -0.014769   0.000000
    41  H    0.000000   0.000001   0.000000   0.000066   0.000666   0.000000
    42  O    0.000540   0.022394  -0.000568  -0.000002  -0.018179   0.000000
    43  H    0.000013  -0.001671  -0.000088   0.000009   0.001478   0.000000
    44  O    0.000429   0.000087   0.002740   0.000095   0.000000   0.000000
    45  H   -0.000103   0.000023  -0.000054  -0.000069   0.000001   0.000000
    46  O    0.000000   0.000000   0.000000   0.000000   0.000000   0.303286
    47  H    0.000000   0.000000   0.000000   0.000000   0.000000  -0.020448
              37         38         39         40         41         42
     1  C    0.000004  -0.000054   0.000000   0.000744  -0.000029   0.000000
     2  C   -0.000011  -0.000263   0.000000   0.002620   0.000108   0.000000
     3  C   -0.000022   0.004538   0.000004  -0.051215   0.003045   0.000000
     4  C   -0.000793   0.001007   0.000002  -0.007685   0.000047   0.000000
     5  H    0.000000   0.000054   0.000000  -0.000794   0.000023   0.000000
     6  H    0.000004  -0.006795  -0.000016   0.065499  -0.004836   0.000001
     7  C    0.000602   0.000000   0.000000  -0.000001   0.000000   0.000000
     8  H   -0.000031   0.000000   0.000000   0.000000   0.000000   0.000000
     9  H   -0.000003   0.000000   0.000000   0.000000   0.000000   0.000000
    10  H   -0.000745   0.000000   0.000000   0.000000   0.000000   0.000000
    11  N    0.000055  -0.000007   0.000000   0.000027   0.000003   0.000000
    12  O    0.000868  -0.000015  -0.000001  -0.000020  -0.000004   0.000000
    13  O    0.000000   0.000000   0.000000   0.000000   0.000000   0.000000
    14  C    0.000000   0.000294   0.000000  -0.001549   0.000040   0.000000
    15  H    0.000000  -0.000002   0.000000  -0.000040   0.000001   0.000000
    16  C    0.000001  -0.000712  -0.000002   0.002896  -0.000022   0.000000
    17  H    0.000000   0.000286   0.000000   0.001329  -0.000057   0.000000
    18  C    0.000000   0.000037   0.000000  -0.000210   0.000004   0.000000
    19  H    0.000001   0.000001   0.000000  -0.000009   0.000000   0.000000
[...]
 00401,0.00004115,0.00003341,0.00019266,-0.00000117,-0.00011743,-0.0000
 3786,-0.00001002,0.00003416,0.23133965,0.56840275,0.00125276,0.0015173
 3,-0.00002503,0.00054755,-0.00022525,-0.00008516,-0.00110899,-0.000913
 48,0.00049755,0.00704642,0.00264779,-0.00160955,-0.00004408,-0.0000440
 6,0.00004405,-0.00006565,0.00003345,0.00002452,-0.00032154,-0.00000664
 ,0.00007644,0.00013196,0.00008380,0.00013633,-0.00013912,-0.00015024,-
 0.00015442,-0.00003836,-0.00008193,-0.00072278,-0.00258591,-0.00081538
 ,-0.00015560,-0.00711140,-0.00967405,-0.00349493,-0.00093947,-0.000314
 28,-0.00007916,-0.00054233,0.00006606,0.00012102,0.00000503,-0.0000177
 2,-0.00006959,0.00029643,0.00036472,0.00013573,0.00001273,-0.00002251,
 -0.00006547,0.00030896,-0.00034724,0.00030018,-0.00001360,-0.00001384,
 -0.00012994,-0.00008649,0.00003998,0.00006337,0.00002981,-0.00001735,-
 0.00002821,0.00000176,-0.00000559,-0.00000408,-0.00004354,-0.00003271,
 0.00001405,0.00000964,-0.00050123,0.00003746,-0.00018080,-0.00000432,-
 0.00017546,-0.00003689,-0.00029610,0.00002031,0.00013948,-0.00019106,0
 .00010203,-0.00000823,0.00008261,-0.00038252,0.00003048,0.00005456,-0.
 00008120,-0.00002666,0.00003998,-0.00012923,0.00005428,-0.00008559,0.0
 0003436,0.00001474,-0.00001512,0.00003314,-0.00006224,0.00001236,-0.00
 003262,-0.00000495,0.00018399,0.00017075,0.00001637,0.00002060,0.00006
 265,0.00012772,0.00015521,0.00006660,0.04628105,0.09323832,-0.08037343
 ,-0.00004704,0.00002635,-0.00004302,-0.00003145,0.00001863,-0.00001804
 ,0.00006382,-0.00012400,0.00002819,-0.00000889,0.00004249,-0.00000326,
 0.00004997,-0.00003136,0.00002369,-0.00002744,0.00002055,0.00000426,-0
 .00570422,0.07835719,0.46254508,-0.00119342,-0.00156830,0.00012328,-0.
 00046665,0.00032616,-0.00000259,0.00058506,0.00069242,-0.00049370,-0.0
 0399751,-0.00498192,-0.00091811,-0.00000833,0.00004926,-0.00001795,0.0
 0010551,-0.00000431,0.00000645,0.00013531,-0.00108109,-0.00110819,0.00
 003357,0.00014007,0.00011164,0.00023351,0.00032495,0.00039564,-0.00106
 187,0.00089202,0.00067416,0.00062573,0.00062998,0.00070454,-0.00056728
 ,0.00417682,0.00255625,0.00075499,0.00042612,0.00006277,0.00032950,-0.
 00004393,-0.00008209,-0.00002028,0.00001611,0.00003350,-0.00044564,-0.
 00019051,-0.00011182,0.00001646,0.00006779,0.00003048,-0.00020737,0.00
 013908,-0.00018876,0.00000415,0.00000743,0.00008979,0.00004173,-0.0000
 0172,-0.00001939,-0.00003236,-0.00000149,0.00001077,0.00000278,0.00001
 855,0.00000274,0.00001438,0.00000858,-0.00001030,0.00043812,0.00003705
 ,0.00003383,-0.00009467,-0.00003677,0.00019317,0.00020529,0.00050606,-
 0.00049615,-0.00011795,-0.00003478,0.00004332,0.00007125,0.00106669,-0
 .00001015,0.00041711,0.00079367,0.00016348,-0.00004861,-0.00018943,-0.
 00016038,-0.00011005,0.00008352,-0.00008249,0.00001792,-0.00010601,0.0
 0002567,-0.00024966,0.00026010,0.00027566,-0.00030239,-0.00053245,0.00
 006746,-0.00009302,-0.00045619,-0.00021860,-0.00011139,-0.00016445,-0.
 00008755,-0.00307942,-0.01039391,-0.01646615,0.00011918,0.00008484,0.0
 0006652,-0.00005302,0.00006910,0.00005189,-0.00013594,0.00000576,-0.00
 003846,0.00001834,0.00000144,0.00000819,0.00008044,-0.00010712,-0.0000
 6786,-0.00001739,0.00003928,0.00002965,-0.02076471,-0.04163234,-0.0371
 5386,0.02885894,-0.00239806,-0.00213464,-0.00009896,-0.00077112,-0.000
 25460,0.00044633,0.00125750,0.00136791,-0.00111169,-0.01495813,-0.0080
 9243,0.00137945,0.00010262,0.00003422,-0.00010206,0.00014624,-0.000077
 02,-0.00004379,-0.00045726,0.00186570,0.00043003,0.00004434,-0.0002121
 0,0.00010187,0.00000838,-0.00021814,-0.00008525,0.00048585,-0.00007712
 ,-0.00019847,0.00574530,0.00056319,-0.00005552,0.00901948,0.00542506,0
 .00297902,0.00207660,0.00026683,0.00028065,0.00108599,-0.00015393,-0.0
 0018494,0.00002131,0.00005280,0.00012375,-0.00049728,-0.00061693,-0.00
 001816,-0.00002531,0.00005797,0.00008775,-0.00057345,0.00064179,-0.000
 69066,0.00000061,0.00007648,0.00018702,0.00015590,-0.00006740,-0.00014
 516,-0.00003689,0.00003429,0.00005847,0.00000794,0.00002308,0.00000979
 ,0.00009114,0.00006370,-0.00002252,0.00003560,0.00070224,-0.00032817,-
 0.00007175,0.00004692,0.00038704,0.00026433,-0.00099018,0.00015442,-0.
 00011051,0.00036625,-0.00019523,0.00129669,-0.00139573,0.00099668,0.00
 131240,0.00003659,-0.00056330,-0.00018246,-0.00024269,0.00009610,-0.00
 001430,0.00008438,-0.00001161,-0.00005587,0.00005828,-0.00003470,0.000
 23718,0.00014360,-0.00003421,-0.00109890,0.00031548,0.00029116,-0.0004
 9360,0.00019290,0.00033113,-0.00023521,-0.00025668,-0.00016528,-0.0059
 6424,-0.02174948,-0.03656763,0.00005880,-0.00009115,-0.00003066,0.0001
 5027,0.00001883,-0.00007325,-0.00008275,0.00021579,0.00007636,0.000005
 86,-0.00004177,-0.00002393,-0.00012032,-0.00004779,0.00005700,0.000026
 14,0.00002560,-0.00001399,-0.04621560,-0.14775835,-0.16297675,0.050559
 59,0.17163859,-0.00153252,-0.00193736,0.00002257,-0.00075405,0.0002387
 6,0.00020028,0.00179073,0.00139903,-0.00074950,-0.01135983,-0.00400305
 ,0.00198124,0.00010059,0.00005692,-0.00006830,0.00010214,-0.00004862,-
 0.00003076,-0.00001569,0.00082095,0.00028114,-0.00014228,-0.00016576,-
 0.00023820,0.00009264,0.00001419,-0.00003454,0.00017010,-0.00003336,0.
 00039688,0.00433146,0.00068493,0.00009319,0.00791473,0.00527974,-0.001
 40942,0.00131479,0.00037102,0.00013079,0.00075707,-0.00010722,-0.00015
 013,-0.00001895,0.00000862,0.00008549,-0.00044104,-0.00054330,-0.00017
 220,-0.00001361,0.00001217,0.00007381,-0.00040191,0.00050378,-0.000502
 72,0.00002764,0.00002566,0.00015891,0.00010335,-0.00005473,-0.00006177
 ,-0.00003781,0.00002377,0.00003009,-0.00000707,0.00000460,0.00000220,0
 .00003986,0.00003528,-0.00001858,0.00017795,0.00062923,0.00005701,0.00
 017110,0.00005380,0.00015862,0.00011292,0.00075755,-0.00058254,-0.0001
 8415,0.00002442,0.00000257,-0.00031629,0.00095334,0.00064380,-0.000114
 21,0.00020026,0.00029163,0.00003608,-0.00009590,-0.00001465,-0.0001082
 1,0.00010124,-0.00009797,-0.00000225,-0.00003812,-0.00002674,0.0000537
 7,0.00007961,0.00023972,0.00018758,-0.00060360,-0.00018953,0.00003764,
 -0.00022577,-0.00022276,-0.00014870,-0.00018132,-0.00008769,0.00499691
 ,0.01397746,0.00972598,0.00008839,0.00001490,0.00007522,-0.00000738,0.
 00000723,0.00003928,-0.00010845,0.00011496,-0.00004618,0.00001244,-0.0
 0003889,0.00000353,-0.00000478,-0.00001169,-0.00004443,0.00001829,-0.0
 0000201,0.00000707,-0.05893725,-0.21360192,-0.37663940,0.05191659,0.19
 518565,0.36663232,0.00419486,0.00081328,0.00077100,-0.00130940,0.00132
 948,-0.00042354,0.00074504,-0.00065485,0.00014077,0.00082581,0.0004249
 0,0.00003423,0.00074230,-0.00070411,0.00045969,0.00005944,-0.00002179,
 -0.00006573,-0.00023348,0.00041151,-0.00002638,0.00000613,-0.00008025,
 0.00003752,0.00002345,0.00009352,0.00000661,-0.00002589,-0.00007946,0.
 00000831,-0.00118079,-0.00096292,0.00015589,-0.00072702,-0.00066665,0.
 00003408,-0.00225153,-0.00527281,-0.00327263,0.00051925,-0.00017625,-0
 .00007732,-0.00001341,0.00002665,0.00009592,-0.00042774,-0.00036957,-0
 .00024622,0.00000288,0.00000788,0.00008456,-0.00046040,0.00006184,0.00
 022756,0.00002055,0.00002880,0.00003732,0.00032268,0.00005048,-0.00038
 908,-0.00024773,0.00003785,0.00009966,-0.00004834,-0.00011357,0.000160
 39,0.00000183,0.00000802,-0.00016020,0.00005590,0.00045944,-0.00041123
 ,-0.00001253,-0.00000712,0.00011661,0.00014607,-0.00007523,-0.00008304
 ,-0.00009114,0.00002479,0.00000161,0.00000950,0.00003121,0.00004621,0.
 00040036,0.00005967,-0.00015350,-0.00002858,-0.00004223,0.00002043,0.0
 0000958,0.00000525,0.00000026,-0.00000317,0.00000115,0.00000292,0.0000
 1966,0.00001724,-0.00000384,-0.00035787,-0.00004321,0.00009355,-0.0002
 1640,0.00003596,0.00006288,-0.03726050,-0.11155641,-0.04226209,0.00000
 472,0.00002918,0.00001511,0.00008592,-0.00000035,0.00004871,0.00008180
 ,-0.00000127,-0.00002891,-0.00020910,0.00011215,-0.00007466,0.00009776
 ,-0.00005470,0.00000404,-0.00008281,0.00000091,0.00002654,0.00002802,0
 .00000136,-0.00001235,-0.00005899,-0.00017359,-0.00011809,0.00008349,0
 .00021327,0.00013323,0.05433596,0.01011688,-0.00263020,0.00087144,-0.0
 0118596,0.00067913,-0.00040547,0.00038004,0.00046564,0.00033567,0.0023
 6936,-0.00097166,0.00016376,-0.00029441,-0.00029100,-0.00016584,-0.000
 03136,-0.00006797,-0.00011894,-0.00015836,0.00047416,-0.00007898,0.000
 02241,-0.00007139,0.00004241,0.00004251,0.00018741,0.00004898,-0.00005
 627,-0.00006186,0.00000601,-0.00420553,-0.00064255,0.00015676,-0.00136
 342,-0.00039388,0.00000730,-0.01118076,-0.00602386,-0.00686210,0.00047
 507,-0.00015432,0.00001565,-0.00001532,0.00007065,-0.00000437,-0.00047
 453,-0.00038691,-0.00014375,-0.00001994,0.00000674,0.00005936,-0.00049
 202,0.00024571,-0.00007523,0.00006496,0.00006466,0.00013336,0.00005072
 ,-0.00024371,-0.00014809,-0.00006836,-0.00024519,-0.00015566,-0.000044
 47,0.00019430,-0.00005090,0.00004957,0.00006723,0.00001258,0.00004103,
 0.00046625,-0.00047228,-0.00000932,0.00001319,0.00015087,0.00011286,-0
 .00013870,-0.00010356,-0.00005994,0.00002912,0.00000255,0.00002046,0.0
 0003929,0.00003572,0.00032238,-0.00010857,-0.00021441,-0.00002561,-0.0
 0000070,0.00002201,0.00001333,0.00000217,0.00000081,-0.00000431,0.0000
 0039,0.00000051,0.00002458,0.00001369,-0.00000910,-0.00030888,0.000041
 62,0.00013631,-0.00011914,0.00016608,0.00014439,-0.09964736,-0.4019452
 9,-0.11407588,0.00002923,0.00001090,0.00001205,-0.00001225,-0.00008523
 ,-0.00004955,0.00004240,-0.00001729,-0.00002808,0.00005848,0.00020171,
 0.00010552,-0.00006684,-0.00005666,-0.00002184,-0.00003835,0.00003123,
 0.00002914,0.00000785,-0.00001634,-0.00001087,-0.00013109,-0.00011029,
 -0.00011738,0.00012709,0.00017573,0.00013055,0.10418851,0.46667334,0.0
 0512272,-0.00023167,0.00038376,-0.00078065,0.00082518,0.00003847,0.000
 09320,-0.00037256,0.00018112,0.00105574,0.00004375,-0.00021331,0.00056
 491,-0.00017129,-0.00033302,-0.00002783,-0.00008303,-0.00009099,-0.000
 12901,0.00037748,-0.00010372,-0.00002725,-0.00010051,0.00004513,0.0000
 2519,0.00011197,-0.00001047,-0.00000930,-0.00006232,0.00002101,-0.0021
 2826,-0.00073868,-0.00016209,-0.00085172,-0.00052078,0.00013873,-0.005
 70800,-0.00565172,-0.00056645,-0.00028088,-0.00011122,0.00012817,0.000
 04687,0.00000085,0.00000759,-0.00007965,-0.00009143,-0.00011019,-0.000
 04945,0.00000594,0.00001445,0.00070952,0.00038175,-0.00021363,-0.00011
 200,-0.00005315,0.00009226,0.00014142,-0.00076107,-0.00032700,-0.00043
 994,0.00074302,0.00041711,0.00017107,-0.00049321,0.00031134,-0.0002994
 0,-0.00005158,-0.00048246,-0.00004317,0.00011331,-0.00007553,-0.000013
 27,0.00001950,0.00005073,0.00019596,-0.00009973,-0.00018129,-0.0000889
 7,0.00002382,0.00001536,0.00000704,0.00001853,0.00003388,0.00042832,-0
 .00004783,-0.00028560,-0.00003997,-0.00001272,0.00001690,0.00001192,0.
 00000439,0.00001071,-0.00000803,0.00000009,-0.00000291,0.00002234,0.00
 000649,-0.00001376,-0.00039610,-0.00000595,0.00019138,-0.00016624,0.00
 014609,0.00018831,-0.05213845,-0.16751717,-0.10401314,0.00001881,0.000
 02730,-0.00000701,0.00000002,-0.00005485,-0.00005384,0.00005306,-0.000
 00581,-0.00004281,0.00003035,0.00010965,0.00014583,-0.00007280,-0.0000
 0609,-0.00004394,-0.00004183,0.00001233,0.00004223,0.00000429,-0.00000
 673,-0.00001319,-0.00008122,-0.00013489,-0.00004764,0.00007527,0.00015
 716,0.00007311,0.13875933,0.06345941,0.60913716,-0.00028987,-0.0000242
 6,-0.00021382,-0.00008775,-0.00001480,0.00012514,-0.00013718,-0.000045
 99,-0.00002275,-0.00012582,-0.00005009,-0.00008419,0.00017752,0.000060
 10,-0.00021109,-0.00002523,-0.00000137,-0.00002096,0.00004799,-0.00006
 701,-0.00002271,-0.00000731,-0.00000364,-0.00000517,-0.00000128,-0.000
 00837,-0.00000087,0.00000203,0.00001110,0.00000708,0.00008446,0.000105
 07,0.00000261,0.00006177,0.00006739,0.00004294,0.00008354,-0.00029734,
 0.00044208,-0.00006390,0.00003314,0.00003101,0.00000454,-0.00000709,-0
 .00002010,0.00007279,0.00004843,0.00004978,-0.00000121,-0.00000118,-0.
 00001850,0.00012393,-0.00000236,0.00003149,-0.00000522,-0.00000667,0.0
 0000603,0.00007781,0.00003666,0.00006817,-0.00009737,-0.00005043,-0.00
 014101,-0.00002176,-0.00001991,-0.00001538,-0.00001886,-0.00001050,0.0
 0000253,-0.00003071,-0.00008136,0.00005785,0.00000189,0.00000303,-0.00
 001980,-0.00001134,0.00000204,-0.00000407,0.00001422,-0.00000418,0.000
 00240,-0.00000391,-0.00000510,-0.00000851,-0.00005476,-0.00003727,-0.0
 0000995,0.00000213,0.00001338,-0.00000119,-0.00000061,-0.00000126,0.00
 000109,-0.00000109,-0.00000043,-0.00000209,-0.00000279,-0.00000434,-0.
 00000284,0.00004661,0.00001697,0.00000693,0.00004735,0.00002205,0.0000
 2151,-0.00172314,0.00330089,-0.01253843,0.00000051,-0.00000985,-0.0000
 0632,-0.00003510,-0.00001471,-0.00003290,-0.00002102,-0.00000034,0.000
 00029,0.00009113,-0.00001632,0.00007586,-0.00006409,0.00002360,-0.0000
 1892,0.00002562,0.00000202,0.00000073,-0.00001201,-0.00000219,0.000001
 32,0.00000737,0.00004147,0.00003030,-0.00001385,-0.00004632,-0.0000315
 9,-0.01757610,0.00145409,-0.08352395,0.01946007,-0.00024395,0.00006003
 ,0.00006299,0.00015910,-0.00002111,0.00000298,-0.00004040,-0.00000385,
 -0.00003385,-0.00021777,0.00004061,-0.00004953,-0.00013702,-0.00001986
 ,0.00001615,-0.00000590,0.00001388,0.00002298,-0.00000679,0.00001755,-
 0.00000906,-0.00002142,-0.00001600,0.00000089,0.00000007,-0.00000320,-
 0.00002325,0.00000711,-0.00000460,0.00001153,0.00013326,-0.00001341,-0
 .00003663,0.00011211,0.00004415,0.00001343,-0.00023357,-0.00148402,0.0
 0040652,-0.00001517,0.00000051,-0.00000658,-0.00000727,-0.00000284,-0.
 00000123,0.00003193,0.00003682,0.00002734,0.00000589,-0.00000065,-0.00
 000571,-0.00001336,0.00000007,0.00004262,0.00001756,0.00000313,-0.0000
 0691,0.00006554,-0.00011077,0.00003439,-0.00002557,-0.00007579,0.00011
 527,-0.00004539,0.00012022,-0.00008514,0.00000644,0.00006032,0.0000341
 7,0.00000192,-0.00003807,0.00002866,0.00000267,-0.00000375,-0.00001328
 ,-0.00003475,0.00002741,0.00002647,0.00001320,-0.00000441,-0.00000177,
 -0.00000138,-0.00000509,-0.00000614,-0.00007048,0.00003004,0.00005129,
 0.00000538,-0.00000219,-0.00000477,-0.00000332,-0.00000038,-0.00000003
 ,0.00000050,0.00000064,-0.00000054,-0.00000366,-0.00000215,0.00000161,
 0.00006851,-0.00001093,-0.00003485,0.00002488,-0.00004366,-0.00003552,
 -0.00771017,0.00561515,-0.04325042,-0.00000932,0.,-0.00000471,0.000007
 17,0.00002291,0.00001397,-0.00000885,0.00000586,0.00000677,-0.00002089
 ,-0.00005488,-0.00003176,0.00002423,0.00002155,0.00000841,0.00000805,-
 0.00001125,-0.00000723,-0.00000172,0.00000627,0.00000267,0.00003011,0.
 00000838,0.00001923,-0.00002283,-0.00001608,-0.00001701,0.01258207,-0.
 05565679,0.11079799,-0.00440674,0.05147019,-0.00131987,-0.00006717,-0.
 00015812,0.00028808,-0.00007258,0.00007632,-0.00011946,0.00003066,-0.0
 0006241,-0.00029475,0.00005077,-0.00001249,-0.00020672,0.00000294,-0.0
 0012634,0.00000624,0.00001167,0.00003011,0.00003499,-0.00008253,0.0000
 2469,-0.00000183,0.00002233,-0.00001017,-0.00000555,-0.00002318,-0.000
 00328,0.00000189,0.00001680,-0.00000284,0.00051765,0.00017212,-0.00003
 479,0.00018548,0.00009796,-0.00001105,0.00104168,0.00036498,0.00076514
 ,-0.00009968,0.00002274,-0.00000609,-0.00000085,-0.00000746,-0.0000112
 8,0.00009179,0.00009364,0.00004052,0.00000362,-0.00000435,-0.00001252,
 0.00009674,-0.00003219,-0.00004071,-0.00001034,-0.00000496,-0.00002031
 ,0.00006339,-0.00008916,0.00000559,-0.00007982,0.00013078,-0.00008708,
 0.00002221,-0.00005670,0.00002061,-0.00005817,-0.00000066,-0.00003466,
 -0.00000689,-0.00010016,0.00010369,0.00000428,-0.00000042,-0.00002662,
 -0.00002486,0.00001491,0.00002780,0.00001370,-0.00000642,-0.00000399,-
 0.00000653,-0.00000378,-0.00000746,-0.00010020,0.00000857,0.00006057,0
 .00000947,0.00000186,0.00000015,-0.00000145,-0.00000100,-0.00000544,0.
 00000199,0.00000019,0.00000156,-0.00000663,0.00000078,0.00000191,0.000
 08574,0.00000776,-0.00003384,0.00004092,-0.00002855,-0.00004057,-0.002
 26706,0.01041025,-0.02006149,-0.00000847,-0.00001495,0.00000490,-0.000
 00377,0.00000757,0.00000673,-0.00001350,0.00000196,0.00000998,0.000008
 72,-0.00002210,-0.00002257,0.00000833,0.00000219,0.00001035,0.00001113
 ,-0.00000375,-0.00000996,-0.00000175,0.00000172,0.00000342,0.00002442,
 0.00004107,0.00000797,-0.00001816,-0.00004093,-0.00001840,-0.09387609,
 0.05722916,-0.50429077,0.09596994,-0.06808240,0.52395321\\-0.00000698,
 -0.00000190,0.00000081,0.00000346,0.00000151,0.00000275,-0.00000398,0.
 00000208,0.00000097,-0.00000376,-0.00000739,0.00000030,-0.00000090,-0.
 00000125,0.00000215,-0.00000013,-0.00000153,0.,0.00000053,-0.00000152,
 0.00000488,0.00000060,0.00000021,-0.00000597,-0.00000150,-0.00000073,-
 0.00000185,-0.00000104,-0.00000178,-0.00000449,0.00000165,0.00000146,-
 0.00000154,0.00000019,0.00000309,-0.00000302,0.00000475,-0.00000118,0.
 00000252,-0.00000160,0.00000618,0.00000347,0.00000092,-0.00000024,0.00
 000352,0.00000083,-0.00000003,0.00000070,0.00000234,0.00000136,0.00000
 201,-0.00000242,0.00000103,0.00000042,0.00000138,0.00000023,0.00000128
 ,0.00000318,0.00000498,0.00000418,0.00000205,-0.00000031,0.00000577,-0
 .00000027,0.00000052,0.00000445,0.00000115,0.00000167,0.00000213,0.000
 00466,0.00000133,-0.00000171,-0.00000069,0.00000416,0.00000083,0.00000
 021,0.00000113,0.00000217,0.00000011,0.00000170,-0.00000457,0.00000079
 ,-0.00000071,-0.00000175,-0.00000551,0.00000820,0.00000499,0.00000092,
 0.00000105,0.00000009,0.00000053,0.00000019,-0.00000515,0.00000162,-0.
 00000084,-0.00000293,-0.00000125,0.00000103,-0.00000444,0.00000019,-0.
 00000064,0.00000138,0.00000520,-0.00000937,-0.00000911,-0.00000154,-0.
 00000400,0.00000310,0.00000027,0.,-0.00000471,0.00000288,0.00000025,0.
 00000330,0.00000045,-0.00000171,-0.00000240,-0.00000513,-0.00000245,0.
 00000139,-0.00000137,-0.00000297,-0.00000061,-0.00000397,-0.00000004,-
 0.00001015,0.00000034,-0.00000448,0.00000338,-0.00000037,0.00000388,-0
 .00000290,0.00000393,-0.00000104,-0.00000418,-0.00000124,0.00000184,0.
 00000530,-0.00000147,-0.00000294,0.00000322\\\@


 "THE ACADEMIC HIERARCHY"


 THE PRESIDENT:
   LEAPS TALL BUILDINGS IN A SINGLE BOUND,
     IS MORE POWERFUL THAN A LOCOMOTIVE,
       IS FASTER THAN A SPEEDING BULLET,
         WALKS ON WATER,
           GIVES POLICY TO GOD.

 THE VICE PRESIDENT FOR ACADEMIC AFFAIRS:
   LEAPS SHORT BUILDINGS IN A SINGLE BOUND,
     IS MORE POWERFUL THAN A SWITCH ENGINE,
       IS JUST AS FAST AS A SPEEDING BULLET,
         WALKS ON WATER IF SEA IS CALM,
           TALKS WITH GOD.

 PROFESSOR:
   LEAPS SHORT BUILDINGS WITH A RUNNING START AND FAVORABLE WINDS,
     IS ALMOST AS POWERFUL AS A SWITCH ENGINE,
       CAN FIRE A SPEEDING BULLET,
         WALKS ON WATER IN AN INDOOR SWIMMING POOL,
          TALKS WITH GOD IF SPECIAL REQUEST IS APPROVED.

 ASSOCIATE PROFESSOR:
   BARELY CLEARS A QUONSET HUT,
     LOSES TUG OF WAR WITH LOCOMOTIVE,
       MISFIRES FREQUENTLY,
         SWIMS WELL,
           IS OCCASIONALLY ADDRESSED BY GOD.

 ASSISTANT PROFESSOR:
   MAKES HIGH MARKS ON WALLS WHEN TRYING TO LEAP TALL BUILDINGS,
     IS RUN OVER BY LOCOMOTIVES,
       CAN SOMETIMES HANDLE A GUN WITHOUT INFLICTING SELF INJURY,
         DOG PADDLES,
           TALKS TO ANIMALS.

 GRADUATE STUDENT:
   RUNS INTO BUILDINGS,
     RECOGNIZES LOCOMOTIVES TWO OUT OF THREE TIMES,
       IS NOT ISSUED AMMUNITION,
         CAN STAY AFLOAT WITH A LIFE JACKET,
           TALKS TO WALLS.

 UNDERGRADUATE AND WORK STUDY STUDENT:
   FALLS OVER DOORSTEP WHEN TRYING TO ENTER BUILDINGS,
     SAYS, "LOOK AT THE CHOO-CHOO,"
       WETS HIMSELF WITH A WATER PISTOL,
        PLAYS IN MUD PUDDLES,
          MUMBLES TO HIMSELF.

 DEPARTMENT SECRETARY:
   LIFTS TALL BUILDINGS AND WALKS UNDER THEM,
     KICKS LOCOMOTIVES OFF THE TRACKS,
       CATCHES SPEEDING BULLETS IN HER TEETH AND EATS THEM,
         FREEZES WATER WITH A SINGLE GLANCE,
           IS GOD.
 Job cpu time:       2 days  6 hours 56 minutes 16.1 seconds.
 File lengths (MBytes):  RWF=   2664 Int=      0 D2E=      0 Chk=     50 Scr=      1
 Normal termination of Gaussian 09 at Wed Mar  2 18:37:31 2022.
