 *******************************************************************************
 ** Site#: 37381        For non-commercial use only           Version 21.125L **
 *******************************************************************************
 ** Cite this program as: MOPAC2016, Version: 21.125L, James J. P. Stewart,   **
 ** Stewart Computational Chemistry, web: HTTP://OpenMOPAC.net. Days left: 191**
 *******************************************************************************
 **                                                                           **
 **                                MOPAC2016                                  **
 **                                                                           **
 *******************************************************************************

                              PM6-D3H4 CALCULATION RESULTS

 *******************************************************************************
 *  CALCULATION DONE:                                Tue Oct 26 20:45:59 2021  *
 *  PM6-D3H4   - CORRECT DISPERSION AND HYDROGEN BOND TERMS USING THE D3H4 METHOD
 *  EPS=2.38   - USE ANDREAS KLAMT'S COSMO IMPLICIT SOLVATION MODEL
 *  FORCE      - FORCE CALCULATION SPECIFIED
 *  T=         - A TIME OF 172800.0 SECONDS REQUESTED
 *  DUMP=N     - RESTART FILE WRITTEN EVERY 7200.0 SECONDS REQUESTED
 *  AUX        - OUTPUT AUXILIARY INFORMATION
 *  LARGE      - EXPANDED OUTPUT TO BE PRINTED
 *  THERMO     - THERMODYNAMIC QUANTITIES TO BE CALCULATED
 *******************************************************************************
 AUX LARGE FORCE THERMO PM6-D3H4 EPS=2.38
 Cycloaddition_SM1_2H2O_PM6_D3H4_FREQ_THERMO

   ATOM   CHEMICAL          X               Y               Z
  NUMBER   SYMBOL      (ANGSTROMS)     (ANGSTROMS)     (ANGSTROMS)
 
     1       N          0.33057000  *   0.34837000  *  -0.38391000  *
     2       N         -0.37183000  *  -0.58390000  *   0.01170000  *
     3       C          1.80342000  *   0.22003000  *  -0.31171000  *
     4       C         -1.84278000  *  -0.44721000  *  -0.03451000  *
     5       O         -2.51448000  *  -0.64039000  *  -1.01531000  *
     6       O          2.46248000  *   0.97625000  *   0.35497000  *
     7       O         -2.23802000  *  -0.21132000  *   1.23424000  *
     8       O          2.19863000  *  -0.75204000  *  -1.15516000  *
     9       C          3.63108000  *  -1.07451000  *  -1.20130000  *
    10       H          3.61778000  *  -1.91820000  *  -1.93017000  *
    11       H          4.18741000  *  -0.19060000  *  -1.57615000  *
    12       H          3.94400000  *  -1.39728000  *  -0.18493000  *
    13       C         -3.67948000  *  -0.03952000  *   1.46122000  *
    14       H         -3.94882000  *   0.96119000  *   1.06015000  *
    15       H         -4.24170000  *  -0.87055000  *   0.98527000  *
    16       H         -3.71250000  *  -0.08419000  *   2.57364000  *
    17       O          5.35816000  *   1.36004000  *   0.15594000  *
    18       H          4.41549000  *   1.24006000  *   0.39004000  *
    19       H          5.71731000  *   2.14352000  *   0.60276000  *
    20       O          1.85518000  *  -2.20095000  *   1.73166000  *
    21       H          1.77497000  *  -1.81666000  *   2.61696000  *
    22       H          1.10436000  *  -1.96458000  *   1.17679000  *
    23       O         -1.67661000  *   2.83369000  *   0.13001000  *
    24       H         -1.09787000  *   2.18509000  *  -0.28366000  *
    25       H         -1.23634000  *   3.26342000  *   0.87995000  *
    26       O         -5.40841000  *  -0.25942000  *  -1.38524000  *
    27       H         -4.43046000  *  -0.28679000  *  -1.36659000  *
    28       H         -5.72671000  *  -0.46072000  *  -2.28182000  *
 


          CARTESIAN COORDINATES 

    NO.       ATOM           X           Y           Z

     1         N          0.3306      0.3484     -0.3839
     2         N         -0.3718     -0.5839      0.0117
     3         C          1.8034      0.2200     -0.3117
     4         C         -1.8428     -0.4472     -0.0345
     5         O         -2.5145     -0.6404     -1.0153
     6         O          2.4625      0.9762      0.3550
     7         O         -2.2380     -0.2113      1.2342
     8         O          2.1986     -0.7520     -1.1552
     9         C          3.6311     -1.0745     -1.2013
    10         H          3.6178     -1.9182     -1.9302
    11         H          4.1874     -0.1906     -1.5762
    12         H          3.9440     -1.3973     -0.1849
    13         C         -3.6795     -0.0395      1.4612
    14         H         -3.9488      0.9612      1.0601
    15         H         -4.2417     -0.8706      0.9853
    16         H         -3.7125     -0.0842      2.5736
    17         O          5.3582      1.3600      0.1559
    18         H          4.4155      1.2401      0.3900
    19         H          5.7173      2.1435      0.6028
    20         O          1.8552     -2.2010      1.7317
    21         H          1.7750     -1.8167      2.6170
    22         H          1.1044     -1.9646      1.1768
    23         O         -1.6766      2.8337      0.1300
    24         H         -1.0979      2.1851     -0.2837
    25         H         -1.2363      3.2634      0.8800
    26         O         -5.4084     -0.2594     -1.3852
    27         H         -4.4305     -0.2868     -1.3666
    28         H         -5.7267     -0.4607     -2.2818

 General Reference for PM6:
 "Optimization of Parameters for Semiempirical Methods V: Modification of NDDO Approximations
 and Application to 70 Elements", J. J. P. Stewart, J. Mol. Mod., 13, 1173-1213 (2007)
 URL: https://link.springer.com/article/10.1007/s00894-007-0233-4

           Empirical Formula: C4 H14 N2 O8  =    28 atoms



      MOLECULAR POINT GROUP   :   C1  


      RHF CALCULATION, NO. OF DOUBLY OCCUPIED LEVELS = 44



          HEAT OF FORMATION =    -339.957144 KCALS/MOLE


          CARTESIAN COORDINATE DERIVATIVES

   NUMBER  ATOM         X            Y            Z

     1       N     -0.221033    -0.202238    -0.921697
     2       N      0.232116     0.233669     0.963379
     3       C     -0.743913     1.005306     0.400080
     4       C      0.617203    -0.661143     0.108219
     5       O     -0.220664    -0.842779    -0.121345
     6       O     -0.098453    -0.376660    -0.192941
     7       O     -0.634833     0.344100    -0.250948
     8       O     -0.001374    -0.461798     0.139089
     9       C     -0.049574     0.106012     0.367775
    10       H      0.370188     0.203379    -0.150561
    11       H      0.323998    -0.151911    -0.256166
    12       H      0.382014    -0.144417    -0.140351
    13       C      0.032818    -0.009433    -0.105813
    14       H     -0.464338     1.002920     0.169335
    15       H      0.324357    -0.113061    -0.083550
    16       H      0.155324     0.145532    -0.086925
    17       O      0.230566    -0.282545    -0.109672
    18       H      0.067235     0.276694    -0.235572
    19       H     -0.200348    -0.197612     0.545144
    20       O     -0.059489    -0.789058     0.422196
    21       H     -0.654512     0.279715    -0.379586
    22       H      0.300830     0.271448     0.001002
    23       O      0.173864     0.400159     0.448787
    24       H     -0.043384    -0.261938    -0.325791
    25       H      0.331389    -0.081857    -0.104860
    26       O     -0.229413     0.219769     0.813721
    27       H      0.319984    -0.152220     0.127767
    28       H     -0.240240     0.240163    -1.040520
 
 DIPOLE           X         Y         Z       TOTAL
 POINT-CHG.     0.613     0.977     1.658     2.020
 HYBRID        -0.266    -0.074     0.170     0.324
 SUM            0.347     0.904     1.828     2.068


          GRADIENT NORM =   3.68184


                              **** WARNING ****

           GRADIENT IS VERY LARGE FOR A THERMO CALCULATION
           RESULTS ARE LIKELY TO BE INACCURATE IF THERE ARE
           ANY LOW-LYING VIBRATIONS (LESS THAN ABOUT 400CM-1)
           GRADIENT NORM SHOULD BE LESS THAN ABOUT 1.1 FOR THERMO
           TO GIVE ACCURATE RESULTS


          TIME FOR SCF CALCULATION =    0.05

          TIME FOR DERIVATIVES     =    0.02

          MOLECULAR WEIGHT =  218.16



          ROTATIONAL CONSTANTS IN CM(-1)

          A =    0.03068157   B =    0.00760837   C =    0.00725676



           PRINCIPAL MOMENTS OF INERTIA IN UNITS OF 10**(-40)*GRAM-CM**2

          A =      912.3645   B =     3679.2086   C =     3857.4771


          ORIENTATION OF MOLECULE IN FORCE CALCULATION

    NO.       ATOM         X         Y         Z

     1          N      -0.5760    0.0040   -0.2042
     2          N       0.6565    0.0040   -0.2042
     3          C      -1.2951    1.2977   -0.2042
     4          C       1.3766   -1.2865   -0.1770
     5          O       1.5907   -1.9677   -1.1468
     6          O      -2.0288    1.6024    0.7012
     7          O       1.8306   -1.4366    1.0851
     8          O      -1.0558    1.9300   -1.3684
     9          C      -1.6431    3.2638   -1.5537
    10          H      -1.2312    3.5205   -2.5575
    11          H      -2.7490    3.1737   -1.5523
    12          H      -1.2510    3.9267   -0.7525
    13          C       2.5950   -2.6571    1.3765
    14          H       1.8629   -3.4924    1.4088
    15          H       3.3913   -2.7987    0.6155
    16          H       3.0047   -2.4005    2.3800
    17          O      -4.0332    3.7356    0.6410
    18          H      -3.3301    3.0782    0.8179
    19          H      -4.6871    3.7282    1.3585
    20          O       1.1626    3.0770    0.7087
    21          H       1.2018    3.0187    1.6746
    22          H       1.2335    2.2073    0.3012
    23          O      -1.1471   -2.8163    1.2755
    24          H      -1.1191   -2.1007    0.6322
    25          H      -1.4823   -2.5023    2.1298
    26          O       2.8330   -4.6301   -1.3050
    27          H       2.3024   -3.8080   -1.3089
    28          H       2.8789   -4.9970   -2.2044


    FIRST DERIVATIVES WILL BE USED IN THE CALCULATION OF SECOND DERIVATIVES

          ESTIMATED TIME TO COMPLETE CALCULATION =       10.50 SECONDS

    FOR POINT-GROUP C1   THERE ARE   1 UNIQUE SYMMETRY FUNCTIONS.

 STEP:   1 TIME =     0.05 SECS, INTEGRAL =      0.05 TIME LEFT: 172799.88
 STEP:   2 TIME =     0.05 SECS, INTEGRAL =      0.11 TIME LEFT: 172799.83
 STEP:   3 TIME =     0.05 SECS, INTEGRAL =      0.16 TIME LEFT: 172799.77
 STEP:   4 TIME =     0.05 SECS, INTEGRAL =      0.22 TIME LEFT: 172799.72
 STEP:   5 TIME =     0.05 SECS, INTEGRAL =      0.27 TIME LEFT: 172799.67
 STEP:   6 TIME =     0.05 SECS, INTEGRAL =      0.32 TIME LEFT: 172799.62
 STEP:   7 TIME =     0.05 SECS, INTEGRAL =      0.37 TIME LEFT: 172799.57
 STEP:   8 TIME =     0.05 SECS, INTEGRAL =      0.41 TIME LEFT: 172799.52
 STEP:   9 TIME =     0.06 SECS, INTEGRAL =      0.48 TIME LEFT: 172799.46
 STEP:  10 TIME =     0.05 SECS, INTEGRAL =      0.53 TIME LEFT: 172799.41
 STEP:  11 TIME =     0.05 SECS, INTEGRAL =      0.58 TIME LEFT: 172799.36
 STEP:  12 TIME =     0.06 SECS, INTEGRAL =      0.64 TIME LEFT: 172799.30
 STEP:  13 TIME =     0.05 SECS, INTEGRAL =      0.69 TIME LEFT: 172799.25
 STEP:  14 TIME =     0.05 SECS, INTEGRAL =      0.73 TIME LEFT: 172799.20
 STEP:  15 TIME =     0.05 SECS, INTEGRAL =      0.79 TIME LEFT: 172799.15
 STEP:  16 TIME =     0.05 SECS, INTEGRAL =      0.84 TIME LEFT: 172799.10
 STEP:  17 TIME =     0.05 SECS, INTEGRAL =      0.88 TIME LEFT: 172799.05
 STEP:  18 TIME =     0.05 SECS, INTEGRAL =      0.94 TIME LEFT: 172799.00
 STEP:  19 TIME =     0.05 SECS, INTEGRAL =      0.98 TIME LEFT: 172798.95
 STEP:  20 TIME =     0.05 SECS, INTEGRAL =      1.04 TIME LEFT: 172798.90
 STEP:  21 TIME =     0.05 SECS, INTEGRAL =      1.09 TIME LEFT: 172798.84
 STEP:  22 TIME =     0.05 SECS, INTEGRAL =      1.14 TIME LEFT: 172798.80
 STEP:  23 TIME =     0.05 SECS, INTEGRAL =      1.19 TIME LEFT: 172798.75
 STEP:  24 TIME =     0.05 SECS, INTEGRAL =      1.24 TIME LEFT: 172798.70
 STEP:  25 TIME =     0.05 SECS, INTEGRAL =      1.30 TIME LEFT: 172798.64
 STEP:  26 TIME =     0.05 SECS, INTEGRAL =      1.34 TIME LEFT: 172798.59
 STEP:  27 TIME =     0.05 SECS, INTEGRAL =      1.40 TIME LEFT: 172798.54
 STEP:  28 TIME =     0.05 SECS, INTEGRAL =      1.45 TIME LEFT: 172798.49
 STEP:  29 TIME =     0.05 SECS, INTEGRAL =      1.49 TIME LEFT: 172798.45
 STEP:  30 TIME =     0.05 SECS, INTEGRAL =      1.54 TIME LEFT: 172798.40
 STEP:  31 TIME =     0.05 SECS, INTEGRAL =      1.59 TIME LEFT: 172798.35
 STEP:  32 TIME =     0.05 SECS, INTEGRAL =      1.63 TIME LEFT: 172798.30
 STEP:  33 TIME =     0.05 SECS, INTEGRAL =      1.68 TIME LEFT: 172798.26
 STEP:  34 TIME =     0.05 SECS, INTEGRAL =      1.73 TIME LEFT: 172798.21
 STEP:  35 TIME =     0.05 SECS, INTEGRAL =      1.77 TIME LEFT: 172798.16
 STEP:  36 TIME =     0.04 SECS, INTEGRAL =      1.81 TIME LEFT: 172798.12
 STEP:  37 TIME =     0.05 SECS, INTEGRAL =      1.86 TIME LEFT: 172798.08
 STEP:  38 TIME =     0.05 SECS, INTEGRAL =      1.91 TIME LEFT: 172798.03
 STEP:  39 TIME =     0.05 SECS, INTEGRAL =      1.95 TIME LEFT: 172797.98
 STEP:  40 TIME =     0.05 SECS, INTEGRAL =      2.00 TIME LEFT: 172797.94
 STEP:  41 TIME =     0.04 SECS, INTEGRAL =      2.04 TIME LEFT: 172797.90
 STEP:  42 TIME =     0.05 SECS, INTEGRAL =      2.09 TIME LEFT: 172797.85
 STEP:  43 TIME =     0.05 SECS, INTEGRAL =      2.13 TIME LEFT: 172797.80
 STEP:  44 TIME =     0.05 SECS, INTEGRAL =      2.18 TIME LEFT: 172797.76
 STEP:  45 TIME =     0.05 SECS, INTEGRAL =      2.23 TIME LEFT: 172797.71
 STEP:  46 TIME =     0.05 SECS, INTEGRAL =      2.27 TIME LEFT: 172797.66
 STEP:  47 TIME =     0.04 SECS, INTEGRAL =      2.31 TIME LEFT: 172797.62
 STEP:  48 TIME =     0.04 SECS, INTEGRAL =      2.35 TIME LEFT: 172797.59
 STEP:  49 TIME =     0.05 SECS, INTEGRAL =      2.40 TIME LEFT: 172797.54
 STEP:  50 TIME =     0.05 SECS, INTEGRAL =      2.45 TIME LEFT: 172797.49
 STEP:  51 TIME =     0.05 SECS, INTEGRAL =      2.49 TIME LEFT: 172797.45
 STEP:  52 TIME =     0.05 SECS, INTEGRAL =      2.54 TIME LEFT: 172797.40
 STEP:  53 TIME =     0.05 SECS, INTEGRAL =      2.59 TIME LEFT: 172797.35
 STEP:  54 TIME =     0.05 SECS, INTEGRAL =      2.63 TIME LEFT: 172797.30
 STEP:  55 TIME =     0.05 SECS, INTEGRAL =      2.68 TIME LEFT: 172797.26
 STEP:  56 TIME =     0.05 SECS, INTEGRAL =      2.73 TIME LEFT: 172797.21
 STEP:  57 TIME =     0.05 SECS, INTEGRAL =      2.77 TIME LEFT: 172797.16
 STEP:  58 TIME =     0.05 SECS, INTEGRAL =      2.82 TIME LEFT: 172797.12
 STEP:  59 TIME =     0.05 SECS, INTEGRAL =      2.87 TIME LEFT: 172797.07
 STEP:  60 TIME =     0.05 SECS, INTEGRAL =      2.91 TIME LEFT: 172797.02
 STEP:  61 TIME =     0.05 SECS, INTEGRAL =      2.96 TIME LEFT: 172796.98
 STEP:  62 TIME =     0.05 SECS, INTEGRAL =      3.01 TIME LEFT: 172796.93
 STEP:  63 TIME =     0.05 SECS, INTEGRAL =      3.05 TIME LEFT: 172796.88
 STEP:  64 TIME =     0.05 SECS, INTEGRAL =      3.10 TIME LEFT: 172796.84
 STEP:  65 TIME =     0.05 SECS, INTEGRAL =      3.15 TIME LEFT: 172796.79
 STEP:  66 TIME =     0.05 SECS, INTEGRAL =      3.20 TIME LEFT: 172796.73
 STEP:  67 TIME =     0.05 SECS, INTEGRAL =      3.25 TIME LEFT: 172796.69
 STEP:  68 TIME =     0.05 SECS, INTEGRAL =      3.30 TIME LEFT: 172796.64
 STEP:  69 TIME =     0.05 SECS, INTEGRAL =      3.34 TIME LEFT: 172796.59
 STEP:  70 TIME =     0.05 SECS, INTEGRAL =      3.39 TIME LEFT: 172796.55
 STEP:  71 TIME =     0.05 SECS, INTEGRAL =      3.44 TIME LEFT: 172796.50
 STEP:  72 TIME =     0.05 SECS, INTEGRAL =      3.48 TIME LEFT: 172796.45
 STEP:  73 TIME =     0.05 SECS, INTEGRAL =      3.53 TIME LEFT: 172796.41
 STEP:  74 TIME =     0.05 SECS, INTEGRAL =      3.58 TIME LEFT: 172796.36
 STEP:  75 TIME =     0.05 SECS, INTEGRAL =      3.62 TIME LEFT: 172796.31
 STEP:  76 TIME =     0.05 SECS, INTEGRAL =      3.68 TIME LEFT: 172796.26
 STEP:  77 TIME =     0.05 SECS, INTEGRAL =      3.73 TIME LEFT: 172796.21
 STEP:  78 TIME =     0.05 SECS, INTEGRAL =      3.77 TIME LEFT: 172796.16
 STEP:  79 TIME =     0.05 SECS, INTEGRAL =      3.82 TIME LEFT: 172796.12
 STEP:  80 TIME =     0.05 SECS, INTEGRAL =      3.87 TIME LEFT: 172796.07
 STEP:  81 TIME =     0.05 SECS, INTEGRAL =      3.91 TIME LEFT: 172796.02
 STEP:  82 TIME =     0.05 SECS, INTEGRAL =      3.96 TIME LEFT: 172795.98
 STEP:  83 TIME =     0.05 SECS, INTEGRAL =      4.01 TIME LEFT: 172795.93
 STEP:  84 TIME =     0.05 SECS, INTEGRAL =      4.05 TIME LEFT: 172795.88

(To convert to Hartree/Bohr^2, multiply by (10^(-21) x N x a0^2)/(4.184 x 627.51) =  0.0642)


           FORCE MATRIX IN MILLIDYNES/ANGSTROM


                  N  1       N  2       C  3       C  4       O  5       O  6
 ------------------------------------------------------------------------------
     N    1  16.626107
     N    2  13.478734  16.748829
     C    3   3.273394   1.266783  17.118651
     C    4   1.258994   3.303042   0.461233  17.042640
     O    5   0.157497   1.278103   0.140342  11.258201  13.579011
     O    6   1.291500   0.204318  11.296925   0.153074   0.051522  13.627268
     O    7   0.168201   1.179278   0.137782   4.667687   1.785255   0.086535
     O    8   1.132872   0.142771   4.714026   0.125098   0.079656   1.761380
     C    9   0.162099   0.049960   1.131016   0.044271   0.030361   0.106689
     H   10   0.033012   0.013366   0.141212   0.016550   0.010980   0.023787
     H   11   0.017880   0.008994   0.116159   0.010058   0.006167   0.032373
     H   12   0.026392   0.006467   0.121067   0.008211   0.003776   0.031693
     C   13   0.057658   0.130181   0.051880   1.148996   0.113494   0.033749
     H   14   0.006987   0.020358   0.007801   0.122774   0.027176   0.004812
     H   15   0.009638   0.016922   0.010826   0.131684   0.040195   0.005813
     H   16   0.015084   0.027863   0.017574   0.144726   0.023917   0.011005
     O   17   0.118593   0.012429   0.104028   0.025924   0.013012   0.163373
     H   18   0.030868   0.017748   0.210664   0.031222   0.015148   0.143007
     H   19   0.005904   0.004250   0.032528   0.009005   0.004392   0.033865
     O   20   0.048926   0.104831   0.103937   0.053471   0.024063   0.053385
     H   21   0.009187   0.015634   0.040405   0.024249   0.011131   0.020152
     H   22   0.060990   0.038019   0.096032   0.062011   0.027578   0.031608
     O   23   0.110429   0.042068   0.054779   0.086182   0.039396   0.027040
     H   24   0.047237   0.063535   0.058707   0.091124   0.034637   0.028164
     H   25   0.015188   0.007928   0.024134   0.026106   0.010290   0.013594
     O   26   0.011319   0.020163   0.025260   0.110258   0.160669   0.012686
     H   27   0.015007   0.032456   0.029749   0.198639   0.126227   0.014733
     H   28   0.003748   0.006502   0.008701   0.031205   0.028326   0.004287


                  O  7       O  8       C  9       H 10       H 11       H 12
 ------------------------------------------------------------------------------
     O    7   9.590223
     O    8   0.042638   9.589529
     C    9   0.017049   3.157662  10.425508
     H   10   0.005894   0.699770   3.307846   4.191617
     H   11   0.004082   0.663096   3.343173   0.527271   4.172301
     H   12   0.003414   0.681851   3.344771   0.529012   0.529444   4.184642
     C   13   3.153707   0.017997   0.007042   0.002341   0.001559   0.001413
     H   14   0.695077   0.002722   0.001002   0.000313   0.000325   0.000155
     H   15   0.660411   0.004711   0.001774   0.000639   0.000325   0.000334
     H   16   0.694821   0.006053   0.002270   0.000725   0.000451   0.000522
     O   17   0.013058   0.033739   0.043931   0.008887   0.029881   0.014026
     H   18   0.015919   0.053116   0.022761   0.006795   0.038060   0.020120
     H   19   0.004689   0.007368   0.006712   0.002561   0.006600   0.003640
     O   20   0.032814   0.062416   0.016846   0.008210   0.006687   0.019313
     H   21   0.018596   0.013627   0.005453   0.002428   0.002294   0.005628
     H   22   0.031534   0.033337   0.013440   0.004877   0.003147   0.007857
     O   23   0.064815   0.020215   0.006891   0.002147   0.001799   0.001502
     H   24   0.033647   0.022526   0.007668   0.002398   0.001750   0.001457
     H   25   0.013686   0.008107   0.002549   0.000768   0.000733   0.000655
     O   26   0.035639   0.012804   0.004812   0.001644   0.001157   0.000770
     H   27   0.052937   0.015121   0.005623   0.001891   0.001266   0.000863
     H   28   0.009691   0.004433   0.001666   0.000584   0.000411   0.000257


                  C 13       H 14       H 15       H 16       O 17       H 18
 ------------------------------------------------------------------------------
     C   13  10.417927
     H   14   3.335770   4.188006
     H   15   3.325449   0.532620   4.159599
     H   16   3.320675   0.525794   0.530667   4.200751
     O   17   0.005072   0.000881   0.001085   0.001571   4.994351
     H   18   0.006226   0.000947   0.001281   0.001964   2.955385   3.611820
     H   19   0.001852   0.000357   0.000355   0.000583   3.074344   1.073800
     O   20   0.009455   0.001446   0.002049   0.003915   0.013331   0.013309
     H   21   0.004895   0.000777   0.000924   0.002266   0.006078   0.005503
     H   22   0.008837   0.001331   0.001844   0.003186   0.006716   0.007436
     O   23   0.040736   0.037284   0.005753   0.007864   0.005740   0.005795
     H   24   0.013833   0.011578   0.002696   0.004061   0.004819   0.005308
     H   25   0.033622   0.025711   0.001787   0.003131   0.002731   0.002551
     O   26   0.044501   0.017516   0.024417   0.008876   0.003355   0.003556
     H   27   0.027688   0.022890   0.037701   0.007133   0.003514   0.003872
     H   28   0.008863   0.005700   0.006032   0.002582   0.001186   0.001245


                  H 19       O 20       H 21       H 22       O 23       H 24
 ------------------------------------------------------------------------------
     H   19   3.726613
     O   20   0.004629   5.125266
     H   21   0.002270   3.043397   3.716703
     H   22   0.002229   3.013991   1.101932   3.718528
     O   23   0.002468   0.006482   0.003345   0.005131   5.124729
     H   24   0.001892   0.005319   0.002563   0.004098   3.018048   3.748048
     H   25   0.001291   0.003076   0.001750   0.002230   3.042666   1.110371
     O   26   0.001186   0.004577   0.001926   0.004268   0.022764   0.008957
     H   27   0.001231   0.005116   0.002219   0.004916   0.012169   0.007731
     H   28   0.000415   0.001568   0.000630   0.001441   0.004338   0.002388


                  H 25       O 26       H 27       H 28
 ------------------------------------------------------
     H   25   3.718917
     O   26   0.023587   5.145758
     H   27   0.003894   2.985526   3.636293
     H   28   0.001560   3.081489   1.075275   3.741633


          HEAT OF FORMATION =    -339.957144 KCALS/MOLE


          TRIVIAL VIBRATIONS, SHOULD BE ZERO

 -40.1305=TX -30.4353=TY -10.4066=TZ -20.4875=RX   4.7127=RY  -3.2535=RZ


      MOLECULAR POINT GROUP   :   C1  


           EIGENVECTORS  


   Root No.       1         2         3         4         5         6         7         8

                 1 A       2 A       3 A       4 A       5 A       6 A       7 A       8 A   

                  -0.0      -0.0      -0.0      -0.0      -0.0      -0.0       0.0       0.0
  
           1   -0.0298    0.0696   -0.0616   -0.1106    0.0094    0.0090   -0.0671    0.0112
           2   -0.0055   -0.0610    0.0254   -0.0470   -0.0278    0.0232   -0.0157    0.0530
           3    0.0170   -0.0288    0.0651    0.0214    0.1049   -0.0037   -0.0047   -0.0062
           4   -0.0301    0.0689   -0.0614   -0.1108    0.0095    0.0089   -0.0669    0.0121
           5   -0.0258   -0.0159    0.0278   -0.0932   -0.0077    0.0200    0.0035    0.0407
           6    0.0268   -0.0013    0.0469   -0.0230    0.0909    0.0213    0.0003   -0.0413
           7   -0.0170    0.0068   -0.0599   -0.0553   -0.0015    0.0121   -0.0786    0.0312
           8    0.0023   -0.0875    0.0219   -0.0145   -0.0285    0.0219   -0.0223    0.0646
           9    0.0067   -0.0718    0.0538    0.0048    0.1011    0.0001   -0.0194   -0.0067
          10   -0.0529    0.0863   -0.0459   -0.1486    0.0320    0.0063   -0.0389   -0.0169
          11   -0.0379   -0.0081    0.0358   -0.1126    0.0055    0.0192    0.0198    0.0220
          12    0.0372    0.0010    0.0401    0.0018    0.0642    0.0380    0.0170   -0.0222
          13   -0.0213    0.1077   -0.0490   -0.2554    0.0661    0.0788   -0.0493   -0.0840
          14   -0.0265    0.0060    0.0433   -0.1900    0.0496    0.0500   -0.0051   -0.0293
          15    0.0370   -0.0043    0.0345    0.0325    0.0402    0.0326    0.0322   -0.0003
          16   -0.0118   -0.1303   -0.1011   -0.0238    0.0066    0.0574   -0.0950    0.0630
          17    0.0171   -0.1082    0.0090    0.0379    0.0019    0.0335   -0.0284    0.0965
          18    0.0056   -0.1788    0.0233    0.0129    0.0953    0.0345   -0.0306    0.0084
          19   -0.1089    0.0570   -0.0357   -0.0387    0.0081   -0.0873   -0.0033    0.0277
          20   -0.0730   -0.0223    0.0350   -0.0310   -0.0410   -0.0189    0.0697    0.0697
          21    0.0560    0.0082    0.0357   -0.0277    0.0671    0.0675    0.0103   -0.0334
          22   -0.0131    0.1136    0.0279   -0.0531   -0.0163   -0.0500   -0.0620    0.0087
          23   -0.0094   -0.0425    0.0550   -0.0478   -0.0535   -0.0046   -0.0234    0.0452
          24    0.0011   -0.0334    0.0892   -0.0130    0.0811   -0.0254   -0.0160   -0.0227
          25   -0.0047    0.0631   -0.0409    0.0380    0.0556   -0.0450   -0.0993    0.0337
          26   -0.0062   -0.0673    0.0156   -0.0066   -0.0173   -0.0013   -0.0452    0.0565
          27   -0.0071   -0.0474    0.0270   -0.0055    0.1082   -0.0193   -0.0529   -0.0182
          28   -0.0042    0.1435    0.0828    0.0001   -0.1401    0.0043   -0.1392    0.0316
          29   -0.0157   -0.0107    0.0621   -0.0571   -0.1243    0.0243   -0.0775    0.0486
          30   -0.0093   -0.0006    0.0892   -0.0339    0.0016    0.0069   -0.0772   -0.0214
          31   -0.0053    0.0712   -0.0350    0.0310    0.0457   -0.0430   -0.0983    0.0324
          32    0.0010   -0.1238   -0.0712    0.0817    0.0978   -0.0158   -0.0653    0.0763
          33   -0.0057   -0.1625   -0.1333    0.0599    0.3591   -0.0788   -0.0099   -0.0122
          34    0.0003   -0.0466   -0.2182    0.1389    0.3009   -0.0907   -0.0878    0.0525
          35   -0.0030   -0.0713    0.0341   -0.0235   -0.0086   -0.0130   -0.0058    0.0510
          36   -0.0122    0.0106    0.0949   -0.0405   -0.0181    0.0127   -0.0918   -0.0227
          37   -0.0689    0.0441   -0.0230   -0.0043    0.0216   -0.1271    0.0255   -0.1582
          38   -0.0520   -0.0296    0.0381   -0.0059   -0.0422   -0.0374    0.0921   -0.0288
          39    0.0406    0.0110    0.0206   -0.0167    0.0272    0.0933    0.0289    0.0446
          40   -0.0123    0.0311   -0.0119    0.0153    0.0342   -0.1399    0.0420   -0.3303
          41   -0.1007   -0.0186    0.0277   -0.0190   -0.0557   -0.0301    0.0786    0.1268
          42   -0.0780    0.0140    0.0021    0.0730   -0.0294    0.0000    0.0699    0.2777
          43   -0.0037    0.0404   -0.0164   -0.0500    0.0405   -0.0616    0.0109   -0.2956
          44    0.0435   -0.0424    0.0607   -0.0314    0.0069   -0.0198    0.0849   -0.3123
          45    0.0884    0.0097    0.0231   -0.0614    0.0381    0.1589    0.0148   -0.0469
          46   -0.1529    0.0482   -0.0322    0.0567   -0.0053   -0.2131    0.0443    0.0381
          47   -0.0875   -0.0319    0.0275    0.0511   -0.0836   -0.0767    0.1301    0.0461
          48    0.0839    0.0096    0.0271   -0.0560    0.0486    0.1385    0.0115   -0.0559
          49   -0.0074   -0.2894   -0.0405    0.0393   -0.0806    0.0573    0.3005   -0.1529
          50    0.0583    0.4364   -0.0579    0.1293    0.1362   -0.0955    0.2523   -0.0728
          51    0.0023    0.2766   -0.0758    0.0309   -0.0747    0.2118    0.0527   -0.0236
          52   -0.0225   -0.3627   -0.0371    0.0207   -0.1354    0.1171    0.2035   -0.0784
          53    0.0403    0.2410   -0.0360    0.1057    0.1436   -0.0887    0.1591   -0.0031
          54   -0.0045   -0.1386   -0.0149    0.0179    0.1740   -0.0026    0.0918   -0.0606
          55   -0.0179   -0.1782   -0.0608    0.0365   -0.3305    0.2644    0.2402   -0.0858
          56    0.0511    0.1815   -0.0200    0.1291    0.1373   -0.1206    0.3151   -0.1015
          57   -0.0070    0.3780   -0.0942    0.0286   -0.3030    0.4011   -0.0023    0.0378
          58   -0.0233   -0.0003    0.4314   -0.0040   -0.0011   -0.0101   -0.0189    0.0458
          59    0.0001   -0.0009   -0.0426   -0.1058    0.0953    0.1017   -0.0607    0.0268
          60   -0.0101    0.0080    0.0061   -0.0732   -0.2198   -0.2958    0.1345   -0.0086
          61   -0.0088    0.0345    0.4988    0.0534    0.1209    0.1120   -0.1301   -0.0165
          62    0.0210   -0.0378   -0.4442   -0.0090    0.1499    0.2642   -0.1750    0.0288
          63   -0.0095    0.0037   -0.0194   -0.0690   -0.2214   -0.2908    0.1322   -0.0057
          64   -0.0154   -0.0229   -0.1681   -0.0032   -0.0298    0.0457   -0.0977    0.0488
          65   -0.0065    0.0154    0.0787   -0.1449    0.0735    0.0415   -0.0234    0.0231
          66    0.0063   -0.0297   -0.3417    0.0101   -0.1800   -0.1613    0.0441   -0.0008
          67   -0.1748    0.0202   -0.0051   -0.1557    0.0317   -0.0514    0.1498    0.3642
          68   -0.0110   -0.0105   -0.0274    0.0219   -0.1455   -0.0646   -0.2117   -0.1111
          69   -0.1332   -0.0013   -0.0117    0.1170   -0.1258   -0.1918   -0.2161    0.0280
          70   -0.1895    0.0337   -0.0236   -0.1724    0.0330   -0.0487    0.0683    0.2364
          71   -0.0425   -0.0086   -0.0187    0.0207   -0.0962   -0.0030   -0.1621   -0.0931
          72   -0.1638    0.0006   -0.0025    0.1150   -0.0711   -0.1232   -0.1642    0.0419
          73    0.8088   -0.0193    0.0062   -0.1806   -0.0281   -0.1100    0.1064    0.2910
          74    0.2431   -0.0181   -0.0419    0.0096   -0.2237   -0.1593   -0.3120   -0.1892
          75    0.1523   -0.0142   -0.0019    0.1110   -0.1204   -0.1798   -0.1959    0.0292
          76    0.1422   -0.0105    0.0287    0.3752   -0.0233    0.0811    0.0014   -0.0434
          77    0.0399   -0.0323    0.0601    0.1554    0.0084    0.0450    0.0147    0.0204
          78   -0.0680   -0.0044    0.0073   -0.0871   -0.0143    0.0602    0.0715   -0.0167
          79    0.0564    0.0188    0.0145    0.0404    0.0312    0.1171   -0.0528   -0.2268
          80   -0.0154   -0.0135    0.0505   -0.0594    0.0434    0.0684   -0.0203   -0.0968
          81    0.0059   -0.0043   -0.0017   -0.0094   -0.0084    0.0300    0.1062    0.0139
          82   -0.0113    0.0016    0.0369    0.5207   -0.0550    0.1063   -0.0078    0.1604
          83    0.0010   -0.0178    0.0516    0.2565    0.0066    0.0365    0.0342    0.1421
          84   -0.0588   -0.0096    0.0111   -0.1206   -0.0150    0.0651    0.0631   -0.0558


   Root No.       9        10        11        12        13        14        15        16

                 9 A      10 A      11 A      12 A      13 A      14 A      15 A      16 A   

                   0.0       0.0       0.0       0.0       0.0       0.0       0.0       0.0
  
           1    0.0773   -0.0636   -0.0455    0.1009    0.0135    0.0005    0.0215   -0.0610
           2    0.0120   -0.0847   -0.0317   -0.0062   -0.0516   -0.0285   -0.0439   -0.0052
           3    0.0429   -0.0427   -0.1728   -0.0618   -0.0373   -0.0884   -0.1473    0.0398
           4    0.0773   -0.0628   -0.0451    0.1007    0.0139   -0.0001    0.0209   -0.0609
           5    0.0407   -0.0366    0.0013    0.0195    0.0042   -0.0309   -0.0009    0.0108
           6    0.0626   -0.0039   -0.1831   -0.0398    0.0654   -0.1058   -0.0675    0.0592
           7    0.0312   -0.1056   -0.0631    0.0426   -0.0396    0.0010   -0.0369   -0.0839
           8   -0.0159   -0.1066   -0.0396   -0.0407   -0.0837   -0.0256   -0.0756   -0.0176
           9    0.0314   -0.0201   -0.1338   -0.0098   -0.0686   -0.0521   -0.1347    0.0119
          10    0.0906   -0.0176   -0.0009    0.1038    0.0661    0.0045    0.0599   -0.0492
          11    0.0454   -0.0119    0.0268    0.0167    0.0330   -0.0265    0.0235    0.0169
          12    0.0229   -0.0196   -0.1571   -0.0631    0.0863   -0.0340   -0.0363    0.0124
          13    0.1696    0.0067    0.0810    0.1707    0.1768    0.0144    0.1834   -0.0666
          14    0.1336    0.0029    0.0354    0.0660    0.0807   -0.0973    0.0538    0.0511
          15   -0.0217   -0.0250   -0.1438   -0.0823    0.0775    0.0198   -0.0305   -0.0169
          16    0.0103   -0.2241   -0.1082    0.0236   -0.1544    0.0390   -0.1290   -0.1663
          17   -0.0279   -0.2244   -0.1128   -0.1167   -0.1579   -0.0477   -0.1829   -0.0483
          18    0.0183   -0.0762   -0.1459    0.0006   -0.1380   -0.0118   -0.1729   -0.0463
          19   -0.0032   -0.0105   -0.0687    0.0094   -0.0357    0.0037   -0.0564   -0.0100
          20   -0.0617   -0.0076    0.0519   -0.0544    0.0032    0.0859    0.0103   -0.0196
          21    0.0426   -0.0218   -0.1285   -0.0382    0.1176   -0.0183    0.0049   -0.0077
          22    0.0101    0.0203   -0.0081    0.0035    0.0828   -0.0629    0.0042   -0.0120
          23   -0.0336    0.0100    0.0552    0.0220   -0.0251    0.0079    0.0073   -0.0170
          24    0.0165    0.0711   -0.0708    0.0162   -0.0113   -0.0449   -0.0800    0.0256
          25   -0.1092    0.0836    0.0492   -0.1203    0.0944   -0.0723   -0.0443    0.0067
          26   -0.0966    0.0506    0.0961   -0.0228   -0.0224    0.0209   -0.0039   -0.0194
          27   -0.0543    0.1552    0.0376    0.0713   -0.0240    0.0576   -0.0166   -0.0308
          28   -0.1112    0.3153   -0.1146   -0.1653   -0.0401   -0.0339   -0.1220   -0.0498
          29   -0.1016    0.2075    0.0729    0.0496   -0.1062    0.1255    0.0279   -0.1005
          30   -0.0560    0.2911   -0.0352    0.0728   -0.1010    0.1015   -0.0391   -0.0751
          31   -0.1014    0.0834    0.0412   -0.1130    0.0899   -0.0706   -0.0430    0.0037
          32   -0.2016    0.0573    0.1962   -0.1226    0.0369   -0.0043   -0.0215    0.0206
          33   -0.0736   -0.1062    0.2398    0.0966    0.1403    0.0071    0.0636    0.0406
          34   -0.1942   -0.0915    0.2563   -0.1686    0.2476   -0.1243    0.0014    0.0841
          35   -0.0245   -0.0790    0.0491   -0.0171    0.0033   -0.0457   -0.0196    0.0182
          36   -0.0734    0.3503   -0.0237    0.0898   -0.1195    0.1382   -0.0257   -0.0996
          37   -0.1204    0.0162   -0.1201   -0.0269    0.0028   -0.0409   -0.0228   -0.0100
          38   -0.1429    0.0083    0.0404   -0.0769    0.0314    0.0952    0.0456   -0.0329
          39    0.0163   -0.0265   -0.0467   -0.0345    0.1379    0.1244    0.0530   -0.0606
          40   -0.2010    0.0237   -0.1315   -0.0922   -0.0180   -0.0958    0.0282   -0.0445
          41   -0.0778    0.0030    0.0455   -0.0144    0.0570    0.1503   -0.0040    0.0014
          42   -0.0803    0.0201   -0.1579    0.1208    0.3372    0.3171   -0.0717    0.0631
          43   -0.0870   -0.0123   -0.0182   -0.1313   -0.1118   -0.1018    0.0844   -0.1141
          44   -0.1672   -0.0021    0.0515   -0.2106   -0.0792   -0.0814    0.1312   -0.1005
          45    0.0569   -0.0544    0.0592   -0.1202    0.0390    0.0960    0.1496   -0.1571
          46   -0.1612    0.0533   -0.2563    0.1184    0.1593    0.0484   -0.1727    0.1336
          47   -0.2406    0.0333    0.0213   -0.0267    0.1351    0.2398    0.0289   -0.0111
          48    0.0571   -0.0482    0.0137   -0.1076    0.0478    0.0521    0.1192   -0.1258
          49    0.1520    0.2112    0.0359    0.1219    0.0966    0.0444    0.0956   -0.0480
          50    0.1236    0.0758    0.0165    0.0830   -0.0765    0.0739    0.0247   -0.0473
          51   -0.0755   -0.0760    0.1356    0.0690    0.0922    0.0283    0.0541   -0.0874
          52    0.0914    0.0395   -0.0061    0.0033    0.0988   -0.0633    0.0214    0.0094
          53    0.0885   -0.1065   -0.0367   -0.0065   -0.0904   -0.0205   -0.0522   -0.0083
          54    0.0372   -0.0686    0.1044    0.2084    0.0287    0.1069    0.0681   -0.1627
          55    0.0574    0.1066   -0.0178   -0.0907    0.1068   -0.1168   -0.0517    0.1136
          56    0.1859    0.1221   -0.0456    0.0803   -0.1360    0.0609   -0.0760    0.0196
          57   -0.1619   -0.1723    0.0859   -0.1259    0.1006   -0.1197   -0.0830    0.0613
          58   -0.0347   -0.2620    0.0180    0.0132   -0.0762    0.1244   -0.0138   -0.2176
          59    0.0809    0.0851   -0.0808    0.0357    0.0720   -0.1667   -0.1039    0.0481
          60    0.0586   -0.1710    0.0192   -0.0034    0.0257   -0.0784    0.0218    0.1567
          61   -0.0480   -0.0599   -0.0531    0.0373   -0.0873    0.0557    0.4187    0.5792
          62    0.0085    0.1814   -0.2336    0.0022   -0.1899    0.0641    0.1610    0.2485
          63    0.0544   -0.1748    0.0134   -0.0070    0.0106   -0.0623    0.0169    0.1326
          64   -0.0287   -0.1822   -0.1064    0.0253   -0.2563    0.2474    0.1240   -0.1367
          65    0.1123    0.0609   -0.0312    0.0526    0.1667   -0.2584   -0.1842    0.0101
          66   -0.0063   -0.1087   -0.1063   -0.0370   -0.2026    0.1318    0.2132    0.2562
          67    0.1118    0.0818    0.1460   -0.1684   -0.1437   -0.0171    0.0637   -0.0161
          68    0.0482   -0.0627    0.0297    0.1270    0.0597    0.0229    0.0382   -0.0503
          69    0.2071    0.1088    0.1283   -0.1011    0.0039   -0.0454    0.0438   -0.0083
          70    0.0625    0.0346    0.0541    0.0292   -0.0528   -0.0218   -0.0105    0.0413
          71    0.1060   -0.0777    0.0363    0.0196    0.0012    0.0140    0.0803   -0.1034
          72    0.2690    0.0898    0.1312   -0.2122   -0.0572   -0.0565    0.0859   -0.0640
          73   -0.0421    0.0821    0.0608   -0.0295   -0.0474   -0.0336    0.0201    0.0187
          74   -0.0831   -0.0572   -0.0288    0.3682    0.1892    0.0302   -0.0501    0.0471
          75    0.1947    0.1069    0.1163   -0.1345   -0.0060   -0.0549    0.0590   -0.0299
          76    0.0511   -0.0274    0.0704   -0.0535   -0.0410    0.1833   -0.1502    0.0369
          77    0.0760   -0.0137   -0.0440   -0.0750    0.0109   -0.0405   -0.0149    0.0799
          78   -0.1794    0.0104    0.1877    0.2095   -0.2130   -0.1787   -0.0557    0.0734
          79    0.2012   -0.0447    0.2509   -0.1202   -0.0186    0.3650   -0.3115    0.1801
          80    0.1728   -0.0249    0.0727   -0.1174    0.0233    0.0757   -0.1209    0.1750
          81   -0.2414    0.0046   -0.0251    0.0085   -0.0739   -0.0883    0.1917   -0.1290
          82    0.0485    0.0059    0.0996    0.3758   -0.1265   -0.2765    0.0175   -0.0605
          83    0.0405   -0.0025   -0.2138   -0.0343    0.1108   -0.1931    0.3218   -0.1658
          84   -0.1648    0.0075    0.2583    0.2151   -0.2585   -0.1414   -0.1838    0.1686


   Root No.      17        18        19        20        21        22        23        24

                17 A      18 A      19 A      20 A      21 A      22 A      23 A      24 A   

                   0.0       0.0       0.0       0.0       0.0       0.0       0.1       0.1
  
           1    0.0113   -0.1166    0.0668    0.0034    0.0061   -0.0332    0.0053   -0.0402
           2   -0.0236   -0.0414   -0.0140   -0.0153   -0.0621    0.0192   -0.0489    0.0120
           3   -0.0080    0.0295   -0.0692    0.0197    0.0831   -0.0105    0.2343    0.1489
           4    0.0111   -0.1168    0.0671    0.0051    0.0060   -0.0332    0.0070   -0.0404
           5    0.0038    0.0019   -0.0160   -0.0132   -0.0608    0.0038    0.0551    0.0275
           6   -0.0022    0.1148    0.0041   -0.0205   -0.2581    0.0122   -0.0863   -0.1197
           7   -0.0029   -0.0952    0.0392   -0.0039    0.0600    0.0025   -0.0893   -0.0580
           8   -0.0311   -0.0207   -0.0341   -0.0202   -0.0230    0.0398   -0.1045   -0.0001
           9    0.0293    0.0224   -0.0552    0.0128    0.1044   -0.0448    0.1691    0.1218
          10    0.0537   -0.0160    0.0156   -0.0388    0.0611   -0.0425    0.0684   -0.0319
          11    0.0296    0.0703   -0.0500   -0.0410   -0.0182    0.0028    0.0871    0.0367
          12   -0.0110    0.0442   -0.0261    0.0056   -0.2176    0.0201   -0.0760   -0.1296
          13    0.1538    0.1753   -0.1240   -0.2724    0.2745   -0.0384   -0.1025    0.0802
          14    0.0877    0.2523   -0.0795   -0.1925    0.0576    0.0090   -0.0064    0.0702
          15   -0.0290   -0.0427   -0.0399    0.0606   -0.2226    0.0159   -0.0454   -0.1273
          16    0.0510   -0.0622   -0.0175    0.0020    0.3074    0.0449   -0.1505   -0.1789
          17   -0.0320    0.0366   -0.1000   -0.0154    0.1542    0.0721   -0.1146   -0.0533
          18    0.0750    0.0289   -0.0786    0.0149    0.2421   -0.0247    0.1200    0.0401
          19   -0.0339   -0.1595    0.1180    0.1525   -0.1461   -0.0476    0.2874   -0.1717
          20   -0.0106   -0.0754   -0.0555    0.0949   -0.0418   -0.0043    0.2513   -0.0190
          21    0.0158    0.0754   -0.0681   -0.0486   -0.1456    0.0207   -0.1358   -0.0832
          22   -0.0771   -0.0892    0.0724   -0.0113   -0.1467    0.0208   -0.0431    0.1019
          23   -0.0275   -0.0778    0.0193   -0.0291   -0.1821   -0.0294   -0.1700    0.0364
          24    0.0171   -0.0061   -0.0185    0.0062   -0.0260   -0.0735    0.1467    0.1786
          25   -0.0383    0.0357    0.0020   -0.0035    0.0420    0.0944    0.0751    0.0285
          26   -0.0002   -0.0291   -0.0077   -0.0249   -0.0979   -0.0093   -0.1456   -0.0273
          27    0.0848   -0.0363    0.0012    0.0101    0.0021   -0.1620    0.0273    0.0067
          28   -0.1315    0.1174   -0.0450   -0.0083    0.1697    0.2141    0.1496    0.0129
          29   -0.0131   -0.0685    0.0145   -0.0273   -0.0964   -0.0592   -0.2685   -0.1512
          30    0.0436   -0.0144   -0.0118    0.0078    0.0541   -0.1269    0.0243   -0.0337
          31   -0.0437    0.0291    0.0059   -0.0041    0.0328    0.0930    0.0692    0.0339
          32    0.0574    0.0620   -0.0555   -0.0181    0.0170    0.0288   -0.0490   -0.0757
          33    0.1941   -0.1005    0.0413    0.0188   -0.1046   -0.2552   -0.0177    0.0191
          34    0.0777    0.0489   -0.0005    0.0061    0.0415    0.0288    0.1049    0.0014
          35   -0.0268   -0.0576    0.0037   -0.0292   -0.1775   -0.0015   -0.1231    0.0997
          36    0.0505   -0.0200   -0.0068    0.0093    0.0685   -0.1372   -0.0066   -0.0867
          37   -0.0037   -0.0188    0.0126   -0.0227   -0.0684   -0.0054   -0.0118   -0.0851
          38    0.0096   -0.0140   -0.1244    0.0057    0.0475    0.0167    0.0952    0.0449
          39    0.0203   -0.0258   -0.0766    0.0314   -0.0134   -0.0018   -0.0132   -0.0756
          40    0.0109    0.0411   -0.0658   -0.0907   -0.0262    0.0216   -0.1935   -0.0372
          41   -0.0035   -0.0655   -0.0549    0.0558    0.0133   -0.0063    0.2501    0.0041
          42    0.0180    0.0167   -0.0206   -0.1529    0.0707    0.0019   -0.0946   -0.0324
          43    0.0024   -0.0780   -0.0224    0.1213   -0.0407   -0.0182    0.0523   -0.0924
          44    0.0227    0.0590   -0.2182    0.0029    0.0101    0.0470   -0.0848    0.0795
          45    0.0245   -0.1018   -0.0980    0.1853    0.0243   -0.0210    0.0884   -0.0896
          46   -0.0141    0.0544    0.0821   -0.2156   -0.1043    0.0064   -0.0934   -0.0761
          47    0.0193   -0.0095   -0.1426   -0.0851    0.1844    0.0214    0.0350    0.0971
          48    0.0221   -0.0577   -0.0998    0.1353   -0.0318   -0.0084    0.0348   -0.0927
          49   -0.1315    0.0407    0.0475    0.0243   -0.0948    0.1075    0.0991    0.1330
          50   -0.1387    0.0671   -0.0194    0.0145   -0.0369   -0.1509    0.0631    0.1243
          51   -0.2604    0.0537    0.0224    0.0184   -0.0529    0.1908    0.0472    0.0888
          52   -0.3019    0.0800   -0.0556   -0.0139    0.0588   -0.2492   -0.0173   -0.0796
          53   -0.3379    0.0931   -0.1258   -0.0218    0.1651   -0.4360   -0.0950   -0.1622
          54   -0.3121   -0.0109    0.0380    0.0343    0.0797    0.5416   -0.0774   -0.1297
          55    0.2983   -0.0339   -0.0020    0.0169   -0.0145   -0.1249    0.0039   -0.0077
          56    0.5294   -0.1405    0.0378    0.0605    0.0593    0.3115   -0.0839   -0.0890
          57    0.1439   -0.0172   -0.0225    0.0123    0.0227   -0.0220   -0.0414   -0.0420
          58    0.1045    0.1659    0.0227   -0.0640   -0.2181    0.0066    0.0578    0.2869
          59   -0.0753   -0.2045   -0.0085    0.0196   -0.0135    0.0518   -0.0461    0.2235
          60   -0.0231   -0.1213   -0.0236    0.0016    0.0719    0.0364   -0.0077    0.0666
          61   -0.0548   -0.1502   -0.0619    0.0376    0.1281    0.0370   -0.0390   -0.0809
          62   -0.0773   -0.0490   -0.0580   -0.0010   -0.0778    0.0736    0.0027    0.1659
          63   -0.0159   -0.0979   -0.0230   -0.0038    0.0555    0.0364   -0.0014    0.0778
          64    0.1029    0.2222    0.0440   -0.0893   -0.2443   -0.0342    0.0673    0.2478
          65   -0.0846   -0.2858    0.0093    0.0318    0.0297    0.0441   -0.0702    0.2383
          66   -0.0074    0.0497   -0.0598   -0.0254   -0.0141    0.0508    0.0426    0.0354
          67   -0.0108   -0.0291    0.0039    0.1028   -0.0484   -0.0041   -0.0028   -0.1180
          68    0.0061   -0.1047    0.0605   -0.0060   -0.0150   -0.0330    0.1462   -0.1419
          69    0.0064    0.1286   -0.0358    0.1319    0.0137    0.0075   -0.1407    0.0882
          70    0.0252    0.1728   -0.0656    0.4823    0.0026   -0.0136   -0.1982    0.0297
          71   -0.0123   -0.2662    0.1017   -0.3101   -0.0307   -0.0281    0.2410   -0.2188
          72   -0.0123   -0.0367    0.0054   -0.1811   -0.0049    0.0130   -0.0569    0.0117
          73   -0.0005    0.0009    0.0057   -0.1240   -0.0271    0.0105    0.0624   -0.0714
          74    0.0455    0.1771   -0.0150    0.4553    0.0362   -0.0405   -0.0042    0.0146
          75   -0.0036    0.0388   -0.0075   -0.1234    0.0042    0.0158   -0.0610    0.0503
          76   -0.0647   -0.2011    0.1877    0.0248    0.0445   -0.0593   -0.1352    0.2138
          77   -0.0004    0.2064    0.3517    0.0089    0.0102    0.0266    0.0731   -0.1024
          78   -0.0107    0.0863    0.1434   -0.0797    0.0184    0.0026    0.0237   -0.0355
          79   -0.0445   -0.0228    0.0434    0.0292    0.0425   -0.0217   -0.0942    0.0648
          80    0.0117    0.3234    0.2652    0.0107    0.0071    0.0523    0.1030   -0.2050
          81   -0.0155   -0.1169    0.4568    0.0359    0.2200   -0.1062   -0.1571    0.2281
          82    0.0515    0.0052   -0.3764   -0.0461   -0.0979    0.0376    0.0611   -0.0650
          83    0.0722    0.1612    0.3154    0.0896    0.1419   -0.0218    0.0118   -0.0287
          84   -0.0341    0.1171    0.1288   -0.1170   -0.0438    0.0285    0.0611   -0.0846


   Root No.      25        26        27        28        29        30        31        32

                25 A      26 A      27 A      28 A      29 A      30 A      31 A      32 A   

                   0.1       0.1       0.1       0.1       0.1       0.2       0.2       0.3
  
           1    0.0198    0.0701    0.0238    0.0064   -0.0846    0.0498   -0.0187   -0.1948
           2    0.0233   -0.0544    0.0565    0.0491   -0.0697    0.0654    0.0143   -0.1499
           3   -0.0455   -0.0958    0.1461    0.0356   -0.0095    0.0529   -0.1346   -0.1823
           4    0.0193    0.0696    0.0208    0.0056   -0.0849    0.0494   -0.0196   -0.1954
           5   -0.0116   -0.0896   -0.0709    0.0106   -0.0997    0.0617   -0.0169   -0.1528
           6    0.0307   -0.1650   -0.0971   -0.0020   -0.0322    0.0162    0.1623    0.0688
           7    0.0590    0.1153    0.0934    0.0556   -0.0908   -0.0206   -0.0997   -0.0050
           8    0.0428   -0.0353    0.0945    0.0863   -0.0854    0.0326    0.0025   -0.0290
           9   -0.0185   -0.0709    0.1552    0.0421   -0.0241    0.0477    0.0742    0.0149
          10   -0.0132   -0.0028   -0.0743    0.0176   -0.1454   -0.0166    0.0370   -0.0414
          11   -0.0323   -0.1343   -0.1240    0.0275   -0.1421    0.0195   -0.0364   -0.0509
          12    0.0413   -0.1215   -0.0917   -0.0043    0.0025    0.0062   -0.0954    0.0377
          13   -0.0294   -0.1128   -0.0270   -0.0161   -0.1401   -0.0628   -0.0207    0.1433
          14   -0.0309   -0.1952   -0.0791   -0.0157   -0.1464    0.0016    0.1415    0.0325
          15    0.0364   -0.1013   -0.1104    0.0158    0.0049    0.0074   -0.2313    0.0150
          16    0.2691    0.1213   -0.0581    0.0214   -0.0731   -0.0852   -0.0805    0.1306
          17    0.1514   -0.0362    0.0116    0.0693   -0.0656   -0.0497   -0.1821    0.0261
          18    0.1188   -0.0639    0.0592    0.0199   -0.0162    0.0209    0.1522    0.1076
          19   -0.0231    0.0188   -0.2264    0.1430   -0.1961   -0.0238    0.1635    0.0135
          20   -0.0473   -0.0354   -0.1673    0.0868   -0.1590   -0.0144   -0.1443    0.0139
          21    0.0409   -0.1262   -0.0476   -0.0378    0.0143    0.0027   -0.1639    0.0285
          22   -0.2051    0.1342    0.3235    0.1353   -0.1149   -0.0850   -0.2243    0.0843
          23   -0.0657    0.0330    0.1853    0.1251   -0.1111    0.0029    0.0941    0.0480
          24   -0.1329   -0.0331    0.2574    0.0814   -0.0427    0.0176    0.1089    0.0824
          25   -0.0608    0.0039    0.0449    0.0066   -0.0061   -0.0192   -0.0805    0.0212
          26    0.0203   -0.0126    0.0251    0.0574   -0.0579    0.0250    0.1370    0.0040
          27   -0.0111    0.0347    0.0240   -0.0134    0.0131   -0.0160   -0.0415    0.0175
          28   -0.0705   -0.0780   -0.0253   -0.0291    0.0272    0.0346    0.0721    0.0131
          29    0.0495    0.0738   -0.0838    0.0187   -0.0460   -0.0250   -0.1007   -0.0455
          30   -0.0079    0.0258   -0.0333   -0.0386    0.0301   -0.0081   -0.0552    0.0004
          31   -0.0694    0.0122    0.0662    0.0161   -0.0148   -0.0242   -0.0981    0.0305
          32    0.1469   -0.1264   -0.2168   -0.0530    0.0387    0.0968    0.3640   -0.0889
          33    0.0161    0.0885    0.0562    0.0015   -0.0019   -0.0575   -0.1669    0.0193
          34    0.0359   -0.0237   -0.0882   -0.0574    0.0468   -0.0080   -0.0704   -0.0355
          35   -0.0753   -0.0073    0.2656    0.1672   -0.1380    0.0235    0.2378    0.1011
          36    0.0237    0.0445   -0.1104   -0.0731    0.0530   -0.0192   -0.1365   -0.0348
          37    0.0208    0.0314   -0.0247    0.0242   -0.0147   -0.0043    0.1129    0.0063
          38   -0.0267    0.0265   -0.0105    0.0105   -0.0461    0.0058   -0.1257    0.0020
          39    0.0230    0.0729    0.0438   -0.0417    0.0107    0.0129    0.0445    0.0032
          40    0.0516    0.0725    0.1300   -0.0713    0.1146    0.0181    0.1280   -0.0208
          41   -0.0526   -0.0049   -0.1410    0.0934   -0.1561   -0.0127   -0.1328    0.0205
          42    0.0337    0.1158    0.1260   -0.0380    0.0894    0.0262    0.1395   -0.0180
          43    0.0111    0.1054    0.0008    0.0118   -0.0359   -0.0007    0.2528    0.0054
          44    0.0005   -0.0425    0.0580   -0.0663    0.0464    0.0143   -0.3299    0.0209
          45    0.0077    0.1657    0.0603   -0.0370   -0.0246    0.0168    0.2350   -0.0002
          46    0.0319   -0.0779   -0.0783    0.0629    0.0053   -0.0125   -0.0371    0.0008
          47   -0.0163    0.1896    0.1673   -0.0363    0.0562    0.0320    0.0864   -0.0522
          48    0.0164    0.0804    0.0240   -0.0457   -0.0220    0.0108    0.0682    0.0172
          49    0.3372   -0.0250    0.0539    0.0336   -0.0329    0.0002   -0.0289    0.0035
          50    0.4071   -0.0139    0.0592    0.0327   -0.0253    0.0001    0.0021    0.0320
          51    0.2424   -0.0352    0.0414    0.0247   -0.0279    0.0080   -0.0068    0.0153
          52   -0.2146    0.0279   -0.0647   -0.0380    0.0330   -0.0125    0.0043   -0.0182
          53   -0.3456    0.0443   -0.0969   -0.0592    0.0573   -0.0144    0.0423    0.0008
          54   -0.3533   -0.0271   -0.0618   -0.0298    0.0104    0.0177    0.0096   -0.0146
          55   -0.0656    0.0144   -0.0104   -0.0071    0.0091   -0.0153   -0.0135   -0.0128
          56   -0.2280   -0.0098   -0.0197   -0.0078    0.0044    0.0068    0.0111    0.0019
          57   -0.1305    0.0019   -0.0187   -0.0133    0.0117   -0.0081    0.0090    0.0010
          58   -0.0493    0.0977   -0.1959   -0.1100    0.1983   -0.5534    0.0935   -0.0660
          59    0.0185    0.1710   -0.1609   -0.1045    0.1793   -0.0356    0.0195    0.0408
          60    0.0520    0.0700   -0.0981   -0.0591    0.0742    0.0567   -0.0039    0.0198
          61    0.0834    0.0022   -0.0196    0.0055   -0.0276    0.1465   -0.0222    0.0265
          62   -0.0587    0.0712   -0.0369   -0.0166    0.0796   -0.3216    0.0372   -0.0059
          63    0.0450    0.0682   -0.1004   -0.0599    0.0798    0.0098    0.0024    0.0128
          64   -0.1292    0.1020   -0.1184   -0.1171    0.1328    0.6338   -0.0619    0.1000
          65    0.0519    0.2169   -0.1996   -0.1379    0.2137    0.1731   -0.0038    0.0737
          66   -0.0224   -0.0187   -0.0049    0.0105   -0.0006   -0.2462    0.0214   -0.0323
          67    0.0181   -0.1794    0.1269   -0.0980    0.2200   -0.0436   -0.0076    0.5599
          68    0.0066   -0.2068    0.1180   -0.1098    0.2110   -0.0335   -0.0043    0.1586
          69   -0.0035    0.0857   -0.0792    0.0577   -0.1125   -0.0026    0.0055    0.1653
          70    0.0250   -0.1980    0.1943   -0.1999    0.1406    0.0148   -0.0101   -0.4700
          71    0.0259   -0.2735    0.1992   -0.1730    0.3074   -0.0211   -0.0111   -0.1460
          72    0.0208    0.0116    0.0134   -0.0190   -0.0128    0.0138    0.0016   -0.2425
          73    0.0049    0.0036    0.0230    0.0341    0.0608    0.0031    0.0003   -0.0842
          74   -0.0243   -0.0877    0.0137   -0.0245    0.0327   -0.0227   -0.0011    0.1467
          75    0.0027    0.1140   -0.0825    0.0797   -0.1116    0.0115    0.0076   -0.0775
          76   -0.0428   -0.2369   -0.0178   -0.3880   -0.2976   -0.0177    0.0221    0.0570
          77    0.0257    0.1936    0.0993   -0.3968   -0.2077   -0.0254   -0.0322    0.0393
          78    0.0052    0.0401   -0.0047    0.0824    0.0573    0.0048   -0.0088   -0.0161
          79   -0.0154   -0.1156   -0.0666    0.4189    0.2746    0.0313   -0.0005   -0.0357
          80    0.0447    0.2811    0.0714    0.1162    0.1597    0.0063   -0.0485   -0.0187
          81   -0.0501   -0.2751   -0.1114    0.2147    0.0602    0.0040    0.0196   -0.0132
          82    0.0013    0.0476   -0.0057    0.1336    0.0964    0.0237    0.0079   -0.0163
          83    0.0001    0.0648   -0.0173    0.2505    0.1698    0.0087   -0.0199   -0.0229
          84    0.0190    0.1139    0.0455   -0.1533   -0.0731   -0.0068   -0.0171    0.0049


   Root No.      33        34        35        36        37        38        39        40

                33 A      34 A      35 A      36 A      37 A      38 A      39 A      40 A   

                   0.3       0.4       0.5       0.9       0.9       1.0       1.1       1.2
  
           1   -0.1485    0.3174   -0.1839   -0.0015   -0.0257   -0.0495    0.0498    0.1127
           2    0.0459    0.2514   -0.0458    0.0178    0.0071   -0.0529    0.0521   -0.0405
           3    0.2108    0.3621    0.3723   -0.0139    0.0788    0.0315    0.0089    0.1949
           4   -0.1480    0.3167   -0.1876   -0.0004   -0.0295   -0.0396    0.0495    0.0972
           5    0.0220    0.1974   -0.2863    0.0345   -0.0121    0.1186    0.0576   -0.2536
           6    0.2191   -0.1864   -0.3683    0.0673   -0.0279   -0.2342   -0.0466    0.5035
           7   -0.0306    0.0335   -0.0730   -0.0157   -0.0720   -0.1319   -0.0431    0.1348
           8    0.0962    0.0690    0.0695    0.0117    0.0054   -0.0827   -0.0189   -0.0249
           9   -0.0587    0.0374   -0.0083    0.0178    0.1493   -0.0866   -0.0370    0.0465
          10   -0.0582    0.0577    0.0206    0.0030   -0.0169    0.0611   -0.0743    0.0373
          11    0.0562    0.0181   -0.1560    0.0614   -0.0067    0.1668   -0.0229   -0.2822
          12   -0.0501   -0.0159    0.0148    0.1514   -0.0077    0.0234    0.0250   -0.0509
          13   -0.1141   -0.0758    0.4016    0.1813    0.0006   -0.0761   -0.0393    0.1363
          14    0.3219   -0.0706   -0.2008   -0.1557    0.0128    0.0684    0.0262   -0.1327
          15   -0.2479    0.0149    0.1223    0.3403   -0.0181    0.0611   -0.0015   -0.1339
          16   -0.1212   -0.2193   -0.1756   -0.0080   -0.0043    0.0494    0.0047   -0.0557
          17    0.3972   -0.0292    0.2160   -0.0108   -0.2808    0.0131   -0.0314   -0.0190
          18   -0.2319   -0.1321   -0.1349    0.0307    0.2985    0.0283    0.0062   -0.1090
          19    0.0900   -0.1194    0.1316    0.0089   -0.0027    0.1713   -0.3175    0.1252
          20   -0.0811   -0.1054    0.0338    0.0248   -0.0028    0.1276   -0.1722   -0.0631
          21   -0.1375    0.0227    0.0271    0.1126   -0.0062   -0.0085    0.0865   -0.0925
          22    0.1128   -0.1394   -0.0491   -0.0064   -0.0599   -0.2345   -0.1953   -0.1318
          23   -0.0807   -0.0493    0.0450   -0.0022   -0.0176   -0.1204   -0.0958   -0.1228
          24   -0.1511   -0.0751   -0.0262    0.0116    0.1032   -0.1246   -0.1090   -0.1016
          25    0.0437   -0.0490   -0.0476    0.0040    0.0302   -0.0068   -0.0190   -0.0550
          26   -0.0803    0.0073    0.0857   -0.0020    0.0171    0.0020   -0.0097   -0.0338
          27   -0.0065   -0.0241   -0.0237   -0.0052   -0.0818    0.0014   -0.0070   -0.0269
          28   -0.0979   -0.0206   -0.0594   -0.0158   -0.2704    0.2850    0.2391    0.1206
          29    0.1804    0.0354    0.1180    0.0385    0.6050    0.1472    0.0891    0.1902
          30    0.0187   -0.0047   -0.0195   -0.0037   -0.0679    0.1570    0.1229    0.1032
          31    0.0534   -0.0650   -0.0588    0.0076    0.0623    0.0233   -0.0003   -0.0682
          32   -0.2288    0.1736    0.1708   -0.0341   -0.2314   -0.2945   -0.2160    0.0300
          33    0.1057   -0.0424   -0.0360   -0.0194   -0.3213    0.2514    0.2035    0.0921
          34    0.0687    0.0258   -0.0620    0.0337    0.3544   -0.0196   -0.0054   -0.0323
          35   -0.2311   -0.1050    0.1015   -0.0183   -0.0944    0.3253    0.1994    0.1596
          36    0.1123    0.0311   -0.0280   -0.0071   -0.1642   -0.2529   -0.1852   -0.2140
          37    0.0542   -0.0155    0.0831   -0.0131    0.0054    0.0115   -0.0237    0.0287
          38   -0.0613   -0.0502   -0.0411   -0.0199   -0.0002   -0.0141   -0.0141    0.0004
          39   -0.0046    0.0121    0.0291   -0.0885    0.0075   -0.0003    0.0166   -0.0172
          40    0.0616    0.0996   -0.0071    0.1032   -0.0057    0.2723   -0.2748   -0.1533
          41   -0.0635   -0.1531    0.0358   -0.1374    0.0110   -0.2362    0.1942    0.1574
          42    0.0744    0.0586   -0.0274   -0.3661    0.0265    0.1801   -0.2373   -0.0052
          43    0.1660   -0.0297    0.1040   -0.0342    0.0171   -0.1333    0.2653   -0.1125
          44   -0.2238    0.0332   -0.1396   -0.4163    0.0144   -0.0488   -0.0836    0.2287
          45    0.1492   -0.0158    0.0600   -0.0653    0.0186   -0.1409    0.3297   -0.2170
          46   -0.0727   -0.0223    0.1319   -0.2366    0.0305   -0.1938    0.3796   -0.1858
          47    0.1268    0.0003   -0.1890    0.5825   -0.0552   -0.1009    0.0574    0.1577
          48    0.0133    0.0021    0.0428   -0.1650    0.0123    0.1092   -0.1685    0.0295
          49    0.0368    0.0022    0.0122    0.0003   -0.0063    0.0004   -0.0013   -0.0009
          50   -0.0154   -0.0238   -0.0124    0.0009    0.0063    0.0033    0.0020   -0.0056
          51    0.0167   -0.0067    0.0061    0.0007    0.0034   -0.0014   -0.0019   -0.0022
          52   -0.0038    0.0153    0.0011   -0.0009   -0.0048   -0.0020   -0.0011    0.0045
          53   -0.0616   -0.0047   -0.0243    0.0005    0.0120    0.0010    0.0028   -0.0037
          54    0.0139    0.0221    0.0127   -0.0008   -0.0018   -0.0049   -0.0036    0.0056
          55    0.0154    0.0097    0.0058   -0.0003   -0.0119    0.0011    0.0007    0.0026
          56   -0.0055    0.0052   -0.0001   -0.0002    0.0074   -0.0017   -0.0007    0.0009
          57   -0.0089   -0.0024   -0.0035    0.0006    0.0006    0.0007    0.0012   -0.0016
          58   -0.0365    0.0590    0.0001    0.0001    0.0095   -0.0020    0.0058    0.0132
          59   -0.0051   -0.0437    0.0271   -0.0011    0.0026    0.0001   -0.0001    0.0086
          60    0.0001   -0.0256    0.0165   -0.0010    0.0009    0.0025   -0.0011   -0.0017
          61    0.0018   -0.0282   -0.0033   -0.0001   -0.0019    0.0046    0.0008   -0.0030
          62   -0.0152    0.0019    0.0057   -0.0021    0.0002   -0.0030   -0.0038   -0.0030
          63   -0.0017   -0.0180    0.0176   -0.0009    0.0021    0.0026    0.0008    0.0026
          64    0.0467   -0.0978    0.0431   -0.0011   -0.0005    0.0067   -0.0037   -0.0093
          65    0.0026   -0.0763    0.0507   -0.0026    0.0015    0.0005   -0.0015    0.0096
          66   -0.0098    0.0284   -0.0097    0.0004    0.0002    0.0024    0.0024   -0.0014
          67    0.0476    0.3065   -0.0418    0.0096    0.0036   -0.0111    0.0179    0.0045
          68    0.0261    0.0295   -0.0060    0.0050   -0.0017   -0.0033    0.0019   -0.0003
          69    0.0034    0.1365   -0.0271    0.0046    0.0000   -0.0004    0.0067   -0.0059
          70   -0.0324   -0.3093    0.0687    0.0004   -0.0010    0.0051   -0.0090   -0.0048
          71    0.0109   -0.1756    0.0311   -0.0051   -0.0004    0.0012   -0.0048    0.0071
          72   -0.0199   -0.1412    0.0149   -0.0029   -0.0009    0.0012   -0.0041    0.0009
          73   -0.0012   -0.0616    0.0045   -0.0068   -0.0007   -0.0001   -0.0043    0.0039
          74    0.0190    0.0626    0.0096    0.0015    0.0024   -0.0043    0.0011    0.0103
          75   -0.0128   -0.0171   -0.0131   -0.0017   -0.0024    0.0021   -0.0018   -0.0055
          76    0.0350    0.0048   -0.0017   -0.0007    0.0008    0.0002    0.0009   -0.0015
          77   -0.0562    0.0031    0.0551    0.0087    0.0001   -0.0070   -0.0001    0.0082
          78   -0.0103   -0.0066    0.0005    0.0035   -0.0008    0.0000   -0.0035    0.0049
          79    0.0215    0.0060   -0.0431   -0.0022   -0.0011    0.0077   -0.0058   -0.0021
          80   -0.0712    0.0060    0.0339    0.0110   -0.0007   -0.0029   -0.0028    0.0060
          81    0.0442   -0.0116   -0.0324   -0.0043   -0.0006    0.0033   -0.0014   -0.0017
          82    0.0099   -0.0014   -0.0146   -0.0082    0.0009    0.0006    0.0039   -0.0051
          83   -0.0246   -0.0072    0.0123    0.0091   -0.0014   -0.0021   -0.0055    0.0104
          84   -0.0301   -0.0021    0.0215    0.0046    0.0001   -0.0032   -0.0008    0.0046


   Root No.      41        42        43        44        45        46        47        48

                41 A      42 A      43 A      44 A      45 A      46 A      47 A      48 A   

                   1.4       1.6       1.7       1.8       1.8       2.0       2.5       2.6
  
           1   -0.0305   -0.0358   -0.0089    0.0223    0.0490    0.0468   -0.0346   -0.0003
           2   -0.3161    0.1104   -0.1015    0.0488    0.0465   -0.2206    0.0434    0.0030
           3    0.4320   -0.0012    0.0675    0.0529   -0.0311   -0.1558    0.1821   -0.0210
           4   -0.0303   -0.0428    0.0022    0.0154    0.0520    0.0805   -0.0529    0.0013
           5   -0.0591    0.0181    0.0839    0.0041    0.0157    0.1855    0.0115    0.0012
           6   -0.0919   -0.0004    0.0022   -0.0596    0.0987    0.1034    0.2742   -0.0193
           7    0.0970   -0.0343   -0.0423    0.0275   -0.1081   -0.1490    0.1705    0.0001
           8   -0.2617    0.1113   -0.1132    0.0083   -0.0133   -0.2554    0.0603   -0.0043
           9   -0.1750    0.0761   -0.0699   -0.0718    0.0246    0.1348   -0.0592    0.0135
          10    0.0369   -0.0726    0.0477   -0.1246    0.0290    0.1905   -0.1576    0.0105
          11    0.0679    0.0083    0.1221   -0.0432   -0.0555    0.1517    0.0293    0.0005
          12    0.1254    0.0172    0.0722    0.0839   -0.0745   -0.1619   -0.1463    0.0079
          13   -0.2411    0.0730    0.0361   -0.0249    0.0492   -0.0228    0.1187   -0.0067
          14    0.2776   -0.0336   -0.0585    0.0810   -0.0934   -0.2105   -0.1221    0.0062
          15   -0.0836    0.0773    0.1975    0.0155   -0.0441    0.0523    0.0314    0.0000
          16    0.2885   -0.0194    0.0597    0.0585   -0.0793   -0.0884    0.0941   -0.0116
          17   -0.2362   -0.1941    0.0550   -0.0834    0.0628    0.3443   -0.2093    0.0140
          18   -0.0303    0.1921   -0.0460   -0.0157    0.0233   -0.0250   -0.0410    0.0015
          19   -0.0265   -0.0054    0.0557   -0.2767    0.0124   -0.2300   -0.1497    0.0071
          20   -0.0151   -0.0150   -0.0627   -0.1681   -0.0036   -0.0474    0.2848   -0.0146
          21    0.1065   -0.0116    0.0060    0.1006   -0.0541   -0.0314   -0.0863    0.0056
          22    0.1631    0.0368   -0.0129   -0.0417   -0.3204    0.1502    0.0346   -0.0003
          23   -0.0612   -0.0383   -0.0349    0.0215   -0.1791   -0.1938   -0.0362   -0.0082
          24   -0.0798   -0.0146   -0.0217   -0.0619   -0.1289    0.1751   -0.1535    0.0100
          25    0.0783    0.1536    0.0353    0.0010    0.3213    0.0735   -0.0071    0.0073
          26   -0.0117   -0.0422    0.0247    0.0561    0.1374   -0.2544   -0.0141   -0.0182
          27   -0.0111   -0.3246    0.1207    0.0723    0.1009    0.0047    0.0484   -0.0021
          28   -0.1390    0.1432   -0.1341   -0.0346   -0.2905   -0.1226   -0.0183   -0.0018
          29    0.0952    0.2062   -0.0610   -0.1043   -0.0908    0.2278   -0.0508    0.0095
          30   -0.0807   -0.3668    0.0591    0.0301   -0.2257    0.0938    0.0680   -0.0005
          31    0.0735    0.1877    0.0493    0.0122    0.4602    0.0608   -0.0194    0.0121
          32    0.2634    0.1134   -0.0141   -0.0762   -0.1629    0.2610    0.0176    0.0109
          33   -0.0239    0.4205   -0.1529   -0.0745   -0.0874   -0.0153   -0.0333    0.0134
          34   -0.2122   -0.3963    0.0475    0.0680   -0.1653   -0.1581    0.0125   -0.0166
          35    0.1541   -0.2466    0.1621    0.0687    0.3109    0.0482    0.0586   -0.0064
          36   -0.0088    0.0275    0.0474    0.0696    0.3133   -0.2104   -0.0004   -0.0093
          37   -0.0170    0.0322   -0.0508    0.3209   -0.0126    0.0290   -0.2443    0.0144
          38   -0.0056   -0.0241   -0.2062    0.1419    0.0239    0.1136    0.3472   -0.0206
          39    0.0555   -0.1187   -0.2925   -0.1239    0.0771   -0.0214   -0.1653    0.0094
          40   -0.0213   -0.0373   -0.2606    0.0829    0.0258    0.1028    0.3072   -0.0172
          41   -0.0170    0.0482   -0.0742    0.4860   -0.0105    0.1079   -0.0135   -0.0007
          42   -0.1418    0.1571    0.3852    0.0946   -0.0851    0.0086    0.0916   -0.0047
          43   -0.0779    0.1605    0.4079    0.1902   -0.1062    0.0190   -0.0198    0.0025
          44   -0.0186    0.0072    0.2345   -0.2941    0.0068   -0.1243   -0.1761    0.0089
          45    0.0101   -0.0374    0.0163   -0.3234    0.0168    0.0039    0.2619   -0.0150
          46    0.0433   -0.1227   -0.2307   -0.3027    0.0781    0.0002   -0.0191    0.0019
          47    0.1322   -0.0488    0.0414   -0.1407    0.0043   -0.1198   -0.2606    0.0139
          48    0.0094   -0.0813   -0.3823    0.2112    0.0698    0.0455   -0.2626    0.0159
          49   -0.0089   -0.0070    0.0020   -0.0020    0.0013    0.0083   -0.0025    0.0220
          50    0.0054    0.0141   -0.0042   -0.0004   -0.0065   -0.0026   -0.0174   -0.3611
          51   -0.0041   -0.0123    0.0027    0.0025   -0.0014   -0.0072    0.0278    0.4941
          52    0.0014   -0.0108    0.0034    0.0012    0.0028   -0.0018    0.0203    0.3767
          53    0.0131    0.0169   -0.0037    0.0043   -0.0001   -0.0177    0.0077   -0.0034
          54   -0.0018   -0.0095    0.0032   -0.0032    0.0050    0.0172   -0.0277   -0.4144
          55   -0.0068    0.0028   -0.0008   -0.0052    0.0036    0.0180   -0.0295   -0.4020
          56    0.0022   -0.0108    0.0027    0.0039   -0.0006   -0.0105    0.0238    0.3702
          57    0.0036    0.0127   -0.0038   -0.0002   -0.0026   -0.0055   -0.0012   -0.0854
          58   -0.0130    0.0033   -0.0040    0.0025    0.0063   -0.0102   -0.0013    0.0014
          59   -0.0034   -0.0009   -0.0018    0.0002    0.0031   -0.0098    0.0511   -0.0060
          60    0.0022   -0.0002    0.0002   -0.0020   -0.0008    0.0063   -0.0319    0.0031
          61    0.0035   -0.0044    0.0018   -0.0004   -0.0014    0.0019    0.0028   -0.0004
          62    0.0033    0.0026   -0.0006   -0.0026   -0.0016    0.0080   -0.0465    0.0051
          63    0.0000    0.0008   -0.0011   -0.0001    0.0016   -0.0032   -0.0178    0.0031
          64    0.0115   -0.0013    0.0031   -0.0025   -0.0017    0.0062   -0.0037   -0.0008
          65    0.0009   -0.0008   -0.0037   -0.0005    0.0007   -0.0076   -0.0043    0.0009
          66    0.0004   -0.0010    0.0015    0.0025    0.0018   -0.0056    0.0482   -0.0058
          67    0.0160   -0.0029   -0.0051    0.0039    0.0017    0.0041    0.0177   -0.0024
          68   -0.0024   -0.0042   -0.0037   -0.0085    0.0031    0.0188   -0.0399    0.0047
          69   -0.0018   -0.0014   -0.0043   -0.0017    0.0025    0.0040   -0.0101    0.0001
          70   -0.0041    0.0008   -0.0021   -0.0028   -0.0019   -0.0054   -0.0137    0.0022
          71    0.0188   -0.0022    0.0100    0.0033   -0.0045    0.0039    0.0121   -0.0017
          72   -0.0004    0.0019    0.0010    0.0038   -0.0024   -0.0096    0.0344   -0.0034
          73   -0.0025    0.0028    0.0068    0.0051   -0.0021    0.0011    0.0013    0.0000
          74    0.0107   -0.0002   -0.0005    0.0024   -0.0013   -0.0101    0.0314   -0.0033
          75   -0.0134    0.0008   -0.0008   -0.0032    0.0019    0.0036   -0.0279    0.0032
          76    0.0059   -0.0013   -0.0064    0.0024   -0.0002   -0.0048   -0.0029    0.0002
          77   -0.0143    0.0039    0.0089   -0.0059    0.0015    0.0013    0.0042   -0.0003
          78   -0.0003   -0.0035   -0.0113    0.0016    0.0033    0.0033    0.0007    0.0005
          79    0.0093   -0.0044   -0.0090    0.0036    0.0002    0.0024   -0.0003    0.0004
          80   -0.0158    0.0049    0.0115   -0.0012    0.0010    0.0057    0.0018   -0.0004
          81    0.0138   -0.0030   -0.0038    0.0033   -0.0035   -0.0073   -0.0092   -0.0001
          82    0.0029    0.0022    0.0092    0.0002   -0.0034   -0.0026   -0.0030   -0.0001
          83   -0.0064   -0.0035   -0.0123   -0.0014    0.0060    0.0069    0.0059    0.0005
          84   -0.0103    0.0034    0.0076   -0.0035    0.0012    0.0029    0.0050   -0.0003


   Root No.      49        50        51        52        53        54        55        56

                49 A      50 A      51 A      52 A      53 A      54 A      55 A      56 A   

                   2.6       2.6       2.6       2.8       3.2       3.4       4.5       5.0
  
           1   -0.0032    0.0009   -0.0029   -0.0451    0.0330   -0.2641    0.0004    0.0033
           2   -0.0159    0.0117    0.0155   -0.1946   -0.2637    0.0143    0.2406   -0.0073
           3    0.0029    0.0002    0.0127    0.2399   -0.1268    0.0205    0.0209   -0.0020
           4    0.0011   -0.0020   -0.0075   -0.0162    0.0286   -0.2639   -0.0088    0.0049
           5    0.0159   -0.0153   -0.0209    0.1209   -0.2843    0.0396   -0.2806    0.0061
           6   -0.0119   -0.0018   -0.0028    0.2208   -0.0886    0.0294    0.0185   -0.0056
           7   -0.0420    0.0226    0.0367   -0.2120    0.3663    0.3515   -0.3899    0.0015
           8   -0.0212    0.0118    0.0165   -0.1556    0.0326    0.3521    0.1669    0.0009
           9   -0.0178    0.0101    0.0100   -0.1851    0.2908    0.1100   -0.2123    0.0037
          10    0.0253   -0.0251   -0.0301    0.2833    0.3267    0.3186    0.5168   -0.0107
          11    0.0071   -0.0112   -0.0132    0.1715    0.0202    0.3731   -0.0860   -0.0079
          12   -0.0068    0.0052    0.0129   -0.1946    0.0909   -0.1838    0.0346    0.0035
          13   -0.0030    0.0100    0.0051   -0.0005   -0.2099   -0.0696   -0.1384    0.0028
          14   -0.0132    0.0091    0.0207   -0.2495    0.1148   -0.1715   -0.0434    0.0029
          15    0.0000   -0.0033   -0.0035    0.0320   -0.0812    0.1079   -0.1625    0.0004
          16    0.0036   -0.0035    0.0013    0.1212   -0.1709   -0.0477    0.0058   -0.0023
          17    0.0197   -0.0126   -0.0273    0.0345    0.1040   -0.2301   -0.0166    0.0026
          18    0.0093   -0.0046   -0.0067    0.0290   -0.1623   -0.0310    0.1992   -0.0005
          19    0.0066    0.0028   -0.0016   -0.1173   -0.1009   -0.0960   -0.0246    0.0019
          20   -0.0353    0.0136    0.0246   -0.1151    0.1099   -0.1530   -0.0069    0.0021
          21   -0.0072    0.0015    0.0072   -0.1099    0.2629   -0.0969    0.2570   -0.0012
          22    0.0089    0.0030    0.0034   -0.0386   -0.2566   -0.0043    0.1020    0.0073
          23    0.0179   -0.0179   -0.0193    0.2476    0.0042   -0.0820    0.1063   -0.0125
          24    0.0221   -0.0120   -0.0208    0.0755    0.1434   -0.2132   -0.1331    0.0004
          25   -0.0067    0.0074    0.0074   -0.1276   -0.0298    0.0314    0.0180    0.0003
          26    0.0152   -0.0201   -0.0215    0.3462    0.1554   -0.0920   -0.0635   -0.0017
          27   -0.0125    0.0097    0.0120   -0.1271   -0.0666    0.0513    0.0130   -0.0018
          28    0.0094   -0.0110   -0.0121    0.1735    0.0663   -0.0502   -0.0675    0.0023
          29    0.0042   -0.0000   -0.0031   -0.0180    0.0605   -0.0562   -0.0818    0.0030
          30   -0.0205    0.0187    0.0226   -0.2819   -0.1933    0.1363    0.2050   -0.0081
          31   -0.0067    0.0085    0.0081   -0.1656   -0.0350    0.0355    0.1436   -0.0130
          32   -0.0064    0.0113    0.0120   -0.1714   -0.0782    0.0360    0.0191    0.0009
          33    0.0068   -0.0054   -0.0074    0.0647    0.0288   -0.0241   -0.0021   -0.0003
          34    0.0021   -0.0068   -0.0061    0.1226    0.0320   -0.0234   -0.0467    0.0030
          35   -0.0112    0.0082    0.0107   -0.0699   -0.0196    0.0225   -0.0733    0.0094
          36    0.0081   -0.0103   -0.0108    0.1856    0.0804   -0.0434   -0.1012    0.0080
          37    0.0252   -0.0092   -0.0174    0.0170   -0.0783    0.0967   -0.0260   -0.0004
          38   -0.0331    0.0160    0.0182    0.0140    0.1114   -0.1205    0.0485    0.0002
          39    0.0191   -0.0056   -0.0164    0.0257   -0.0896    0.0690   -0.0204    0.0000
          40   -0.0283    0.0152    0.0151    0.0058    0.0794   -0.0961    0.0734   -0.0000
          41    0.0018    0.0032    0.0030    0.0360    0.0254   -0.0350    0.0800   -0.0003
          42   -0.0099   -0.0032    0.0148   -0.0176    0.0385   -0.0197    0.0050   -0.0001
          43    0.0000   -0.0095    0.0087   -0.0326    0.0298    0.0238   -0.0567    0.0006
          44    0.0160   -0.0113   -0.0071    0.0046   -0.0597    0.0319   -0.0012   -0.0003
          45   -0.0249    0.0047    0.0158   -0.0002    0.0535   -0.0811    0.0667   -0.0006
          46    0.0078   -0.0015   -0.0092    0.0331   -0.0962    0.0704   -0.0993    0.0003
          47    0.0208   -0.0064   -0.0144   -0.0217   -0.0330    0.0421   -0.0134   -0.0000
          48    0.0321   -0.0053   -0.0291    0.0537   -0.1880    0.1721   -0.1936    0.0004
          49    0.0011   -0.0002   -0.0009    0.0000   -0.0038   -0.0031    0.0029    0.0007
          50   -0.0023    0.0004    0.0022   -0.0055   -0.0042    0.0066    0.0017   -0.0038
          51    0.0037   -0.0011   -0.0033    0.0113   -0.0004   -0.0079   -0.0013    0.0055
          52    0.0026   -0.0009   -0.0021    0.0119    0.0073   -0.0071   -0.0019   -0.0061
          53   -0.0006    0.0003    0.0006   -0.0012   -0.0108    0.0067    0.0041    0.0044
          54   -0.0030    0.0009    0.0022   -0.0121    0.0085    0.0018   -0.0045   -0.0003
          55   -0.0019    0.0007    0.0017   -0.0116    0.0069   -0.0006   -0.0046    0.0060
          56    0.0021   -0.0008   -0.0019    0.0088    0.0002   -0.0024    0.0002   -0.0009
          57   -0.0011    0.0003    0.0007   -0.0009   -0.0061    0.0056    0.0042   -0.0053
          58   -0.0442    0.0006    0.0023   -0.0046    0.0043    0.0084   -0.0058   -0.0472
          59    0.5536    0.0008   -0.0262   -0.0375    0.0206    0.0081    0.0117    0.4333
          60   -0.3215   -0.0008    0.0148    0.0248   -0.0095   -0.0035    0.0000   -0.2489
          61    0.0390   -0.0001   -0.0017    0.0001    0.0008   -0.0017    0.0021    0.0163
          62   -0.4767   -0.0012    0.0223    0.0338   -0.0126   -0.0003    0.0020    0.0711
          63   -0.2098   -0.0001    0.0104    0.0153   -0.0029    0.0078    0.0095    0.6044
          64    0.0043   -0.0006   -0.0004    0.0074   -0.0042   -0.0060    0.0093    0.0287
          65   -0.0580    0.0005    0.0035   -0.0026    0.0057   -0.0019   -0.0058   -0.5018
          66    0.5432    0.0014   -0.0259   -0.0408    0.0168   -0.0030   -0.0073   -0.3515
          67   -0.0092   -0.0723   -0.1454   -0.0034   -0.0016    0.0043    0.0051    0.0000
          68    0.0332    0.2682    0.5425    0.0579   -0.0018    0.0042   -0.0154   -0.0019
          69    0.0072    0.0529    0.1071    0.0158   -0.0026    0.0017    0.0055   -0.0005
          70    0.0096    0.0805    0.1605    0.0062   -0.0015   -0.0068   -0.0056    0.0006
          71   -0.0100   -0.0852   -0.1711   -0.0100    0.0088    0.0023    0.0074    0.0013
          72   -0.0264   -0.2094   -0.4253   -0.0490    0.0054    0.0035   -0.0142   -0.0014
          73   -0.0003   -0.0071   -0.0119   -0.0018    0.0034    0.0023   -0.0043   -0.0004
          74   -0.0224   -0.1787   -0.3626   -0.0365    0.0025   -0.0005    0.0009    0.0005
          75    0.0191    0.1520    0.3092    0.0265   -0.0043   -0.0077    0.0119    0.0020
          76    0.0048   -0.2248    0.1100   -0.0104   -0.0030   -0.0027   -0.0009   -0.0012
          77   -0.0055    0.2185   -0.1093    0.0087   -0.0018    0.0004   -0.0014    0.0013
          78    0.0103   -0.4402    0.2181   -0.0117    0.0008   -0.0009    0.0026   -0.0012
          79    0.0007   -0.0431    0.0201   -0.0003    0.0047    0.0003    0.0000    0.0013
          80   -0.0052    0.2134   -0.1057    0.0105   -0.0025    0.0037    0.0031   -0.0022
          81   -0.0108    0.4585   -0.2265    0.0060    0.0075   -0.0038    0.0045   -0.0001
          82   -0.0067    0.2654   -0.1312    0.0056    0.0023    0.0001    0.0015   -0.0003
          83    0.0096   -0.4263    0.2113   -0.0060   -0.0039    0.0018   -0.0030    0.0006
          84    0.0001   -0.0131    0.0078    0.0045   -0.0059    0.0031   -0.0056    0.0012


   Root No.      57        58        59        60        61        62        63        64

[...]
 EFFECTIVE MASS      1.7352
 FORCE CONSTANT      0.6754

 VIBRATION         62   62A           ATOM PAIR      ENERGY CONTRIBUTION    RADIAL
 FREQUENCY          1793.29         C  4 -- O  5         +46.8% ( 92.6%)    100.0%
 TRANSITION DIPOLE   5.6332         C  4 -- O  7         +20.6% ( 61.5%)     47.8%
 TRAVEL (Ang.)       0.0842         N  2 -- C  4         +20.0% ( 60.6%)     34.2%
 REDUCED MASS        5.3081         C  3 -- O  6          +6.6% ( 34.8%)     99.9%
 EFFECTIVE MASS     13.3772
 FORCE CONSTANT     10.0575

 VIBRATION         63   63A           ATOM PAIR      ENERGY CONTRIBUTION    RADIAL
 FREQUENCY          1797.94         C  3 -- O  6         +45.8% ( 92.0%)     99.9%
 TRANSITION DIPOLE   9.9653         C  3 -- O  8         +20.7% ( 61.8%)     52.2%
 TRAVEL (Ang.)       0.0849         N  1 -- C  3         +20.3% ( 61.2%)     27.0%
 REDUCED MASS        5.2008         C  4 -- O  5          +6.4% ( 34.4%)     99.7%
 EFFECTIVE MASS     13.3404
 FORCE CONSTANT      9.9053

 VIBRATION         64   64A           ATOM PAIR      ENERGY CONTRIBUTION    RADIAL
 FREQUENCY          1883.03         N  1 -- N  2         +64.0% ( 99.2%)     99.3%
 TRANSITION DIPOLE   0.8651         N  2 -- C  4         +17.8% ( 52.4%)     34.3%
 TRAVEL (Ang.)       0.0724         N  1 -- C  3         +17.3% ( 51.5%)     30.4%
 REDUCED MASS        6.8271         C  3 -- O  6          +0.6% (  9.9%)     98.8%
 EFFECTIVE MASS     14.0050
 FORCE CONSTANT     14.2626

 VIBRATION         65   65A           ATOM PAIR      ENERGY CONTRIBUTION    RADIAL
 FREQUENCY          2428.86         O 17 -- H 18         +53.6% ( 76.1%)     96.6%
 TRANSITION DIPOLE   2.5433         O 17 -- H 19         +40.2% ( 65.9%)     97.2%
 TRAVEL (Ang.)       0.2417         O 26 -- H 27          +3.3% ( 18.8%)     96.8%
 REDUCED MASS        0.4751         O 26 -- H 28          +2.5% ( 16.3%)     96.9%
 EFFECTIVE MASS      1.5452
 FORCE CONSTANT      1.6514

 VIBRATION         66   66A           ATOM PAIR      ENERGY CONTRIBUTION    RADIAL
 FREQUENCY          2432.60         O 26 -- H 27         +52.9% ( 75.6%)     96.8%
 TRANSITION DIPOLE   1.8133         O 26 -- H 28         +40.6% ( 66.2%)     96.9%
 TRAVEL (Ang.)       0.2431         O 17 -- H 18          +3.1% ( 18.2%)     96.6%
 REDUCED MASS        0.4689         O 17 -- H 19          +2.4% ( 16.0%)     97.2%
 EFFECTIVE MASS      1.5419
 FORCE CONSTANT      1.6348

 VIBRATION         67   67A           ATOM PAIR      ENERGY CONTRIBUTION    RADIAL
 FREQUENCY          2452.36         O 20 -- H 21         +29.9% ( 56.6%)     97.3%
 TRANSITION DIPOLE   1.1079         O 20 -- H 22         +29.6% ( 56.3%)     97.0%
 TRAVEL (Ang.)       0.3173         O 23 -- H 25         +20.8% ( 47.3%)     97.1%
 REDUCED MASS        0.2731         O 23 -- H 24         +19.7% ( 46.0%)     97.0%
 EFFECTIVE MASS      1.5390
 FORCE CONSTANT      0.9676

 VIBRATION         68   68A           ATOM PAIR      ENERGY CONTRIBUTION    RADIAL
 FREQUENCY          2455.59         O 23 -- H 25         +30.4% ( 57.1%)     97.0%
 TRANSITION DIPOLE   2.0357         O 23 -- H 24         +28.5% ( 55.3%)     96.9%
 TRAVEL (Ang.)       0.3210         O 20 -- H 21         +20.1% ( 46.3%)     97.3%
 REDUCED MASS        0.2664         O 20 -- H 22         +19.7% ( 46.0%)     97.0%
 EFFECTIVE MASS      1.5394
 FORCE CONSTANT      0.9466

 VIBRATION         69   69A           ATOM PAIR      ENERGY CONTRIBUTION    RADIAL
 FREQUENCY          2639.54         C 13 -- H 15         +67.0% ( 85.1%)     99.7%
 TRANSITION DIPOLE   0.8647         C 13 -- H 14         +19.7% ( 46.1%)     90.5%
 TRAVEL (Ang.)       0.2212         C 13 -- H 16         +12.0% ( 36.1%)     82.3%
 REDUCED MASS        0.5220         O  7 -- C 13          +1.0% ( 10.2%)      1.1%
 EFFECTIVE MASS      1.4768
 FORCE CONSTANT      2.1428

 VIBRATION         70   70A           ATOM PAIR      ENERGY CONTRIBUTION    RADIAL
 FREQUENCY          2644.46         C  9 -- H 11         +52.9% ( 75.6%)     98.5%
 TRANSITION DIPOLE   0.9313         C  9 -- H 10         +44.9% ( 69.6%)     97.9%
 TRAVEL (Ang.)       0.2259         O  8 -- C  9          +1.0% ( 10.2%)      1.6%
 REDUCED MASS        0.4999         C  9 -- H 12          +0.9% ( 10.1%)      2.5%
 EFFECTIVE MASS      1.4753
 FORCE CONSTANT      2.0595

 VIBRATION         71   71A           ATOM PAIR      ENERGY CONTRIBUTION    RADIAL
 FREQUENCY          2646.43         C  9 -- H 12         +64.9% ( 83.7%)     99.7%
 TRANSITION DIPOLE   0.8198         C  9 -- H 10         +19.6% ( 46.0%)     89.5%
 TRAVEL (Ang.)       0.2259         C  9 -- H 11         +14.4% ( 39.4%)     85.3%
 REDUCED MASS        0.4993         O  8 -- C  9          +0.9% ( 10.1%)      0.4%
 EFFECTIVE MASS      1.4752
 FORCE CONSTANT      2.0604

 VIBRATION         72   72A           ATOM PAIR      ENERGY CONTRIBUTION    RADIAL
 FREQUENCY          2648.52         C 13 -- H 16         +50.9% ( 74.1%)     98.7%
 TRANSITION DIPOLE   0.8757         C 13 -- H 14         +46.3% ( 70.7%)     97.7%
 TRAVEL (Ang.)       0.2274         C 13 -- H 15          +1.4% ( 12.3%)     14.8%
 REDUCED MASS        0.4922         O  7 -- C 13          +0.9% ( 10.1%)      1.1%
 EFFECTIVE MASS      1.4711
 FORCE CONSTANT      2.0341

 VIBRATION         73   73A           ATOM PAIR      ENERGY CONTRIBUTION    RADIAL
 FREQUENCY          2672.60         O 17 -- H 19         +58.8% ( 70.4%)     94.5%
 TRANSITION DIPOLE   0.6439         O 17 -- H 18         +40.3% ( 58.3%)     93.8%
 TRAVEL (Ang.)       0.2245         C  9 -- H 11          +0.4% (  5.9%)     99.5%
 REDUCED MASS        0.5008         C  9 -- H 12          +0.3% (  4.7%)     94.8%
 EFFECTIVE MASS      1.0644
 FORCE CONSTANT      2.1075

 VIBRATION         74   74A           ATOM PAIR      ENERGY CONTRIBUTION    RADIAL
 FREQUENCY          2680.44         O 26 -- H 28         +45.2% ( 61.7%)     94.7%
 TRANSITION DIPOLE   0.7876         O 26 -- H 27         +32.1% ( 51.9%)     94.0%
 TRAVEL (Ang.)       0.2774         O 20 -- H 21         +11.2% ( 30.7%)     93.2%
 REDUCED MASS        0.3268         O 20 -- H 22         +11.1% ( 30.6%)     93.1%
 EFFECTIVE MASS      1.0603
 FORCE CONSTANT      1.3835

 VIBRATION         75   75A           ATOM PAIR      ENERGY CONTRIBUTION    RADIAL
 FREQUENCY          2680.90         O 20 -- H 22         +39.1% ( 57.3%)     93.1%
 TRANSITION DIPOLE   0.2954         O 20 -- H 21         +38.3% ( 56.7%)     93.2%
 TRAVEL (Ang.)       0.2783         O 26 -- H 28         +13.0% ( 33.0%)     94.7%
 REDUCED MASS        0.3248         O 26 -- H 27          +9.4% ( 28.1%)     94.0%
 EFFECTIVE MASS      1.0509
 FORCE CONSTANT      1.3755

 VIBRATION         76   76A           ATOM PAIR      ENERGY CONTRIBUTION    RADIAL
 FREQUENCY          2691.70         O 23 -- H 24         +51.6% ( 65.7%)     92.9%
 TRANSITION DIPOLE   0.5464         O 23 -- H 25         +47.8% ( 63.3%)     92.8%
 TRAVEL (Ang.)       0.2253         C 13 -- H 14          +0.3% (  5.0%)     99.1%
 REDUCED MASS        0.4937         C 13 -- H 16          +0.2% (  4.1%)     93.2%
 EFFECTIVE MASS      1.0494
 FORCE CONSTANT      2.1073

 VIBRATION         77   77A           ATOM PAIR      ENERGY CONTRIBUTION    RADIAL
 FREQUENCY          2807.53         C 13 -- H 16         +32.9% ( 53.9%)     98.0%
 TRANSITION DIPOLE   0.6910         C 13 -- H 14         +29.3% ( 50.8%)     97.9%
 TRAVEL (Ang.)       0.2997         C 13 -- H 15         +26.8% ( 48.6%)     97.9%
 REDUCED MASS        0.2674         C  9 -- H 10          +3.8% ( 18.3%)     97.8%
 EFFECTIVE MASS      1.0652
 FORCE CONSTANT      1.2417

 VIBRATION         78   78A           ATOM PAIR      ENERGY CONTRIBUTION    RADIAL
 FREQUENCY          2808.37         C  9 -- H 10         +31.3% ( 52.5%)     97.8%
 TRANSITION DIPOLE   0.3629         C  9 -- H 12         +29.7% ( 51.2%)     98.0%
 TRAVEL (Ang.)       0.3002         C  9 -- H 11         +28.0% ( 49.7%)     98.0%
 REDUCED MASS        0.2664         C 13 -- H 16          +4.0% ( 18.9%)     98.0%
 EFFECTIVE MASS      1.0649
 FORCE CONSTANT      1.2377

      SYMMETRY NUMBER FOR POINT-GROUP C1  =  1


          SYSTEM IS A GROUND STATE



 Cycloaddition_SM1_2H2O_PM6_D3H4_FREQ_THERMO


          MOLECULE IS NOT LINEAR

          THERE ARE 78 GENUINE VIBRATIONS IN THIS SYSTEM
          THIS THERMODYNAMICS CALCULATION IS LIMITED TO
          MOLECULES WHICH HAVE NO INTERNAL ROTATIONS




                    CALCULATED THERMODYNAMIC PROPERTIES
                                          *
   TEMP. (K)   PARTITION FUNCTION   H.O.F.    ENTHALPY  HEAT CAPACITY ENTROPY
                                   KCAL/MOL   CAL/MOLE    CAL/K/MOL  CAL/K/MOL


 298.00  VIB.     0.3733D+16                 15338.3545    75.7565   122.7241
         ROT.     0.4059D+07                   888.2813     2.9808    33.2192
         INT.     0.1515D+23                 16226.6358    78.7373   155.9433
         TRA.     0.3115D+28                  1480.4688     4.9680    42.0410
         TOT.                     -339.957   17707.1047    83.7053   197.9843

 200.00  VIB.     0.3123D+12                  8445.4876    64.5865    94.8233
         ROT.     0.2232D+07                   596.1620     2.9808    32.0305
         INT.     0.6970D+18                  9041.6495    67.5674   126.8538
         TRA.     0.1713D+28                   993.6033     4.9680    40.0599
         TOT.                     -347.629   10035.2528    72.5354   166.9137

 210.00  VIB.     0.8926D+12                  9097.6417    65.8374    98.0050
         ROT.     0.2401D+07                   625.9700     2.9808    32.1759
         INT.     0.2144D+19                  9723.6117    68.8182   130.1809
         TRA.     0.1843D+28                  1043.2834     4.9680    40.3023
         TOT.                     -346.897   10766.8951    73.7863   170.4832

 220.00  VIB.     0.2491D+13                  9762.1118    67.0510   101.0959
         ROT.     0.2575D+07                   655.7781     2.9808    32.3146
         INT.     0.6415D+19                 10417.8899    70.0318   133.4105
         TRA.     0.1976D+28                  1092.9636     4.9680    40.5334
         TOT.                     -346.153   11510.8535    74.9998   173.9439

 230.00  VIB.     0.6799D+13                 10438.5580    68.2336   104.1026
         ROT.     0.2752D+07                   685.5862     2.9808    32.4471
         INT.     0.1871D+20                 11124.1442    71.2144   136.5497
         TRA.     0.2112D+28                  1142.6437     4.9680    40.7542
         TOT.                     -345.397   12266.7880    76.1824   177.3039

 240.00  VIB.     0.1816D+14                 11126.6987    69.3906   107.0311
         ROT.     0.2934D+07                   715.3943     2.9808    32.5740
         INT.     0.5328D+20                 11842.0930    72.3714   139.6051
         TRA.     0.2252D+28                  1192.3239     4.9680    40.9657
         TOT.                     -344.630   13034.4169    77.3395   180.5708

 250.00  VIB.     0.4753D+14                 11826.2989    70.5261   109.8869
         ROT.     0.3119D+07                   745.2024     2.9808    32.6957
         INT.     0.1482D+21                 12571.5013    73.5069   142.5825
         TRA.     0.2394D+28                  1242.0041     4.9680    41.1685
         TOT.                     -343.851   13813.5054    78.4749   183.7510

 260.00  VIB.     0.1220D+15                 12537.1601    71.6433   112.6748
         ROT.     0.3308D+07                   775.0105     2.9808    32.8126
         INT.     0.4036D+21                 13312.1706    74.6241   145.4873
         TRA.     0.2539D+28                  1291.6842     4.9680    41.3633
         TOT.                     -343.060   14603.8548    79.5921   186.8507

 270.00  VIB.     0.3074D+15                 13259.1115    72.7445   115.3993
         ROT.     0.3501D+07                   804.8186     2.9808    32.9251
         INT.     0.1076D+22                 14063.9301    75.7253   148.3244
         TRA.     0.2687D+28                  1341.3644     4.9680    41.5508
         TOT.                     -342.259   15405.2945    80.6933   189.8752

 280.00  VIB.     0.7611D+15                 13992.0033    73.8316   118.0645
         ROT.     0.3697D+07                   834.6267     2.9808    33.0335
         INT.     0.2814D+22                 14826.6300    76.8124   151.0980
         TRA.     0.2837D+28                  1391.0445     4.9680    41.7315
         TOT.                     -341.447   16217.6745    81.7804   192.8295

 290.00  VIB.     0.1853D+16                 14735.7005    74.9058   120.6742
         ROT.     0.3897D+07                   864.4348     2.9808    33.1381
         INT.     0.7221D+22                 15600.1354    77.8866   153.8122
         TRA.     0.2991D+28                  1440.7247     4.9680    41.9058
         TOT.                     -340.623   17040.8601    82.8546   195.7181

 300.00  VIB.     0.4440D+16                 15490.0790    75.9680   123.2315
         ROT.     0.4100D+07                   894.2429     2.9808    33.2391
         INT.     0.1821D+23                 16384.3219    78.9488   156.4706
         TRA.     0.3147D+28                  1490.4049     4.9680    42.0743
         TOT.                     -339.790   17874.7268    83.9168   198.5449

 310.00  VIB.     0.1048D+17                 16255.0213    77.0186   125.7397
         ROT.     0.4307D+07                   924.0510     2.9808    33.3369
         INT.     0.4513D+23                 17179.0723    79.9994   159.0765
         TRA.     0.3305D+28                  1540.0850     4.9680    42.2372
         TOT.                     -338.945   18719.1574    84.9675   201.3137

 320.00  VIB.     0.2437D+17                 17030.4143    78.0581   128.2013
         ROT.     0.4517D+07                   953.8591     2.9808    33.4315
         INT.     0.1101D+24                 17984.2734    81.0389   161.6328
         TRA.     0.3467D+28                  1589.7652     4.9680    42.3949
         TOT.                     -338.090   19574.0386    86.0070   204.0277

 330.00  VIB.     0.5588D+17                 17816.1471    79.0866   130.6191
         ROT.     0.4730D+07                   983.6672     2.9808    33.5232
         INT.     0.2644D+24                 18799.8143    82.0674   164.1423
         TRA.     0.3630D+28                  1639.4454     4.9680    42.5478
         TOT.                     -337.225   20439.2597    87.0354   206.6901

 340.00  VIB.     0.1265D+18                 18612.1097    80.1041   132.9952
         ROT.     0.4947D+07                  1013.4753     2.9808    33.6122
         INT.     0.6256D+24                 19625.5850    83.0849   166.6074
         TRA.     0.3797D+28                  1689.1255     4.9680    42.6961
         TOT.                     -336.350   21314.7105    88.0529   209.3035

 350.00  VIB.     0.2826D+18                 19418.1918    81.1105   135.3318
         ROT.     0.5167D+07                  1043.2834     2.9808    33.6986
         INT.     0.1460D+25                 20461.4752    84.0913   169.0304
         TRA.     0.3965D+28                  1738.8057     4.9680    42.8401
         TOT.                     -335.464   22200.2809    89.0593   211.8705

 360.00  VIB.     0.6236D+18                 20234.2826    82.1058   137.6307
         ROT.     0.5390D+07                  1073.0915     2.9808    33.7826
         INT.     0.3361D+25                 21307.3741    85.0866   171.4133
         TRA.     0.4136D+28                  1788.4859     4.9680    42.9800
         TOT.                     -334.568   23095.8599    90.0546   214.3933

 370.00  VIB.     0.1360D+19                 21060.2700    83.0898   139.8938
         ROT.     0.5616D+07                  1102.8996     2.9808    33.8643
         INT.     0.7639D+25                 22163.1696    86.0706   173.7580
         TRA.     0.4310D+28                  1838.1660     4.9680    43.1162
         TOT.                     -333.663   24001.3356    91.0386   216.8742

 380.00  VIB.     0.2933D+19                 21896.0407    84.0624   142.1225
         ROT.     0.5845D+07                  1132.7077     2.9808    33.9438
         INT.     0.1715D+26                 23028.7484    87.0433   176.0663
         TRA.     0.4486D+28                  1887.8462     4.9680    43.2487
         TOT.                     -332.748   24916.5946    92.0113   219.3150

 390.00  VIB.     0.6258D+19                 22741.4805    85.0236   144.3186
         ROT.     0.6078D+07                  1162.5158     2.9808    34.0212
         INT.     0.3803D+26                 23903.9963    88.0044   178.3398
         TRA.     0.4664D+28                  1937.5263     4.9680    43.3777
         TOT.                     -331.823   25841.5227    92.9724   221.7174

 400.00  VIB.     0.1321D+20                 23596.4739    85.9731   146.4832
         ROT.     0.6313D+07                  1192.3239     2.9808    34.0967
         INT.     0.8340D+26                 24788.7978    88.9540   180.5798
         TRA.     0.4845D+28                  1987.2065     4.9680    43.5035
         TOT.                     -330.888   26776.0043    93.9220   224.0833

   *: NOTE: HEATS OF FORMATION ARE RELATIVE TO THE
            ELEMENTS IN THEIR STANDARD STATE AT 298K
              (=  Standard Enthalpy of Formation).

            Hvib:  Zero-point energy is not included.
                   frequencies of less than zero cm-1 are not included.
            Hrot = (3/2)RT
            Htra = (3/2)RT + pV = (5/2)RT

            Heat capacity is Cp, not Cv

          For more information, see: HTTP://OpenMOPAC.net/Manual/thermochemistry.html


           FORCE CONSTANT IN CARTESIAN COORDINATES (Millidynes/A)

    ATOM   CHEMICAL       X               Y               Z
   NUMBER   SYMBOL  FORCE CONSTANT  FORCE CONSTANT  FORCE CONSTANT

      1       N       15.561391        5.097151        0.872891
      2       N       15.664572        5.028177        0.992767
      3       C        7.498522        6.660718       11.144271
      4       C        4.511602        8.282573       12.452289
      5       O        0.954996        4.848337        9.164941
      6       O        5.324003        1.703654        7.983691
      7       O        2.556510        4.552384        6.771705
      8       O        2.252108        5.810003        5.814288
      9       C        6.180127        5.559362        6.270591
     10       H        1.048192        0.920139        3.418803
     11       H        4.047796        0.737488        0.618953
     12       H        1.037310        1.985579        2.402173
     13       C        5.902172        5.795359        6.306263
     14       H        2.097350        2.694548        0.622169
     15       H        2.413526        0.743922        2.234948
     16       H        1.122223        0.835062        3.441722
     17       O        3.160557        1.552415        2.114864
     18       H        2.293096        1.447275        0.534350
     19       H        2.197262        0.387668        1.729903
     20       O        0.094818        2.916453        4.017726
     21       H        0.011737        0.657855        3.596592
     22       H        0.129122        2.632513        1.680576
     23       O        0.565623        2.451221        4.085885
     24       H        0.237122        1.785685        2.492048
     25       H        0.346745        0.685778        3.239199
     26       O        1.072939        2.922953        3.050937
     27       H        0.987776        2.564349        0.754587
     28       H        0.276688        1.274630        2.818432

 **********************
 *                    *
 * JOB ENDED NORMALLY *
 *                    *
 **********************



 TOTAL JOB TIME:             4.26 SECONDS

 == MOPAC DONE ==
