 *******************************************************************************
 ** Site#: 37381        For non-commercial use only           Version 21.125L **
 *******************************************************************************
 ** Cite this program as: MOPAC2016, Version: 21.125L, James J. P. Stewart,   **
 ** Stewart Computational Chemistry, web: HTTP://OpenMOPAC.net. Days left: 191**
 *******************************************************************************
 **                                                                           **
 **                                MOPAC2016                                  **
 **                                                                           **
 *******************************************************************************

                              PM6-D3H4 CALCULATION RESULTS

 *******************************************************************************
 *  CALCULATION DONE:                                Tue Oct 26 20:32:11 2021  *
 *  PM6-D3H4   - CORRECT DISPERSION AND HYDROGEN BOND TERMS USING THE D3H4 METHOD
 *  EPS=2.38   - USE ANDREAS KLAMT'S COSMO IMPLICIT SOLVATION MODEL
 *  FORCE      - FORCE CALCULATION SPECIFIED
 *  T=         - A TIME OF 172800.0 SECONDS REQUESTED
 *  DUMP=N     - RESTART FILE WRITTEN EVERY 7200.0 SECONDS REQUESTED
 *  AUX        - OUTPUT AUXILIARY INFORMATION
 *  LARGE      - EXPANDED OUTPUT TO BE PRINTED
 *  THERMO     - THERMODYNAMIC QUANTITIES TO BE CALCULATED
 *******************************************************************************
 AUX LARGE FORCE THERMO PM6-D3H4 EPS=2.38
 Cycloaddition_TS_2H2O_PM6_D3H4_FREQ_THERMO

   ATOM   CHEMICAL          X               Y               Z
  NUMBER   SYMBOL      (ANGSTROMS)     (ANGSTROMS)     (ANGSTROMS)
 
     1       C          0.54095000  *  -0.69596000  *   1.07292000  *
     2       C          0.99808000  *  -1.91117000  *   0.11587000  *
     3       C         -1.23471000  *  -2.36785000  *   0.69026000  *
     4       C         -0.84860000  *  -1.16110000  *   1.56319000  *
     5       H          1.17691000  *  -0.08568000  *   1.72026000  *
     6       H         -1.53014000  *  -0.49639000  *   2.06496000  *
     7       C         -0.29231000  *  -2.45568000  *  -0.51693000  *
     8       H         -0.15063000  *  -3.50717000  *  -0.85030000  *
     9       H         -0.64534000  *  -1.84039000  *  -1.37564000  *
    10       C          1.03777000  *  -2.33662000  *   1.52467000  *
    11       H          1.90404000  *  -2.53006000  *   2.13163000  *
    12       C         -0.39765000  *  -2.57722000  *   1.97017000  *
    13       H         -0.66687000  *  -3.16707000  *   2.82515000  *
    14       H          1.89753000  *  -1.79399000  *  -0.50461000  *
    15       H         -2.25610000  *  -2.71321000  *   0.59107000  *
    16       N         -0.58764000  *   0.58695000  *  -0.97791000  *
    17       N          0.23789000  *   0.74759000  *  -0.00163000  *
    18       C         -1.98417000  *   0.42171000  *  -0.71563000  *
    19       C          1.55512000  *   1.24050000  *  -0.46554000  *
    20       O          1.83049000  *   2.41792000  *  -0.44181000  *
    21       O         -2.72789000  *  -0.22331000  *  -1.42538000  *
    22       O          2.40740000  *   0.22985000  *  -0.75146000  *
    23       O         -2.42057000  *   1.17017000  *   0.34932000  *
    24       C         -3.84242000  *   1.12223000  *   0.67958000  *
    25       H         -3.90219000  *   1.88649000  *   1.48575000  *
    26       H         -4.43412000  *   1.39677000  *  -0.22154000  *
    27       H         -4.07566000  *   0.10086000  *   1.04131000  *
    28       C          3.79349000  *   0.56900000  *  -1.08329000  *
    29       H          3.79126000  *   1.08776000  *  -2.06214000  *
    30       H          4.22103000  *   1.19392000  *  -0.26795000  *
    31       H          4.24469000  *  -0.45241000  *  -1.13321000  *
    32       O          3.94299000  *   3.31390000  *   0.49037000  *
    33       H          3.15810000  *   3.16881000  *   1.05372000  *
    34       H          3.64666000  *   3.57774000  *  -0.40517000  *
    35       O          3.84555000  *  -2.62830000  *  -1.11584000  *
    36       H          4.46539000  *  -3.16414000  *  -0.59547000  *
    37       H          3.73605000  *  -3.00255000  *  -2.00623000  *
    38       O         -1.30898000  *   2.72182000  *   1.96677000  *
    39       H         -1.76768000  *   3.26312000  *   1.29924000  *
    40       H         -0.95207000  *   1.92282000  *   1.54128000  *
    41       O         -5.10115000  *   0.06815000  *  -2.10674000  *
    42       H         -4.73202000  *  -0.68122000  *  -1.59598000  *
    43       H         -4.37462000  *   0.50475000  *  -2.59431000  *
 


          CARTESIAN COORDINATES 

    NO.       ATOM           X           Y           Z

     1         C          0.5410     -0.6960      1.0729
     2         C          0.9981     -1.9112      0.1159
     3         C         -1.2347     -2.3679      0.6903
     4         C         -0.8486     -1.1611      1.5632
     5         H          1.1769     -0.0857      1.7203
     6         H         -1.5301     -0.4964      2.0650
     7         C         -0.2923     -2.4557     -0.5169
     8         H         -0.1506     -3.5072     -0.8503
     9         H         -0.6453     -1.8404     -1.3756
    10         C          1.0378     -2.3366      1.5247
    11         H          1.9040     -2.5301      2.1316
    12         C         -0.3977     -2.5772      1.9702
    13         H         -0.6669     -3.1671      2.8251
    14         H          1.8975     -1.7940     -0.5046
    15         H         -2.2561     -2.7132      0.5911
    16         N         -0.5876      0.5869     -0.9779
    17         N          0.2379      0.7476     -0.0016
    18         C         -1.9842      0.4217     -0.7156
    19         C          1.5551      1.2405     -0.4655
    20         O          1.8305      2.4179     -0.4418
    21         O         -2.7279     -0.2233     -1.4254
    22         O          2.4074      0.2298     -0.7515
    23         O         -2.4206      1.1702      0.3493
    24         C         -3.8424      1.1222      0.6796
    25         H         -3.9022      1.8865      1.4857
    26         H         -4.4341      1.3968     -0.2215
    27         H         -4.0757      0.1009      1.0413
    28         C          3.7935      0.5690     -1.0833
    29         H          3.7913      1.0878     -2.0621
    30         H          4.2210      1.1939     -0.2680
    31         H          4.2447     -0.4524     -1.1332
    32         O          3.9430      3.3139      0.4904
    33         H          3.1581      3.1688      1.0537
    34         H          3.6467      3.5777     -0.4052
    35         O          3.8456     -2.6283     -1.1158
    36         H          4.4654     -3.1641     -0.5955
    37         H          3.7361     -3.0025     -2.0062
    38         O         -1.3090      2.7218      1.9668
    39         H         -1.7677      3.2631      1.2992
    40         H         -0.9521      1.9228      1.5413
    41         O         -5.1011      0.0682     -2.1067
    42         H         -4.7320     -0.6812     -1.5960
    43         H         -4.3746      0.5048     -2.5943

 General Reference for PM6:
 "Optimization of Parameters for Semiempirical Methods V: Modification of NDDO Approximations
 and Application to 70 Elements", J. J. P. Stewart, J. Mol. Mod., 13, 1173-1213 (2007)
 URL: https://link.springer.com/article/10.1007/s00894-007-0233-4

           Empirical Formula: C11 H22 N2 O8  =    43 atoms



      MOLECULAR POINT GROUP   :   C1  


      RHF CALCULATION, NO. OF DOUBLY OCCUPIED LEVELS = 62



          HEAT OF FORMATION =    -237.534156 KCALS/MOLE


          CARTESIAN COORDINATE DERIVATIVES

   NUMBER  ATOM         X            Y            Z

     1       C      0.090590     0.022311    -0.269580
     2       C     -0.044532     0.120004     0.007600
     3       C     -0.092498    -0.033691    -0.030117
     4       C      0.001216     0.036166    -0.006566
     5       H     -0.165164     0.104309    -0.009818
     6       H     -0.016942     0.082078    -0.018439
     7       C     -0.063964    -0.000606     0.100845
     8       H     -0.115331    -0.108940     0.000129
     9       H      0.048323    -0.030313     0.011171
    10       C     -0.224587    -0.025154     0.117270
    11       H      0.046869     0.018722     0.003365
    12       C     -0.018362     0.026436    -0.013102
    13       H     -0.000305     0.003298    -0.019939
    14       H      0.103985    -0.185554     0.087064
    15       H      0.043012     0.078621    -0.040863
    16       N     -0.012260    -0.102783     0.028750
    17       N      0.130728    -0.014929     0.343557
    18       C     -0.664235    -0.035049    -0.296334
    19       C      0.726238     0.340901    -0.531709
    20       O     -0.423132    -0.390297    -0.052384
    21       O      0.057924     0.155244     0.331705
    22       O     -0.170533    -0.064657     0.194791
    23       O      0.277358     0.192251     0.036324
    24       C      0.078796     0.102937    -0.002611
    25       H     -0.052811    -0.059510     0.123394
    26       H      0.134028     0.172521    -0.005099
    27       H     -0.143517     0.094254    -0.043262
    28       C     -0.196184    -0.077917    -0.103011
    29       H      0.134242     0.100052    -0.016144
    30       H      0.182810     0.020909     0.121742
    31       H      0.339558    -0.864109    -0.116507
    32       O      0.084722    -0.250693    -0.098293
    33       H      0.018159     0.033617    -0.181589
    34       H      0.107611    -0.035579     0.105933
    35       O      0.089909     0.433464     0.059749
    36       H     -0.220238    -0.284437     0.294635
    37       H     -0.134204    -0.166640    -0.234622
    38       O      0.747676     0.403935    -0.764987
    39       H      0.105955    -0.089227     1.020414
    40       H     -0.447836    -0.032742    -0.221328
    41       O     -0.216602     0.098455     0.402361
    42       H     -0.129799     0.069328    -0.351443
    43       H      0.003390     0.143038     0.037098
 
 DIPOLE           X         Y         Z       TOTAL
 POINT-CHG.     6.764    -1.094    -6.787     9.644
 HYBRID         0.543     0.120    -0.457     0.720
 SUM            7.308    -0.974    -7.244    10.335


          GRADIENT NORM =   2.71572


                              **** WARNING ****

           GRADIENT IS VERY LARGE FOR A THERMO CALCULATION
           RESULTS ARE LIKELY TO BE INACCURATE IF THERE ARE
           ANY LOW-LYING VIBRATIONS (LESS THAN ABOUT 400CM-1)
           GRADIENT NORM SHOULD BE LESS THAN ABOUT 1.3 FOR THERMO
           TO GIVE ACCURATE RESULTS


          TIME FOR SCF CALCULATION =    0.09

          TIME FOR DERIVATIVES     =    0.03

          MOLECULAR WEIGHT =  310.30



          ROTATIONAL CONSTANTS IN CM(-1)

          A =    0.01156877   B =    0.00695140   C =    0.00555237



           PRINCIPAL MOMENTS OF INERTIA IN UNITS OF 10**(-40)*GRAM-CM**2

          A =     2419.6840   B =     4026.9259   C =     5041.5860


          ORIENTATION OF MOLECULE IN FORCE CALCULATION

    NO.       ATOM         X         Y         Z

     1          C       0.0506   -0.1109   -1.3991
     2          C       1.6635   -0.1109   -1.3991
     3          C       1.0340    2.1535   -1.3991
     4          C      -0.2837    1.3845   -1.5982
     5          H      -0.6131   -0.8814   -1.8014
     6          H      -1.2754    1.7740   -1.4467
     7          C       2.0835    1.2275   -0.7712
     8          H       3.1137    1.5017   -1.0882
     9          H       2.0294    1.2187    0.3412
    10          C       1.1594    0.1529   -2.7569
    11          H       1.1905   -0.4996   -3.6109
    12          C       0.6695    1.5937   -2.7907
    13          H       0.5303    2.1562   -3.6937
    14          H       2.1983   -1.0302   -1.1221
    15          H       1.0636    3.2133   -1.1795
    16          N      -0.0190    0.2036    1.2508
    17          N      -0.4853   -0.5248    0.2956
    18          C      -0.4459    1.5618    1.3901
    19          C      -0.2081   -1.9636    0.5103
    20          O      -1.0312   -2.6955    1.0100
    21          O       0.2504    2.4388    1.8581
    22          O       0.9645   -2.3467   -0.0444
    23          O      -1.7654    1.7445    1.0578
    24          C      -2.3282    3.0835    1.2109
    25          H      -3.3992    2.8950    0.9767
    26          H      -2.1680    3.4275    2.2566
    27          H      -1.8394    3.7471    0.4698
    28          C       1.2987   -3.7731   -0.0357
    29          H       1.4881   -4.0712    1.0143
    30          H       0.4653   -4.3456   -0.5002
    31          H       2.2258   -3.7670   -0.6601
    32          O      -1.6606   -4.8977    0.0675
    33          H      -2.1080   -4.0760   -0.2138
    34          H      -1.4120   -4.8168    1.0114
    35          O       3.7416   -2.5087   -1.6666
    36          H       4.0123   -2.8046   -2.5505
    37          H       4.5209   -2.3345   -1.1123
    38          O      -3.5791    0.2415    0.2146
    39          H      -3.7208    0.3759    1.1690
    40          H      -2.6235    0.2085    0.0341
    41          O      -0.2375    4.4117    3.2903
    42          H       0.1286    4.4302    2.3824
    43          H      -0.0712    3.5298    3.6787


    FIRST DERIVATIVES WILL BE USED IN THE CALCULATION OF SECOND DERIVATIVES

          ESTIMATED TIME TO COMPLETE CALCULATION =       32.25 SECONDS

    FOR POINT-GROUP C1   THERE ARE   1 UNIQUE SYMMETRY FUNCTIONS.

 STEP:   1 TIME =     0.10 SECS, INTEGRAL =      0.10 TIME LEFT: 172799.77
 STEP:   2 TIME =     0.10 SECS, INTEGRAL =      0.20 TIME LEFT: 172799.67
 STEP:   3 TIME =     0.11 SECS, INTEGRAL =      0.31 TIME LEFT: 172799.56
 STEP:   4 TIME =     0.10 SECS, INTEGRAL =      0.41 TIME LEFT: 172799.46
 STEP:   5 TIME =     0.10 SECS, INTEGRAL =      0.52 TIME LEFT: 172799.36
 STEP:   6 TIME =     0.09 SECS, INTEGRAL =      0.61 TIME LEFT: 172799.27
 STEP:   7 TIME =     0.10 SECS, INTEGRAL =      0.71 TIME LEFT: 172799.16
 STEP:   8 TIME =     0.10 SECS, INTEGRAL =      0.81 TIME LEFT: 172799.06
 STEP:   9 TIME =     0.09 SECS, INTEGRAL =      0.91 TIME LEFT: 172798.97
 STEP:  10 TIME =     0.09 SECS, INTEGRAL =      1.00 TIME LEFT: 172798.88
 STEP:  11 TIME =     0.10 SECS, INTEGRAL =      1.10 TIME LEFT: 172798.77
 STEP:  12 TIME =     0.09 SECS, INTEGRAL =      1.20 TIME LEFT: 172798.68
 STEP:  13 TIME =     0.10 SECS, INTEGRAL =      1.30 TIME LEFT: 172798.58
 STEP:  14 TIME =     0.09 SECS, INTEGRAL =      1.38 TIME LEFT: 172798.49
 STEP:  15 TIME =     0.09 SECS, INTEGRAL =      1.48 TIME LEFT: 172798.40
 STEP:  16 TIME =     0.09 SECS, INTEGRAL =      1.57 TIME LEFT: 172798.30
 STEP:  17 TIME =     0.09 SECS, INTEGRAL =      1.66 TIME LEFT: 172798.22
 STEP:  18 TIME =     0.09 SECS, INTEGRAL =      1.75 TIME LEFT: 172798.12
 STEP:  19 TIME =     0.09 SECS, INTEGRAL =      1.84 TIME LEFT: 172798.03
 STEP:  20 TIME =     0.10 SECS, INTEGRAL =      1.95 TIME LEFT: 172797.93
 STEP:  21 TIME =     0.09 SECS, INTEGRAL =      2.04 TIME LEFT: 172797.84
 STEP:  22 TIME =     0.09 SECS, INTEGRAL =      2.13 TIME LEFT: 172797.74
 STEP:  23 TIME =     0.09 SECS, INTEGRAL =      2.22 TIME LEFT: 172797.66
 STEP:  24 TIME =     0.09 SECS, INTEGRAL =      2.30 TIME LEFT: 172797.57
 STEP:  25 TIME =     0.09 SECS, INTEGRAL =      2.40 TIME LEFT: 172797.48
 STEP:  26 TIME =     0.09 SECS, INTEGRAL =      2.48 TIME LEFT: 172797.39
 STEP:  27 TIME =     0.09 SECS, INTEGRAL =      2.58 TIME LEFT: 172797.30
 STEP:  28 TIME =     0.10 SECS, INTEGRAL =      2.68 TIME LEFT: 172797.20
 STEP:  29 TIME =     0.10 SECS, INTEGRAL =      2.78 TIME LEFT: 172797.09
 STEP:  30 TIME =     0.10 SECS, INTEGRAL =      2.88 TIME LEFT: 172796.99
 STEP:  31 TIME =     0.09 SECS, INTEGRAL =      2.98 TIME LEFT: 172796.90
 STEP:  32 TIME =     0.10 SECS, INTEGRAL =      3.08 TIME LEFT: 172796.80
 STEP:  33 TIME =     0.10 SECS, INTEGRAL =      3.18 TIME LEFT: 172796.70
 STEP:  34 TIME =     0.09 SECS, INTEGRAL =      3.27 TIME LEFT: 172796.60
 STEP:  35 TIME =     0.10 SECS, INTEGRAL =      3.38 TIME LEFT: 172796.50
 STEP:  36 TIME =     0.09 SECS, INTEGRAL =      3.47 TIME LEFT: 172796.41
 STEP:  37 TIME =     0.10 SECS, INTEGRAL =      3.57 TIME LEFT: 172796.30
 STEP:  38 TIME =     0.09 SECS, INTEGRAL =      3.66 TIME LEFT: 172796.22
 STEP:  39 TIME =     0.09 SECS, INTEGRAL =      3.75 TIME LEFT: 172796.12
 STEP:  40 TIME =     0.09 SECS, INTEGRAL =      3.84 TIME LEFT: 172796.04
 STEP:  41 TIME =     0.09 SECS, INTEGRAL =      3.93 TIME LEFT: 172795.95
 STEP:  42 TIME =     0.09 SECS, INTEGRAL =      4.02 TIME LEFT: 172795.85
 STEP:  43 TIME =     0.09 SECS, INTEGRAL =      4.11 TIME LEFT: 172795.77
 STEP:  44 TIME =     0.09 SECS, INTEGRAL =      4.20 TIME LEFT: 172795.67
 STEP:  45 TIME =     0.09 SECS, INTEGRAL =      4.29 TIME LEFT: 172795.59
 STEP:  46 TIME =     0.10 SECS, INTEGRAL =      4.39 TIME LEFT: 172795.48
 STEP:  47 TIME =     0.11 SECS, INTEGRAL =      4.50 TIME LEFT: 172795.38
 STEP:  48 TIME =     0.10 SECS, INTEGRAL =      4.60 TIME LEFT: 172795.27
 STEP:  49 TIME =     0.10 SECS, INTEGRAL =      4.70 TIME LEFT: 172795.17
 STEP:  50 TIME =     0.10 SECS, INTEGRAL =      4.80 TIME LEFT: 172795.07
 STEP:  51 TIME =     0.11 SECS, INTEGRAL =      4.91 TIME LEFT: 172794.96
 STEP:  52 TIME =     0.10 SECS, INTEGRAL =      5.02 TIME LEFT: 172794.86
 STEP:  53 TIME =     0.10 SECS, INTEGRAL =      5.12 TIME LEFT: 172794.76
 STEP:  54 TIME =     0.10 SECS, INTEGRAL =      5.22 TIME LEFT: 172794.66
 STEP:  55 TIME =     0.09 SECS, INTEGRAL =      5.31 TIME LEFT: 172794.56
 STEP:  56 TIME =     0.10 SECS, INTEGRAL =      5.41 TIME LEFT: 172794.46
 STEP:  57 TIME =     0.10 SECS, INTEGRAL =      5.52 TIME LEFT: 172794.36
 STEP:  58 TIME =     0.09 SECS, INTEGRAL =      5.61 TIME LEFT: 172794.27
 STEP:  59 TIME =     0.09 SECS, INTEGRAL =      5.70 TIME LEFT: 172794.17
 STEP:  60 TIME =     0.09 SECS, INTEGRAL =      5.80 TIME LEFT: 172794.08
 STEP:  61 TIME =     0.09 SECS, INTEGRAL =      5.89 TIME LEFT: 172793.98
 STEP:  62 TIME =     0.10 SECS, INTEGRAL =      5.99 TIME LEFT: 172793.88
 STEP:  63 TIME =     0.09 SECS, INTEGRAL =      6.09 TIME LEFT: 172793.79
 STEP:  64 TIME =     0.10 SECS, INTEGRAL =      6.19 TIME LEFT: 172793.69
 STEP:  65 TIME =     0.09 SECS, INTEGRAL =      6.28 TIME LEFT: 172793.59
 STEP:  66 TIME =     0.10 SECS, INTEGRAL =      6.38 TIME LEFT: 172793.49
 STEP:  67 TIME =     0.09 SECS, INTEGRAL =      6.48 TIME LEFT: 172793.40
 STEP:  68 TIME =     0.09 SECS, INTEGRAL =      6.57 TIME LEFT: 172793.30
 STEP:  69 TIME =     0.10 SECS, INTEGRAL =      6.67 TIME LEFT: 172793.20
 STEP:  70 TIME =     0.09 SECS, INTEGRAL =      6.77 TIME LEFT: 172793.11
 STEP:  71 TIME =     0.09 SECS, INTEGRAL =      6.86 TIME LEFT: 172793.02
 STEP:  72 TIME =     0.10 SECS, INTEGRAL =      6.96 TIME LEFT: 172792.91
 STEP:  73 TIME =     0.09 SECS, INTEGRAL =      7.05 TIME LEFT: 172792.83
 STEP:  74 TIME =     0.09 SECS, INTEGRAL =      7.14 TIME LEFT: 172792.73
 STEP:  75 TIME =     0.09 SECS, INTEGRAL =      7.23 TIME LEFT: 172792.65
 STEP:  76 TIME =     0.09 SECS, INTEGRAL =      7.31 TIME LEFT: 172792.56
 STEP:  77 TIME =     0.09 SECS, INTEGRAL =      7.40 TIME LEFT: 172792.48
 STEP:  78 TIME =     0.09 SECS, INTEGRAL =      7.48 TIME LEFT: 172792.39
 STEP:  79 TIME =     0.09 SECS, INTEGRAL =      7.58 TIME LEFT: 172792.30
 STEP:  80 TIME =     0.09 SECS, INTEGRAL =      7.66 TIME LEFT: 172792.21
 STEP:  81 TIME =     0.09 SECS, INTEGRAL =      7.75 TIME LEFT: 172792.12
 STEP:  82 TIME =     0.09 SECS, INTEGRAL =      7.84 TIME LEFT: 172792.03
 STEP:  83 TIME =     0.10 SECS, INTEGRAL =      7.95 TIME LEFT: 172791.93
 STEP:  84 TIME =     0.09 SECS, INTEGRAL =      8.04 TIME LEFT: 172791.84
 STEP:  85 TIME =     0.09 SECS, INTEGRAL =      8.12 TIME LEFT: 172791.75
 STEP:  86 TIME =     0.09 SECS, INTEGRAL =      8.21 TIME LEFT: 172791.66
 STEP:  87 TIME =     0.09 SECS, INTEGRAL =      8.30 TIME LEFT: 172791.58
 STEP:  88 TIME =     0.09 SECS, INTEGRAL =      8.39 TIME LEFT: 172791.48
 STEP:  89 TIME =     0.09 SECS, INTEGRAL =      8.48 TIME LEFT: 172791.40
 STEP:  90 TIME =     0.09 SECS, INTEGRAL =      8.56 TIME LEFT: 172791.31
 STEP:  91 TIME =     0.09 SECS, INTEGRAL =      8.65 TIME LEFT: 172791.23
 STEP:  92 TIME =     0.09 SECS, INTEGRAL =      8.73 TIME LEFT: 172791.14
 STEP:  93 TIME =     0.09 SECS, INTEGRAL =      8.82 TIME LEFT: 172791.05
 STEP:  94 TIME =     0.09 SECS, INTEGRAL =      8.91 TIME LEFT: 172790.97
 STEP:  95 TIME =     0.09 SECS, INTEGRAL =      9.00 TIME LEFT: 172790.88
 STEP:  96 TIME =     0.09 SECS, INTEGRAL =      9.09 TIME LEFT: 172790.78
 STEP:  97 TIME =     0.09 SECS, INTEGRAL =      9.19 TIME LEFT: 172790.69
 STEP:  98 TIME =     0.09 SECS, INTEGRAL =      9.27 TIME LEFT: 172790.60
 STEP:  99 TIME =     0.09 SECS, INTEGRAL =      9.37 TIME LEFT: 172790.51
 STEP: 100 TIME =     0.09 SECS, INTEGRAL =      9.45 TIME LEFT: 172790.42
 STEP: 101 TIME =     0.09 SECS, INTEGRAL =      9.55 TIME LEFT: 172790.33
 STEP: 102 TIME =     0.09 SECS, INTEGRAL =      9.64 TIME LEFT: 172790.23
 STEP: 103 TIME =     0.09 SECS, INTEGRAL =      9.73 TIME LEFT: 172790.15
 STEP: 104 TIME =     0.09 SECS, INTEGRAL =      9.81 TIME LEFT: 172790.06
 STEP: 105 TIME =     0.09 SECS, INTEGRAL =      9.91 TIME LEFT: 172789.97
 STEP: 106 TIME =     0.09 SECS, INTEGRAL =     10.00 TIME LEFT: 172789.88
 STEP: 107 TIME =     0.09 SECS, INTEGRAL =     10.09 TIME LEFT: 172789.78
 STEP: 108 TIME =     0.09 SECS, INTEGRAL =     10.19 TIME LEFT: 172789.69
 STEP: 109 TIME =     0.09 SECS, INTEGRAL =     10.28 TIME LEFT: 172789.59
 STEP: 110 TIME =     0.09 SECS, INTEGRAL =     10.37 TIME LEFT: 172789.51
 STEP: 111 TIME =     0.09 SECS, INTEGRAL =     10.46 TIME LEFT: 172789.41
 STEP: 112 TIME =     0.09 SECS, INTEGRAL =     10.55 TIME LEFT: 172789.32
 STEP: 113 TIME =     0.09 SECS, INTEGRAL =     10.65 TIME LEFT: 172789.23
 STEP: 114 TIME =     0.09 SECS, INTEGRAL =     10.74 TIME LEFT: 172789.13
 STEP: 115 TIME =     0.09 SECS, INTEGRAL =     10.84 TIME LEFT: 172789.04
 STEP: 116 TIME =     0.09 SECS, INTEGRAL =     10.92 TIME LEFT: 172788.95
 STEP: 117 TIME =     0.09 SECS, INTEGRAL =     11.02 TIME LEFT: 172788.86
 STEP: 118 TIME =     0.09 SECS, INTEGRAL =     11.10 TIME LEFT: 172788.77
 STEP: 119 TIME =     0.09 SECS, INTEGRAL =     11.19 TIME LEFT: 172788.69
 STEP: 120 TIME =     0.09 SECS, INTEGRAL =     11.28 TIME LEFT: 172788.59
 STEP: 121 TIME =     0.09 SECS, INTEGRAL =     11.38 TIME LEFT: 172788.50
 STEP: 122 TIME =     0.09 SECS, INTEGRAL =     11.46 TIME LEFT: 172788.41
 STEP: 123 TIME =     0.09 SECS, INTEGRAL =     11.55 TIME LEFT: 172788.32
 STEP: 124 TIME =     0.09 SECS, INTEGRAL =     11.65 TIME LEFT: 172788.23
 STEP: 125 TIME =     0.09 SECS, INTEGRAL =     11.73 TIME LEFT: 172788.14
 STEP: 126 TIME =     0.09 SECS, INTEGRAL =     11.82 TIME LEFT: 172788.05
 STEP: 127 TIME =     0.09 SECS, INTEGRAL =     11.91 TIME LEFT: 172787.97
 STEP: 128 TIME =     0.09 SECS, INTEGRAL =     12.00 TIME LEFT: 172787.88
 STEP: 129 TIME =     0.09 SECS, INTEGRAL =     12.09 TIME LEFT: 172787.79

(To convert to Hartree/Bohr^2, multiply by (10^(-21) x N x a0^2)/(4.184 x 627.51) =  0.0642)


           FORCE MATRIX IN MILLIDYNES/ANGSTROM


                  C  1       C  2       C  3       C  4       H  5       H  6
 ------------------------------------------------------------------------------
     C    1   9.308741
     C    2   2.118588  12.435471
     C    3   0.768045   0.913416  12.635958
     C    4   3.110157   0.709596   3.561952  12.525346
     H    5   3.434058   0.280891   0.043644   0.460712   4.165817
     H    6   0.489212   0.042960   0.450071   3.564221   0.018063   4.338893
     C    7   0.738553   3.053326   3.201134   0.684206   0.044537   0.036409
     H    8   0.062978   0.588188   0.577759   0.052069   0.007658   0.007175
     H    9   0.100399   0.568200   0.568362   0.015130   0.009781   0.004958
     C   10   1.773210   4.852945   0.831704   1.259860   0.498944   0.039724
     H   11   0.336776   0.515238   0.039075   0.028571   0.026797   0.004971
     C   12   1.283685   0.849271   3.447758   3.686316   0.028904   0.419909
     H   13   0.068690   0.038762   0.433650   0.404183   0.006152   0.014632
     H   14   0.413010   3.323648   0.043699   0.035389   0.021541   0.006758
     H   15   0.061306   0.049493   3.531542   0.475052   0.008104   0.016903
     N   16   2.888480   0.445347   0.091169   0.102478   0.186471   0.064060
     N   17   3.606148   0.839753   0.110761   0.349666   0.773280   0.078794
     C   18   1.261566   0.255771   0.069425   0.081197   0.098108   0.078044
     C   19   0.539633   0.167200   0.024308   0.055054   0.141519   0.021958
     O   20   0.121229   0.039584   0.006740   0.022371   0.023658   0.009283
     O   21   0.324242   0.071676   0.024584   0.031595   0.028147   0.018735
     O   22   0.238393   0.089152   0.008027   0.014895   0.028016   0.008175
     O   23   0.335642   0.064483   0.019519   0.056410   0.029522   0.043996
     C   24   0.095757   0.018978   0.005119   0.012082   0.008984   0.010779
     H   25   0.028279   0.006049   0.001084   0.003498   0.003041   0.004071
     H   26   0.018901   0.004341   0.000607   0.001529   0.001929   0.002042
     H   27   0.024263   0.005071   0.002570   0.003349   0.002048   0.012070
     C   28   0.080416   0.030303   0.002333   0.004863   0.008972   0.002450
     H   29   0.006080   0.003300   0.000732   0.000900   0.001239   0.000516
     H   30   0.015171   0.003884   0.000701   0.001515   0.003751   0.000851
     H   31   0.032369   0.008944   0.000736   0.002139   0.004464   0.000723
     O   32   0.026563   0.006198   0.002134   0.003748   0.008453   0.002180
     H   33   0.017322   0.004136   0.001470   0.002637   0.006821   0.001530
     H   34   0.016262   0.003951   0.001222   0.002272   0.004060   0.001259
     O   35   0.056427   0.056224   0.003221   0.005323   0.006210   0.001750
     H   36   0.019877   0.009334   0.000796   0.002176   0.002278   0.000683
     H   37   0.021076   0.007881   0.001168   0.001708   0.002069   0.000590
     O   38   0.065082   0.013203   0.005123   0.011515   0.011418   0.015880
     H   39   0.028904   0.005748   0.001883   0.004008   0.003665   0.004879
     H   40   0.079621   0.015271   0.006460   0.010820   0.018355   0.026694
     O   41   0.053986   0.012078   0.003387   0.003721   0.005105   0.003069
     H   42   0.040790   0.009256   0.003015   0.002932   0.003900   0.002453


                  C  1       C  2       C  3       C  4       H  5       H  6
 ------------------------------------------------------------------------------
     H   43   0.038166   0.008433   0.001921   0.002473   0.003492   0.001682


                  C  7       H  8       H  9       C 10       H 11       C 12
 ------------------------------------------------------------------------------
     C    7  11.928880
     H    8   3.319732   4.235843
     H    9   3.284431   0.569290   4.188696
     C   10   0.799702   0.024544   0.060816  11.806783
     H   11   0.052884   0.007539   0.010113   3.585961   4.277925
     C   12   0.715434   0.015180   0.052500   3.403935   0.476111  12.578907
     H   13   0.038147   0.005239   0.006899   0.500422   0.015360   3.601217
     H   14   0.474036   0.020779   0.019313   0.540543   0.021368   0.046746
     H   15   0.505895   0.017071   0.018892   0.048956   0.005945   0.469868
     N   16   0.161944   0.029484   0.092393   0.772026   0.161078   0.235965
     N   17   0.154722   0.036399   0.122506   1.103440   0.196905   0.300193
     C   18   0.081920   0.020852   0.102756   0.398640   0.095133   0.131722
     C   19   0.045639   0.014967   0.017593   0.214911   0.061303   0.056758
     O   20   0.014969   0.006489   0.008585   0.045799   0.015307   0.015070
     O   21   0.046758   0.008825   0.040857   0.105122   0.026464   0.033622
     O   22   0.018924   0.006592   0.008039   0.072932   0.027107   0.013585
     O   23   0.016582   0.007028   0.014960   0.107367   0.028195   0.035321
     C   24   0.004518   0.001996   0.002485   0.029124   0.008517   0.007584
     H   25   0.001572   0.000688   0.000917   0.008306   0.002652   0.002140
     H   26   0.001919   0.000771   0.001076   0.005469   0.001865   0.001212
     H   27   0.001253   0.000306   0.000684   0.007425   0.001827   0.003279
     C   28   0.007437   0.002425   0.002799   0.025524   0.009323   0.004261
     H   29   0.001272   0.000604   0.000874   0.001985   0.000863   0.000641
     H   30   0.000872   0.000471   0.000415   0.004949   0.002421   0.001186
     H   31   0.003471   0.001213   0.001098   0.011183   0.004017   0.001386
     O   32   0.003054   0.001489   0.001499   0.010722   0.004244   0.002888
     H   33   0.002152   0.000995   0.000988   0.007114   0.002897   0.001901
     H   34   0.001881   0.000898   0.000959   0.006553   0.002495   0.001815
     O   35   0.008044   0.005649   0.003956   0.019425   0.006763   0.005048
     H   36   0.002814   0.001699   0.000913   0.006515   0.003501   0.001751
     H   37   0.003884   0.002885   0.002161   0.006914   0.002120   0.001321
     O   38   0.007139   0.002589   0.003140   0.020838   0.007844   0.007254
     H   39   0.002855   0.001037   0.001349   0.008733   0.002907   0.002785
     H   40   0.007265   0.002439   0.003252   0.026116   0.009457   0.010286
     O   41   0.005277   0.002209   0.003416   0.016448   0.004927   0.004287
     H   42   0.004417   0.001781   0.002792   0.012498   0.003752   0.003694
     H   43   0.003366   0.001303   0.002141   0.011616   0.003332   0.002847


                  H 13       H 14       H 15       N 16       N 17       C 18
 ------------------------------------------------------------------------------
     H   13   4.377883
     H   14   0.006624   4.126250
     H   15   0.016680   0.007431   4.347202
     N   16   0.049461   0.093511   0.037483  13.104642
     N   17   0.061433   0.128095   0.043486   8.056406  11.878763
     C   18   0.032514   0.050998   0.040662   3.754668   2.291111  16.783667
     C   19   0.022282   0.104466   0.014609   1.468861   3.408428   0.287280
     O   20   0.008691   0.031099   0.006413   0.154138   1.225674   0.109080
     O   21   0.011557   0.013643   0.021051   1.624424   0.459713  10.708821
     O   22   0.009038   0.097328   0.005742   0.124213   1.038411   0.052315
     O   23   0.011606   0.013239   0.011911   1.216687   0.324458   3.931292
     C   24   0.003682   0.003901   0.003931   0.202264   0.109016   1.033333
     H   25   0.001271   0.001406   0.000943   0.050419   0.030132   0.126942
     H   26   0.001020   0.001314   0.001053   0.028956   0.018939   0.132842
     H   27   0.000794   0.000477   0.002679   0.031451   0.025422   0.105372
     C   28   0.002874   0.022886   0.001808   0.054545   0.185658   0.021500
     H   29   0.000580   0.003229   0.000494   0.008630   0.022890   0.007592
     H   30   0.000893   0.003167   0.000498   0.007790   0.025544   0.005138
     H   31   0.001080   0.021951   0.000566   0.015520   0.048925   0.006463
     O   32   0.002258   0.003403   0.001599   0.016469   0.034301   0.019733
     H   33   0.001515   0.001928   0.001054   0.010063   0.031675   0.013176
     H   34   0.001349   0.001716   0.000951   0.009959   0.020176   0.011978
     O   35   0.002308   0.042528   0.001980   0.043307   0.054367   0.028878
     H   36   0.001084   0.022015   0.000569   0.013738   0.017663   0.008546
     H   37   0.000637   0.026518   0.000749   0.017507   0.021002   0.011564
     O   38   0.004609   0.004760   0.003653   0.075885   0.145594   0.119886
     H   39   0.001581   0.001955   0.001387   0.029533   0.032115   0.075340
     H   40   0.004966   0.004701   0.003567   0.114088   0.085816   0.135381
     O   41   0.002581   0.003112   0.005115   0.072919   0.057931   0.117449
     H   42   0.002082   0.002397   0.004873   0.057800   0.044214   0.137859
     H   43   0.001613   0.001981   0.002324   0.060437   0.040995   0.126916


                  C 19       O 20       O 21       O 22       O 23       C 24
 ------------------------------------------------------------------------------
     C   19  16.876994
     O   20  11.080018  13.411690
     O   21   0.085486   0.044854  13.181928
     O   22   4.521674   1.879285   0.042527   9.642565
     O   23   0.062332   0.057716   1.853495   0.033787   9.299980
     C   24   0.022284   0.019491   0.114252   0.011555   3.407634  10.618737
     H   25   0.008436   0.007328   0.024815   0.003904   0.716276   3.322039
     H   26   0.006991   0.005600   0.044011   0.003594   0.673684   3.296246
     H   27   0.003290   0.002050   0.030140   0.001957   0.689488   3.342879
     C   28   1.082256   0.116806   0.014309   3.279173   0.011345   0.003642
     H   29   0.112503   0.037352   0.004253   0.685818   0.003320   0.001009
     H   30   0.138754   0.047010   0.003467   0.665983   0.004000   0.001403
     H   31   0.134355   0.025373   0.004984   0.702782   0.003944   0.001272
     O   32   0.115506   0.217355   0.010038   0.054976   0.011452   0.003922
     H   33   0.132864   0.074544   0.006656   0.039098   0.007612   0.002677
     H   34   0.108726   0.075054   0.006357   0.032861   0.007198   0.002416
     O   35   0.044296   0.019615   0.010326   0.045885   0.009015   0.002657
     H   36   0.014886   0.006567   0.002632   0.009793   0.003213   0.000994
     H   37   0.014677   0.006542   0.004822   0.010577   0.003328   0.000947
     O   38   0.064756   0.037974   0.057635   0.022665   0.119331   0.048212
     H   39   0.025256   0.016419   0.031096   0.009050   0.048497   0.014403
     H   40   0.070250   0.036376   0.053367   0.025144   0.111517   0.035727
     O   41   0.014838   0.009987   0.202730   0.008399   0.049189   0.062026
     H   42   0.011312   0.007936   0.098665   0.006433   0.037618   0.020196
     H   43   0.009490   0.006249   0.068729   0.005260   0.034698   0.011759


                  H 25       H 26       H 27       C 28       H 29       H 30
 ------------------------------------------------------------------------------
     H   25   4.216475
     H   26   0.527960   4.143676
     H   27   0.537454   0.546825   4.222665
     C   28   0.001189   0.001171   0.000706  10.503446
     H   29   0.000325   0.000399   0.000149   3.365069   4.225242
     H   30   0.000525   0.000330   0.000229   3.276500   0.540876   4.103767
     H   31   0.000374   0.000373   0.000301   3.251720   0.524867   0.517916
     O   32   0.001534   0.001177   0.000553   0.079605   0.023746   0.057885
     H   33   0.001073   0.000756   0.000362   0.014899   0.007614   0.034795
     H   34   0.000918   0.000736   0.000321   0.025711   0.016349   0.048684
     O   35   0.001003   0.000998   0.000418   0.070952   0.007626   0.007659
     H   36   0.000390   0.000322   0.000176   0.008785   0.001950   0.002828
     H   37   0.000355   0.000418   0.000171   0.008651   0.003779   0.001673
     O   38   0.024593   0.008762   0.006766   0.005585   0.001929   0.002129
     H   39   0.027627   0.005192   0.003476   0.002151   0.000846   0.000757
     H   40   0.019285   0.007270   0.004815   0.006929   0.001900   0.002175
     O   41   0.009996   0.051784   0.015616   0.002868   0.000977   0.000769
     H   42   0.005783   0.039951   0.023091   0.002195   0.000700   0.000575
     H   43   0.004335   0.034961   0.005763   0.001808   0.000632   0.000476


                  H 31       O 32       H 33       H 34       O 35       H 36
 ------------------------------------------------------------------------------
     H   31   4.127733
     O   32   0.013053   5.173453
     H   33   0.005507   3.075469   3.771698
     H   34   0.006423   3.088441   1.102823   3.783121
     O   35   0.038871   0.007227   0.003469   0.003727   5.133301
     H   36   0.022536   0.002675   0.001314   0.001312   3.056278   3.730728
     H   37   0.024139   0.002559   0.001232   0.001353   3.056461   1.099638
     O   38   0.001988   0.010044   0.007975   0.005333   0.003852   0.001367
     H   39   0.000757   0.004339   0.003248   0.002385   0.001646   0.000551
     H   40   0.002235   0.007694   0.005755   0.004169   0.003439   0.001203
     O   41   0.001046   0.002631   0.001654   0.001636   0.002669   0.000868
     H   42   0.000771   0.001877   0.001203   0.001169   0.001892   0.000589
     H   43   0.000659   0.001628   0.001018   0.001028   0.001684   0.000529


                  H 37       O 38       H 39       H 40       O 41       H 42
 ------------------------------------------------------------------------------
     H   37   3.724235
     O   38   0.001534   5.196942
     H   39   0.000677   3.091771   3.784709
     H   40   0.001319   3.024860   1.120568   3.785739
     O   41   0.001257   0.008898   0.005280   0.005927   5.147965
     H   42   0.000875   0.005959   0.003189   0.004371   3.065609   3.770566
     H   43   0.000786   0.005094   0.003078   0.003551   3.078687   1.110083


                  H 43
 ------------------
     H   43   3.773765


          HEAT OF FORMATION =    -237.534156 KCALS/MOLE


          TRIVIAL VIBRATIONS, SHOULD BE ZERO

  -6.9571=TX  -4.8464=TY  40.8962=TZ  -4.1492=RX -19.2149=RY  -5.7285=RZ


      MOLECULAR POINT GROUP   :   C1  


           EIGENVECTORS  


   Root No.       1         2         3         4         5         6         7         8

                 1 A       2 A       3 A       4 A       5 A       6 A       7 A       8 A   

                  -4.4      -0.0       0.0       0.0       0.0       0.0       0.0       0.0
  
           1   -0.2894   -0.0229    0.0568    0.0551    0.0266   -0.0241   -0.0027    0.0249
           2   -0.0779    0.0096   -0.0080    0.0304   -0.0533   -0.0438   -0.0212    0.0200
           3    0.7539   -0.0270    0.0457   -0.0133    0.0454    0.0387   -0.0070   -0.0576
           4    0.0016   -0.0246    0.0582    0.0561    0.0276   -0.0232   -0.0011    0.0251
           5    0.0144    0.0022    0.0170    0.0301   -0.0041    0.0045   -0.0304   -0.0354
           6   -0.1112   -0.0570    0.0764    0.0295    0.0269    0.0745   -0.0084   -0.0255
           7   -0.0224   -0.0135    0.0226    0.0556   -0.0424   -0.0909    0.0141    0.1044
           8   -0.0172    0.0049    0.0072    0.0299   -0.0233   -0.0145   -0.0265   -0.0139
           9    0.0063   -0.0213    0.0531    0.0247   -0.0693    0.0532   -0.0890   -0.0243
          10    0.0098   -0.0208    0.0375    0.0599   -0.0221   -0.0636    0.0085    0.0814
          11   -0.0479    0.0129   -0.0139    0.0317   -0.0726   -0.0545   -0.0246    0.0334
          12    0.0375   -0.0049    0.0354   -0.0107   -0.0126    0.0292   -0.0568   -0.0555
          13    0.0122   -0.0347    0.0744    0.0631    0.0419    0.0071   -0.0077    0.0052
          14    0.0206    0.0143   -0.0192    0.0310   -0.0906   -0.0617   -0.0257    0.0471
          15   -0.1096   -0.0156    0.0372   -0.0277    0.0914    0.0201    0.0068   -0.0776
          16   -0.0055   -0.0165    0.0292    0.0566   -0.0311   -0.0783    0.0135    0.0912
          17    0.0113    0.0151   -0.0282    0.0314   -0.0953   -0.0829   -0.0073    0.0626
          18   -0.0083    0.0172    0.0148   -0.0318   -0.0111    0.0105   -0.0715   -0.0703
          19   -0.0095   -0.0059    0.0261    0.0404   -0.0034   -0.0736    0.0078    0.0580
          20   -0.0043   -0.0066    0.0269    0.0269    0.0385    0.0200   -0.0109   -0.0547
          21   -0.0216   -0.0505    0.0761    0.0457   -0.0437    0.0747   -0.0565   -0.0070
          22    0.0028   -0.0110    0.0273    0.0481   -0.0175   -0.0769    0.0098    0.0752
          23   -0.0011   -0.0074    0.0414    0.0286    0.0550    0.0490   -0.0298   -0.0889
          24    0.0044   -0.0672    0.0924    0.0722   -0.0763    0.0879   -0.0661    0.0204
          25   -0.0114    0.0142    0.0073    0.0137    0.0185   -0.0861    0.0065    0.0295
          26   -0.0092   -0.0176    0.0334    0.0219    0.0904    0.0241    0.0306   -0.0611
          27    0.0036   -0.0498    0.0753    0.0444   -0.0425    0.0740   -0.0559   -0.0080
          28    0.2476   -0.0499    0.0757    0.0853   -0.0044   -0.0028    0.0009    0.0636
          29    0.0931    0.0185    0.0010    0.0352   -0.0840   -0.0164   -0.0761   -0.0093
          30   -0.0615   -0.0448    0.0669    0.0194    0.0230    0.0631   -0.0173   -0.0343
          31   -0.0352   -0.0678    0.1017    0.1070    0.0041    0.0344   -0.0048    0.0580
          32   -0.0283    0.0265   -0.0028    0.0393   -0.1225   -0.0181   -0.1066   -0.0043
          33   -0.0081   -0.0520    0.0708    0.0171    0.0527    0.0660    0.0059   -0.0380
          34   -0.0016   -0.0423    0.0548    0.0888   -0.0474   -0.0461    0.0076    0.1133
          35   -0.0830    0.0216   -0.0060    0.0368   -0.0990   -0.0308   -0.0751    0.0074
          36   -0.0005   -0.0204    0.0503    0.0133   -0.0375    0.0476   -0.0676   -0.0350
          37   -0.0153   -0.0562    0.0615    0.1124   -0.0786   -0.0445    0.0071    0.1532
          38   -0.0135    0.0318   -0.0133    0.0412   -0.1466   -0.0386   -0.1082    0.0184
          39    0.0046   -0.0119    0.0447    0.0126   -0.0622    0.0426   -0.0883   -0.0342
          40   -0.0113   -0.0247    0.0664    0.0486    0.0585   -0.0034   -0.0053   -0.0094
          41   -0.0082   -0.0037    0.0258    0.0279    0.0241    0.0207   -0.0237   -0.0547
          42   -0.0000   -0.0811    0.0904    0.0359    0.0627    0.0946    0.0295   -0.0176
          43   -0.0054   -0.0046    0.0027    0.0507   -0.0717   -0.1273    0.0215    0.1377
          44   -0.0011    0.0024    0.0089    0.0288   -0.0121   -0.0127   -0.0186   -0.0164
          45   -0.0043   -0.0105    0.0480    0.0304   -0.1195    0.0489   -0.1276   -0.0165
          46    0.0664    0.0261    0.0169   -0.0039    0.0738   -0.0527    0.0162   -0.0313
          47    0.0871   -0.0053   -0.0084    0.0189    0.0381   -0.0915    0.0309    0.0219
          48   -0.0354   -0.0211    0.0412   -0.0140    0.0377    0.0461   -0.0199   -0.0650
          49    0.0547    0.0088    0.0396    0.0189    0.0677   -0.0453    0.0019   -0.0230
          50    0.0512   -0.0033   -0.0196    0.0173   -0.0074   -0.0678    0.0203    0.0324
          51   -0.4255   -0.0138    0.0387   -0.0240    0.0760    0.0244   -0.0051   -0.0779
          52    0.0326    0.0228   -0.0133   -0.0187    0.0490   -0.0143    0.0209   -0.0156
          53   -0.1110   -0.0075   -0.0160    0.0144    0.0347   -0.0809    0.0329    0.0285
          54    0.0147   -0.0064    0.0306   -0.0162   -0.0029    0.0572   -0.0336   -0.0767
          55   -0.0293    0.0131    0.0476    0.0153    0.0943   -0.0411   -0.0157   -0.0584
          56    0.0822   -0.0033   -0.0144    0.0194    0.0061   -0.0742    0.0203    0.0250
          57   -0.0236   -0.0251    0.0452   -0.0145    0.1146   -0.0067    0.0214   -0.0702
          58    0.0299    0.0337    0.0956    0.0507    0.1513   -0.0468   -0.0277   -0.1138
          59    0.0327    0.0017   -0.0015    0.0399    0.0221   -0.0953    0.0354    0.0341
          60    0.0002    0.0167    0.1446    0.0746    0.2330   -0.0481    0.0224   -0.1494
          61   -0.0270    0.0248   -0.0299   -0.0399    0.0274    0.0016    0.0442   -0.0045
          62    0.0099   -0.0100    0.0108    0.0156    0.0526   -0.1240    0.0538    0.0353
          63    0.0112   -0.0047    0.0042    0.0128   -0.0045    0.1160   -0.1073   -0.1065
          64   -0.0013   -0.0184   -0.0190   -0.0428    0.0290   -0.0234   -0.0093   -0.0120
          65   -0.0166   -0.0127   -0.0379   -0.0087   -0.0173   -0.0431    0.0038    0.0164
          66   -0.0142   -0.0862   -0.0822   -0.1186   -0.0100    0.0103    0.0453    0.0358
          67   -0.0103    0.0202   -0.0254   -0.0099    0.0571    0.0160   -0.0065   -0.0257
          68    0.0191   -0.0071   -0.0622    0.0072    0.0161   -0.0019    0.0026    0.0165
          69   -0.0170    0.0045    0.0557   -0.0553   -0.0467   -0.0225    0.0634   -0.0396
          70    0.0037    0.0193   -0.0734   -0.0273    0.0469    0.1098   -0.0366   -0.0448
          71   -0.0090   -0.0085   -0.0825   -0.0003    0.0186    0.0463   -0.0189    0.0060
          72   -0.0059    0.0143    0.0547   -0.0566   -0.1070   -0.0853    0.1378   -0.0282
          73    0.0025    0.0187   -0.0932   -0.0124    0.0775    0.1109   -0.0624   -0.0460
          74    0.0041   -0.0085   -0.1482   -0.0021    0.0285    0.1293   -0.0610   -0.0151
          75    0.0017    0.0166    0.1988   -0.1241   -0.2562   -0.1549    0.2912   -0.0092
          76    0.0031    0.0223    0.0388   -0.0914   -0.0923    0.0678    0.0964   -0.0331
          77   -0.0041   -0.0144   -0.0101   -0.0270   -0.0044    0.0548   -0.0069    0.0064
          78   -0.0047    0.0157    0.0135   -0.0379   -0.0780   -0.0822    0.1145   -0.0301
          79   -0.0000    0.0158   -0.1967    0.0117    0.1512    0.2129   -0.1652   -0.0703
          80    0.0008   -0.0033   -0.1044    0.0227    0.0314   -0.0075   -0.0059    0.0163
          81    0.0047    0.0166   -0.0464   -0.0101   -0.0268   -0.0657    0.0647   -0.0354
          82    0.0037   -0.0331   -0.0615   -0.0521   -0.0131    0.0052   -0.0114   -0.0066
          83    0.0051   -0.0167   -0.0483   -0.0108   -0.0278   -0.0365    0.0032    0.0177
          84   -0.0013   -0.1075   -0.1330   -0.1035   -0.0575   -0.0206    0.0776    0.0849
          85   -0.0007    0.0851   -0.0965    0.0817   -0.0784    0.0344   -0.0285    0.0454
          86    0.0010    0.0014   -0.1107    0.0367   -0.0991   -0.0457    0.0233    0.0811
          87   -0.0004   -0.1241   -0.1439   -0.1144   -0.0655   -0.0286    0.0865    0.0930
          88    0.0013   -0.0925   -0.0739   -0.1140   -0.0139    0.0085   -0.0049   -0.0213
          89    0.0016   -0.0183    0.0064   -0.0285    0.0328   -0.0490   -0.0036   -0.0168
          90    0.0036   -0.0009   -0.1778    0.0297   -0.1305   -0.0110    0.0749    0.1531
          91    0.0003   -0.1085   -0.0479   -0.1307    0.0173   -0.0078   -0.0009   -0.0355
          92   -0.0054   -0.0382   -0.0489   -0.0425   -0.0247   -0.0085   -0.0107   -0.0110
          93    0.0032   -0.2189   -0.1124   -0.2201   -0.0125   -0.0400    0.0924    0.0413
          94   -0.0012   -0.0339   -0.1356    0.0015   -0.1443    0.0434   -0.0415    0.0032
          95   -0.0005   -0.0096    0.1422   -0.0775    0.2569   -0.1415    0.0377   -0.0424
          96   -0.0024    0.0952   -0.0532    0.3868   -0.1305   -0.0067    0.0296   -0.0372
          97    0.0009   -0.0354   -0.1103   -0.0405   -0.0924   -0.0002   -0.0188    0.0242
          98    0.0017   -0.0139    0.1918   -0.1219    0.3407   -0.1707    0.0456   -0.0583
          99    0.0025    0.0846    0.0566    0.3229    0.0389   -0.0221    0.0168   -0.1223
         100    0.0015   -0.0108   -0.0548    0.0988   -0.0836    0.0512   -0.0552   -0.0966
         101    0.0023    0.0129    0.0432    0.0529    0.0715   -0.1054    0.0379    0.0043
         102    0.0002    0.0870   -0.0653    0.3498   -0.1297   -0.0114    0.0329   -0.0158
         103   -0.0039    0.0333   -0.0058   -0.0805    0.0187   -0.0241   -0.0062   -0.0370
         104    0.0147    0.0110   -0.0115   -0.0483    0.0122    0.1059    0.0419   -0.0079
         105   -0.0064    0.0152   -0.0199   -0.1594    0.0161    0.0449    0.1286    0.0419
         106    0.0023    0.5909   -0.0342   -0.1460   -0.0083   -0.0899   -0.0898   -0.0743
         107   -0.0048    0.1715    0.1470    0.0821    0.1862    0.5558    0.4628    0.4223
         108    0.0018    0.1338   -0.0814   -0.2229   -0.0501   -0.1253   -0.0373   -0.1130
         109   -0.0005   -0.3170    0.0119   -0.0406    0.0362    0.0188    0.0486   -0.0123
         110   -0.0031   -0.0938   -0.1062   -0.2241   -0.0176    0.0242    0.0637   -0.0799
         111    0.0034    0.5425   -0.0151   -0.1603    0.0007    0.0102    0.0446    0.0298
         112   -0.0059    0.0072    0.0091    0.0122    0.0537    0.0042    0.0361   -0.1118
         113   -0.0051   -0.0040   -0.1460   -0.0143   -0.0528    0.1232    0.0523   -0.1170
         114   -0.0066    0.0211    0.0124   -0.0965    0.1164   -0.0449   -0.2970    0.3952
         115    0.0049    0.0151   -0.0422   -0.0207    0.0838    0.0406   -0.1131    0.0304
         116    0.0030   -0.0086   -0.2406   -0.0349    0.0401    0.2963   -0.1674   -0.0980
         117   -0.0001    0.0228    0.0170   -0.0986    0.1082   -0.0621   -0.2898    0.4133
         118    0.0093    0.0056    0.0199    0.0190    0.0476   -0.0046    0.0656   -0.1385
         119    0.0017    0.0013   -0.0148    0.0238   -0.0709   -0.0694    0.1747   -0.0581
         120    0.0152    0.0118    0.0433   -0.0690    0.0890   -0.0507   -0.1669    0.2420
         121    0.0085    0.0219    0.0546   -0.1388   -0.1645    0.1312    0.0967   -0.0402
         122    0.0103   -0.0133    0.2395   -0.0747   -0.1208    0.0838   -0.1376   -0.0519
         123    0.0070    0.0027   -0.2777    0.1039    0.1737   -0.1243    0.1489   -0.0047
         124   -0.0074    0.0212    0.0148   -0.1073   -0.1059    0.1859    0.0011   -0.0590
         125   -0.0102   -0.0112    0.0747   -0.0113    0.0093   -0.0587   -0.0003    0.0099
         126   -0.0032    0.0025   -0.2967    0.1177    0.1997   -0.1044    0.1127   -0.0113
         127   -0.0051    0.0251    0.0626   -0.1336   -0.1445    0.0069    0.1908   -0.0031
         128   -0.0066   -0.0130    0.3063   -0.0947   -0.1594    0.1075   -0.1769   -0.0679
         129   -0.0079    0.0018   -0.1289    0.0559    0.0769   -0.0169    0.0203   -0.0566


   Root No.       9        10        11        12        13        14        15        16

                 9 A      10 A      11 A      12 A      13 A      14 A      15 A      16 A   

                   0.0       0.0       0.0       0.0       0.0       0.0       0.0       0.0
  
           1   -0.0141   -0.0563    0.0121    0.0000    0.0141    0.0190    0.0359   -0.0355
           2   -0.0058    0.0194   -0.0134   -0.0176    0.0170    0.0039   -0.0240   -0.0248
           3    0.0455    0.0124   -0.0175   -0.0153   -0.0236   -0.0386    0.0313    0.0257
           4   -0.0166   -0.0579    0.0112   -0.0009    0.0163    0.0210    0.0355   -0.0273
           5   -0.0300   -0.1033   -0.0339   -0.0152    0.0462    0.0122   -0.0233   -0.0856
           6   -0.0086   -0.0918   -0.0225    0.0107   -0.0016   -0.0395    0.0852    0.0430
           7    0.0184    0.1169    0.0418   -0.0033   -0.0260    0.0062    0.0408    0.0593
           8   -0.0208   -0.0558   -0.0262   -0.0168    0.0358    0.0095   -0.0247   -0.0642
           9    0.0448    0.0520    0.0219    0.0463   -0.0600   -0.0875   -0.0593   -0.0439
          10    0.0016    0.0461    0.0310    0.0005   -0.0112    0.0095    0.0456    0.0293
          11    0.0014    0.0542   -0.0054   -0.0146    0.0082   -0.0012   -0.0334   -0.0170
          12    0.0691    0.0927    0.0060    0.0077   -0.0468   -0.0586   -0.0511   -0.0236
          13   -0.0345   -0.1402    0.0097    0.0064    0.0259    0.0178    0.0438   -0.0677
          14    0.0050    0.0833   -0.0029   -0.0152    0.0036   -0.0020   -0.0360   -0.0043
          15    0.0604    0.0302   -0.0320   -0.0293   -0.0197   -0.0274    0.0396    0.0369
          16    0.0108    0.0835    0.0353   -0.0033   -0.0164    0.0100    0.0440    0.0460
          17    0.0142    0.1224    0.0042   -0.0205   -0.0024   -0.0026   -0.0213    0.0323
          18    0.0989    0.1645    0.0128   -0.0029   -0.0535   -0.0526   -0.0971   -0.0445
          19    0.0209    0.0800    0.0268   -0.0110   -0.0120    0.0162    0.0190    0.0086
          20   -0.0469   -0.1667   -0.0532   -0.0279    0.0703    0.0304    0.0090   -0.0836
          21    0.0028   -0.0499    0.0077    0.0433   -0.0338   -0.0748    0.0263    0.0098
          22    0.0171    0.0845    0.0327   -0.0070   -0.0162    0.0119    0.0301    0.0292
          23   -0.0569   -0.2315   -0.0604   -0.0203    0.0813    0.0284   -0.0110   -0.1372
          24   -0.0175   -0.0902    0.0227    0.0633   -0.0399   -0.0922    0.0454    0.0321
          25    0.0462    0.1340    0.0147   -0.0250   -0.0121    0.0267   -0.0192   -0.0265
          26   -0.0668   -0.2221   -0.0761   -0.0503    0.1000    0.0566    0.0734   -0.0488
          27    0.0039   -0.0477    0.0078    0.0425   -0.0339   -0.0747    0.0250    0.0092
          28   -0.0501   -0.1207    0.0186    0.0187    0.0173    0.0077    0.0802   -0.0119
          29   -0.0008   -0.0028    0.0015    0.0102    0.0043   -0.0225   -0.1000   -0.1212
          30    0.0095   -0.0486   -0.0182    0.0083   -0.0105   -0.0416    0.0544    0.0327
          31   -0.0890   -0.2324    0.0074    0.0333    0.0415    0.0096    0.1174   -0.0314
          32    0.0094    0.0329    0.0174    0.0277   -0.0124   -0.0400   -0.1512   -0.1589
          33    0.0001   -0.0800   -0.0309   -0.0043    0.0032   -0.0283    0.0944    0.0601
          34   -0.0290   -0.0083    0.0355    0.0205   -0.0092   -0.0011    0.0796    0.0477
          35    0.0060    0.0367    0.0068    0.0116   -0.0039   -0.0249   -0.1029   -0.1027
          36    0.0462    0.0473    0.0112    0.0289   -0.0484   -0.0724   -0.0386   -0.0256
          37   -0.0477   -0.0195    0.0418    0.0366   -0.0137   -0.0096    0.1084    0.0804
          38    0.0227    0.0907    0.0274    0.0308   -0.0296   -0.0487   -0.1561   -0.1345
          39    0.0594    0.0825    0.0228    0.0385   -0.0636   -0.0858   -0.0760   -0.0502
          40   -0.0200   -0.1014    0.0020   -0.0052    0.0264    0.0261    0.0141   -0.0453
          41   -0.0422   -0.1538   -0.0460   -0.0211    0.0614    0.0215   -0.0136   -0.0873
          42   -0.0457   -0.1678   -0.0427   -0.0004    0.0320   -0.0133    0.1435    0.0725
          43    0.0409    0.2134    0.0553   -0.0092   -0.0458    0.0035    0.0387    0.1055
          44   -0.0247   -0.0683   -0.0315   -0.0217    0.0422    0.0158   -0.0115   -0.0562
          45    0.0604    0.0992    0.0464    0.0707   -0.0882   -0.1177   -0.1238   -0.0898
          46    0.0287    0.0596   -0.0370   -0.0366    0.0431    0.0742    0.0060   -0.0857
          47    0.0164    0.0014    0.0176   -0.0422   -0.0137   -0.0214    0.0112    0.0302
          48    0.0464    0.0144   -0.0329   -0.0138   -0.0176   -0.0271    0.0308    0.0139
          49    0.0267    0.0202    0.0016   -0.0187    0.0149    0.0348    0.0004   -0.0712
          50   -0.0015   -0.0003   -0.0160   -0.0425    0.0135    0.0116    0.0155    0.0072
          51    0.0610    0.0333   -0.0252   -0.0226   -0.0250   -0.0329    0.0312    0.0247
          52    0.0011    0.0425   -0.0795   -0.0251    0.0418    0.0618    0.0148   -0.0620
          53    0.0080   -0.0060    0.0076   -0.0397   -0.0180   -0.0317    0.0155    0.0374
          54    0.0430    0.0373   -0.0623   -0.0189    0.0183    0.0538    0.0256   -0.0029
          55    0.0504    0.0185    0.0292    0.0055   -0.0189   -0.0033   -0.0336   -0.0348
          56    0.0044   -0.0008   -0.0039   -0.0361    0.0032   -0.0016    0.0066    0.0141
          57    0.0700    0.0252    0.0087   -0.0059   -0.0502   -0.0696    0.0248    0.0434
          58    0.0338    0.0273    0.0490    0.0502   -0.0472   -0.0394   -0.0859    0.0345
          59   -0.0080    0.0078    0.0050   -0.0316    0.0129    0.0120    0.0079   -0.0037
          60    0.0252    0.0530    0.0551    0.0726   -0.0838   -0.1100   -0.0590    0.1302
          61   -0.0234    0.0099   -0.0659   -0.0211    0.0347    0.0436    0.0201   -0.0426
          62    0.0195   -0.0115    0.0595   -0.0528   -0.0193   -0.0636    0.0168    0.0274
          63    0.0578    0.0940   -0.1775   -0.0003    0.0305    0.1406    0.0157   -0.0122
          64    0.0846    0.0025    0.0128   -0.0326   -0.0128   -0.0011    0.0057   -0.0836
          65    0.0241   -0.0162   -0.0120   -0.0350   -0.0087   -0.0205    0.0039    0.0390
          66    0.1327    0.0019   -0.0188   -0.0881   -0.0282   -0.0500    0.1124   -0.0807
          67    0.0042    0.0578   -0.1255   -0.0138    0.0401    0.0683    0.0122   -0.0610
          68   -0.0111   -0.0092   -0.0541   -0.0151   -0.0305   -0.0212    0.0110    0.0704
          69    0.0151   -0.0305    0.0734   -0.0492    0.0239    0.0321    0.0382    0.0077
          70   -0.0170    0.0247   -0.1342    0.0156   -0.0047    0.0482   -0.0025   -0.0402
          71   -0.0185   -0.0236   -0.0595    0.0003   -0.0603   -0.0370    0.0019    0.0741
          72    0.0011   -0.0406    0.1238   -0.0738    0.1002    0.0964    0.0604    0.0627
          73   -0.0049    0.0524   -0.1176    0.0034    0.0781    0.0189    0.0069   -0.0402
          74   -0.0279   -0.0330   -0.0314    0.0122   -0.0196   -0.0669   -0.0003    0.1073
          75   -0.0460   -0.1629    0.0287   -0.0269   -0.3202    0.2599    0.0181    0.0369
          76   -0.0645   -0.0922   -0.2059    0.0611   -0.3674    0.1877   -0.0415   -0.0518
          77   -0.0253   -0.0635   -0.1476    0.0376   -0.3060   -0.0010   -0.0333    0.0167
          78    0.0103   -0.0103    0.1629   -0.0931    0.2323    0.0659    0.0780    0.0838
          79    0.0058    0.0923   -0.0843    0.0031    0.2484   -0.0793    0.0153   -0.0171
          80   -0.0058    0.0157    0.0021   -0.0380    0.1141   -0.0449    0.0311    0.1044
          81    0.0274    0.0395    0.2121   -0.1167    0.4239    0.0054    0.0987    0.1054
          82    0.1086   -0.0169    0.0062    0.0318   -0.0148   -0.0148   -0.0401   -0.0169
          83    0.0294   -0.0214   -0.0145   -0.0202   -0.0097   -0.0247   -0.0054    0.0569
          84    0.1490   -0.0067   -0.0059   -0.0048    0.0123   -0.0158    0.0240   -0.1413
          85    0.3228   -0.1450   -0.0075    0.3407    0.0657    0.0920   -0.0840    0.1254
          86    0.1176   -0.0733   -0.0129    0.1451    0.0520    0.0405   -0.0872    0.0540
          87    0.1343    0.0024   -0.0026   -0.0138    0.0152   -0.0167    0.0087   -0.1703
          88    0.0334    0.0251    0.0059   -0.0666   -0.0477   -0.0646   -0.0427   -0.0424
          89   -0.0273    0.0158   -0.0090   -0.1284   -0.0378   -0.0486    0.0502    0.0227
          90    0.3503   -0.1259   -0.0117    0.3053    0.1064    0.1035   -0.0421   -0.0572
          91   -0.0179    0.0568    0.0132   -0.1364   -0.0596   -0.0753   -0.0244   -0.0889
          92    0.0029   -0.0123   -0.0223   -0.0553   -0.0403   -0.0649    0.0080    0.1112
          93   -0.0393    0.1023    0.0045   -0.2533   -0.0538   -0.1053    0.0479   -0.2493
          94    0.0150   -0.0150   -0.0673   -0.1936   -0.0583   -0.0822    0.0277    0.2378
          95    0.0992    0.0085    0.0627    0.0938   -0.0207   -0.0250   -0.0643    0.0073
          96   -0.1808    0.0738    0.0334    0.0199    0.0164    0.0278    0.0004   -0.1284
          97    0.1262   -0.0426   -0.0641   -0.0649   -0.0272   -0.0615   -0.0410    0.3093
          98    0.1666    0.0008    0.0813    0.1806   -0.0290   -0.0443   -0.1317    0.1247
          99   -0.1662    0.0990    0.0840    0.0641   -0.0584   -0.0618   -0.0833    0.0844
         100   -0.1670    0.0758   -0.0187   -0.2596   -0.1117   -0.1275    0.0175    0.1358
         101   -0.0362    0.0286    0.0251   -0.0313    0.0305    0.0506    0.0516   -0.3075
         102   -0.1221    0.0485    0.0238    0.0461    0.0258    0.0332   -0.0051   -0.0789
         103   -0.1182    0.0315    0.0347    0.0649    0.0124    0.0523   -0.1530    0.1024
         104   -0.0868    0.0392   -0.0012    0.1320    0.0006   -0.0159    0.0908    0.0043
         105   -0.2582    0.0658    0.0113    0.0281    0.1341    0.1563   -0.3503    0.0511
         106    0.0368   -0.0070    0.0271    0.0303   -0.1061   -0.1062    0.2346    0.0154
         107    0.0583    0.2250    0.0388   -0.0721   -0.0143    0.0007   -0.0615   -0.0315
         108   -0.2588   -0.0082   -0.0046    0.0853    0.1031    0.1025   -0.1815    0.0360
         109   -0.2177    0.0593    0.0409    0.0893    0.0860    0.1520   -0.3942    0.1577
         110   -0.3220    0.3155    0.0907    0.5346   -0.0310   -0.0013    0.4601   -0.0495
         111   -0.0440   -0.0606   -0.0265   -0.1344    0.0405    0.0115   -0.1293   -0.0089
         112    0.0581    0.0275    0.0640   -0.0386    0.0041    0.0907    0.0084   -0.1377
         113    0.0181   -0.0190    0.0925   -0.0655   -0.0382    0.0799    0.0511    0.1389
         114   -0.1464   -0.0754    0.0069    0.0005   -0.0189    0.0336    0.0182    0.0297
         115    0.0034   -0.0405    0.2771   -0.0611   -0.0438    0.2013    0.0158   -0.1902
         116    0.0172   -0.1304    0.5635   -0.0699   -0.2311    0.2001    0.0107    0.1289
         117   -0.1543   -0.0712   -0.0206   -0.0031   -0.0004    0.0356    0.0252    0.0223
         118    0.0686    0.0418    0.0197   -0.0347    0.0148    0.0705    0.0078   -0.1285
         119   -0.0100    0.0614   -0.3326   -0.0128    0.0763   -0.0665    0.0460    0.1880
         120   -0.0861   -0.0208   -0.1311    0.0130    0.0093   -0.0483    0.0122    0.0685
         121   -0.0830   -0.1462    0.0322    0.1066    0.1417   -0.3045   -0.0626   -0.0244
         122    0.0877    0.1076   -0.0426   -0.0572    0.1060    0.1074    0.0538    0.0547
         123   -0.0382   -0.0763   -0.0360    0.0046   -0.0565   -0.0540   -0.0033    0.0086
         124   -0.0614   -0.0658   -0.1387    0.1054    0.0070   -0.1110   -0.0720   -0.0575
         125    0.0351    0.0032    0.0840   -0.0429   -0.0391   -0.2208   -0.0391   -0.0272
         126   -0.0306   -0.0464   -0.0999    0.0050   -0.1121    0.0094   -0.0108   -0.0079
         127   -0.0879   -0.1756    0.1568    0.0441    0.1085   -0.3001   -0.0292   -0.0019
         128    0.1119    0.1546   -0.0789   -0.0868    0.1365    0.2826    0.1056    0.0941
         129    0.0181    0.0406   -0.1686   -0.0338    0.0211    0.3291    0.0951    0.0839


   Root No.      17        18        19        20        21        22        23        24

                17 A      18 A      19 A      20 A      21 A      22 A      23 A      24 A   

                   0.0       0.0       0.0       0.0       0.0       0.0       0.0       0.1
  
           1   -0.0008   -0.0203   -0.0130   -0.0181    0.0191    0.0096    0.0179   -0.0563
           2   -0.0078   -0.0344    0.0297    0.0295   -0.0481    0.0016   -0.0040   -0.0500
           3   -0.0618    0.0411    0.0699    0.0189   -0.0414   -0.0172   -0.0610   -0.0633
           4   -0.0036   -0.0157   -0.0108   -0.0140    0.0146    0.0081    0.0158   -0.0528
           5   -0.0075   -0.0544    0.0074   -0.0135   -0.0133   -0.0030   -0.0015   -0.0517
           6   -0.0389    0.0227    0.0345    0.0161   -0.0267   -0.0072   -0.0329    0.0009
           7   -0.0061    0.0092    0.0239    0.0486   -0.0388    0.0239    0.0082   -0.0678
           8   -0.0080   -0.0482    0.0165    0.0029   -0.0283   -0.0013   -0.0031   -0.0561
           9   -0.0042    0.0058    0.0124   -0.0532    0.0485   -0.0003   -0.0410    0.0391
          10   -0.0020   -0.0028    0.0067    0.0235   -0.0180    0.0209    0.0130   -0.0564
          11   -0.0055   -0.0327    0.0331    0.0357   -0.0527    0.0054   -0.0049   -0.0506
          12   -0.0443    0.0268    0.0614   -0.0083   -0.0061   -0.0133   -0.0547   -0.0593
          13    0.0070   -0.0341   -0.0381   -0.0539    0.0508    0.0100    0.0153   -0.0384
          14   -0.0108   -0.0299    0.0422    0.0458   -0.0696    0.0068   -0.0088   -0.0625
          15   -0.0655    0.0545    0.0854    0.0449   -0.0476   -0.0280   -0.0462   -0.0631
          16   -0.0065    0.0036    0.0167    0.0387   -0.0322    0.0226    0.0102   -0.0663
          17   -0.0124   -0.0187    0.0503    0.0708   -0.0857    0.0124   -0.0124   -0.0540
          18   -0.0544    0.0326    0.0826   -0.0003   -0.0136   -0.0231   -0.0482   -0.1106
          19   -0.0158   -0.0008    0.0251    0.0225   -0.0187    0.0138    0.0041   -0.0940
          20   -0.0197   -0.0550    0.0110   -0.0068   -0.0257   -0.0104    0.0005   -0.0701
          21   -0.0044    0.0118    0.0014   -0.0262    0.0216    0.0028   -0.0295    0.0639
          22   -0.0106    0.0036    0.0217    0.0318   -0.0256    0.0181    0.0064   -0.0787
          23   -0.0111   -0.0709   -0.0117   -0.0487    0.0130   -0.0162    0.0038   -0.0525
          24    0.0208    0.0133   -0.0304   -0.0328    0.0334    0.0122   -0.0206    0.1337
          25   -0.0365   -0.0053    0.0531    0.0164   -0.0162    0.0053   -0.0072   -0.1462
          26   -0.0451   -0.0498    0.0321    0.0287   -0.0661   -0.0146   -0.0041   -0.1121
          27   -0.0058    0.0121    0.0030   -0.0261    0.0215    0.0025   -0.0317    0.0622
          28    0.0159   -0.0308   -0.0425   -0.0303    0.0286    0.0246    0.0202   -0.0015
          29    0.0190   -0.0653   -0.0090   -0.0496    0.0266    0.0060   -0.0071   -0.0204
          30   -0.0418    0.0272    0.0436    0.0155   -0.0250   -0.0107   -0.0372   -0.0102
          31    0.0289   -0.0526   -0.0766   -0.0565    0.0549    0.0308    0.0371    0.0313
          32    0.0362   -0.0790   -0.0248   -0.0814    0.0613    0.0117   -0.0057   -0.0004
          33   -0.0547    0.0365    0.0546    0.0383   -0.0500   -0.0144   -0.0380   -0.0248
          34    0.0190   -0.0117   -0.0221    0.0147   -0.0023    0.0313    0.0236    0.0090
          35    0.0202   -0.0596   -0.0017   -0.0342    0.0174    0.0079   -0.0044   -0.0166
          36   -0.0223    0.0154    0.0322   -0.0295    0.0210   -0.0053   -0.0462    0.0015
          37    0.0381   -0.0139   -0.0409    0.0225    0.0003    0.0424    0.0416    0.0694
          38    0.0400   -0.0699   -0.0160   -0.0645    0.0517    0.0150   -0.0061    0.0116
          39   -0.0131    0.0095    0.0263   -0.0492    0.0420   -0.0026   -0.0497    0.0100
          40   -0.0044   -0.0076   -0.0205   -0.0328    0.0252   -0.0013    0.0137   -0.0600
          41   -0.0124   -0.0499    0.0032   -0.0176   -0.0167   -0.0100   -0.0018   -0.0585
          42   -0.0553    0.0193    0.0437    0.0412   -0.0537   -0.0061   -0.0289   -0.0074
          43   -0.0107    0.0270    0.0481    0.0879   -0.0750    0.0281    0.0077   -0.0881
          44   -0.0123   -0.0460    0.0200    0.0112   -0.0382   -0.0030   -0.0014   -0.0640
          45    0.0174   -0.0083   -0.0069   -0.0985    0.1008    0.0072   -0.0530    0.0772
          46   -0.0676   -0.0420    0.0571    0.0049   -0.0129   -0.0110    0.0063   -0.0519
          47    0.0149    0.0139    0.0351    0.0509   -0.0172   -0.0152   -0.0318    0.0064
          48   -0.0580    0.0375    0.0618    0.0187   -0.0446   -0.0259   -0.0327   -0.0536
          49   -0.0284   -0.0255    0.0341    0.0054    0.0096    0.0007    0.0082   -0.0622
          50   -0.0072   -0.0056    0.0273    0.0337   -0.0392   -0.0256   -0.0165   -0.0007
          51   -0.0595    0.0450    0.0782    0.0324   -0.0380   -0.0246   -0.0452   -0.0445
          52   -0.0936   -0.0418    0.0293   -0.0678    0.0111    0.0116   -0.0340   -0.0449
          53    0.0033    0.0158    0.0363    0.0259   -0.0103   -0.0083   -0.0624    0.0024
          54   -0.0497    0.0137    0.0137    0.0383   -0.0612   -0.0481    0.0877    0.0062
          55    0.0184    0.0082   -0.0038    0.0063    0.0471    0.0416    0.0303   -0.0448
          56    0.0095   -0.0012    0.0177    0.0355   -0.0208   -0.0171   -0.0149    0.0060
          57   -0.0067    0.0464    0.0402    0.0274    0.0293    0.0117   -0.0494   -0.0052
          58    0.0575    0.0296   -0.0416    0.0023    0.1400    0.1079    0.0539    0.0093
          59    0.0138   -0.0296    0.0223    0.0454    0.0255   -0.0301   -0.0093    0.0216
          60    0.0648    0.0362   -0.0148    0.0360    0.2525    0.1003   -0.0018    0.1055
          61   -0.1265   -0.0436    0.0062   -0.1363    0.0513    0.0488   -0.1519   -0.0710
          62   -0.0144    0.0209    0.0822    0.0348   -0.0152   -0.0043   -0.1477   -0.0581
          63    0.0314    0.0068   -0.0395    0.1216   -0.1109   -0.1099    0.4262    0.1625
          64    0.0117    0.0219   -0.0091   -0.0116   -0.0668    0.0235    0.0092   -0.0897
          65    0.0107    0.0454    0.0061    0.0256   -0.0734    0.0060   -0.0257   -0.0027
          66   -0.0213    0.0391    0.0399    0.0013   -0.1757   -0.0430   -0.0860   -0.0950
          67   -0.0717   -0.0390    0.0248   -0.0559   -0.0018   -0.0042    0.0557    0.0025
          68    0.0185    0.0233   -0.0196   -0.0118    0.0074   -0.0035    0.0431    0.0800
          69   -0.1344    0.0011   -0.0046   -0.0390    0.0041    0.0200   -0.2320   -0.1285
          70   -0.0783   -0.0289   -0.0059   -0.1052    0.0267    0.0137    0.0700    0.0121
          71    0.0095    0.0286   -0.0206   -0.0340    0.0168    0.0041    0.0216    0.0711
          72   -0.0771   -0.0027   -0.1286   -0.0199    0.0402    0.0231    0.0152    0.0048
          73   -0.0815   -0.0298   -0.0007   -0.1005    0.0224    0.0123    0.0475    0.0027
          74    0.0139    0.0397   -0.0685   -0.0733    0.0496    0.0205    0.0785    0.0896
          75   -0.0714   -0.0068   -0.1209   -0.0129    0.0386    0.0182    0.0925    0.0283
          76   -0.0695   -0.0303   -0.0238   -0.1071    0.0376    0.0144    0.1728    0.0481
          77   -0.0283    0.0275    0.0743   -0.0300   -0.0188   -0.0068   -0.1179   -0.0129
          78   -0.0691   -0.0022   -0.1574   -0.0256    0.0519    0.0273    0.0494    0.0276
          79   -0.0943   -0.0203   -0.0234   -0.1337    0.0403    0.0253    0.0189   -0.0084
          80    0.0371    0.0242   -0.0789   -0.0086    0.0295    0.0048    0.1126    0.1261
          81   -0.0644   -0.0013   -0.1924   -0.0170    0.0605    0.0314    0.0623    0.0416
          82    0.0395    0.0703   -0.0673   -0.0352   -0.0203    0.0918    0.0309   -0.0176
          83    0.0171    0.0591   -0.0084    0.0194   -0.0645    0.0234   -0.0224    0.0158
          84    0.0532   -0.0419   -0.0663   -0.0474   -0.0276    0.0079    0.0033    0.0007
          85   -0.0790    0.1719    0.0442    0.0185   -0.0802    0.1834    0.0028   -0.0062
          86    0.0337    0.0298   -0.0554   -0.0032    0.0173    0.0900    0.0380    0.0939
          87    0.0803   -0.0680   -0.1015   -0.0647    0.0066    0.0098    0.0258    0.0207
          88    0.1006    0.0531   -0.1422   -0.0699    0.0246    0.0928    0.0545    0.0140
          89    0.0004    0.0454    0.0380    0.0404   -0.1263   -0.0362   -0.0583   -0.0542
          90   -0.0334    0.0082    0.0056   -0.0147   -0.0343    0.0808    0.0069    0.0289
          91    0.1107    0.0189   -0.1400   -0.0702    0.0180    0.0503    0.0515   -0.0142
          92    0.0214    0.1148   -0.0190    0.0172   -0.0867    0.0355   -0.0448    0.0232
          93    0.1583   -0.1194   -0.1732   -0.0992    0.0294   -0.0574    0.0321    0.0046
          94   -0.0508   -0.0572    0.1562    0.1469    0.2096    0.0493   -0.0081    0.0855
          95    0.0889    0.0122   -0.0643    0.0144    0.1072    0.0823    0.0204    0.0628
          96    0.0345    0.0299   -0.0423   -0.0108    0.0975   -0.1575   -0.0036   -0.0388
          97   -0.0187   -0.4010    0.1194    0.1055    0.3836   -0.3926   -0.0201   -0.0197
          98    0.1406   -0.2849   -0.1338   -0.0566    0.0417   -0.0476    0.0209    0.0167
          99    0.1323   -0.2540   -0.1828   -0.1459   -0.3450    0.1685    0.0173   -0.0024
         100    0.0307    0.0903    0.0092    0.0425   -0.0631    0.4305    0.0403    0.1220
         101    0.0008    0.5281    0.0469    0.1406    0.4418    0.0322    0.0222    0.0758
         102    0.0191   -0.0402   -0.0097    0.0104    0.1541   -0.2522   -0.0164   -0.0469
         103    0.0166    0.2274   -0.1268   -0.0959   -0.1281   -0.3013   -0.0801    0.0342
         104   -0.0333    0.0260    0.0420    0.0227   -0.0776    0.0179   -0.1039   -0.1117
         105   -0.0759   -0.0578    0.1307    0.0766    0.0622    0.1377    0.0450    0.0057
         106    0.0872    0.1648   -0.2040   -0.1312   -0.1054   -0.3063   -0.0539    0.0542
         107    0.0254   -0.0192   -0.0174   -0.0130    0.0234   -0.0258    0.0110    0.0172
         108   -0.0743   -0.0632    0.1284    0.0787    0.0363    0.1536    0.0150   -0.0324
         109   -0.0266    0.2707   -0.0828   -0.0772   -0.1445   -0.3106   -0.0975    0.0263
         110   -0.0547   -0.1279    0.0681    0.0319    0.0803    0.0420    0.0453    0.0136
         111   -0.0083   -0.0679    0.0599    0.0469    0.0339    0.1402    0.0211   -0.0223
         112   -0.0623   -0.0764    0.1040    0.0729   -0.0630   -0.0212   -0.0873    0.1441
         113   -0.0943    0.0198   -0.0754   -0.1715    0.0451    0.0225   -0.2366    0.1041
         114    0.0059    0.0028   -0.0200   -0.0143    0.0072    0.0044   -0.0176    0.0481
         115   -0.0292   -0.1456    0.1361    0.1510   -0.1352   -0.0345   -0.2590    0.5309
         116    0.0253    0.0477   -0.0431   -0.0132    0.0811    0.0069    0.1441   -0.3000
         117   -0.0061   -0.0129   -0.0183   -0.0231   -0.0100    0.0043   -0.1036    0.1724
         118   -0.0704   -0.0644    0.0993    0.0584   -0.0520   -0.0184   -0.0610    0.0819
         119   -0.1136    0.0475   -0.1296   -0.2393    0.0786    0.0586   -0.1984    0.1679
         120   -0.0255    0.0619   -0.0369   -0.0729    0.0653    0.0108    0.1293   -0.3084
         121    0.3099    0.0351    0.0321    0.2902   -0.0623   -0.0351   -0.0786   -0.0338
         122    0.0883    0.0201   -0.0147    0.1362   -0.0620   -0.0599    0.1123    0.0532
         123    0.1487    0.0419    0.1267    0.1034   -0.0900   -0.0762    0.1243    0.0527
         124    0.0522   -0.0358   -0.3870    0.5095    0.0058    0.0178   -0.1525   -0.0815
         125   -0.4267    0.0188   -0.0106    0.1072   -0.1448   -0.1482    0.4070    0.1648
         126    0.0267    0.0139   -0.0419    0.1949   -0.0687   -0.0614    0.1149    0.0417
         127    0.2014    0.0715    0.4754   -0.3178   -0.0590   -0.0686    0.2038    0.0747
         128    0.2369    0.0234    0.0805   -0.0355   -0.0146   -0.0263    0.0744    0.0362
         129    0.5081    0.0334    0.1522   -0.0296    0.0119    0.0100   -0.0612   -0.0240


   Root No.      25        26        27        28        29        30        31        32

                25 A      26 A      27 A      28 A      29 A      30 A      31 A      32 A   

                   0.1       0.1       0.1       0.1       0.1       0.1       0.1       0.1
  
           1   -0.0502    0.0106    0.1061   -0.0239   -0.0685   -0.0670    0.0853    0.0552
           2    0.0217    0.0335   -0.1427   -0.0195   -0.0261    0.0336   -0.0225   -0.0645
           3   -0.0277    0.0105   -0.0384    0.0153   -0.0861   -0.0238    0.0140    0.0202
           4   -0.0418    0.0138    0.0877   -0.0189   -0.0643   -0.0577    0.0645    0.0486
           5   -0.0264    0.0257   -0.0552   -0.0324   -0.0508    0.0072    0.0043   -0.0304
           6    0.0206    0.0072   -0.0969    0.0136   -0.0310    0.0309   -0.0522    0.0137
           7    0.0325    0.0306   -0.0483   -0.0023   -0.0644   -0.0307    0.0436   -0.0117
           8   -0.0097    0.0310   -0.0950   -0.0308   -0.0499    0.0174   -0.0016   -0.0506
           9   -0.0275   -0.0365    0.0712    0.0037    0.0146    0.0069   -0.0413    0.0488
          10    0.0064    0.0227    0.0010   -0.0072   -0.0546   -0.0397    0.0530    0.0092
          11    0.0351    0.0365   -0.1663   -0.0186   -0.0297    0.0423   -0.0309   -0.0826
          12   -0.0316    0.0060    0.0059   -0.0061   -0.1204   -0.0294    0.0223    0.0365
          13   -0.0955   -0.0112    0.1927   -0.0276   -0.0682   -0.1078    0.1302    0.1111
          14    0.0563    0.0476   -0.2183   -0.0109   -0.0268    0.0594   -0.0458   -0.1226
          15   -0.0173    0.0160   -0.0210    0.0029   -0.0735   -0.0049   -0.0172    0.0422
          16    0.0217    0.0318   -0.0311   -0.0062   -0.0765   -0.0370    0.0537   -0.0044
          17    0.0778    0.0520   -0.2547   -0.0081   -0.0423    0.0639   -0.0543   -0.1292
          18   -0.0496    0.0177    0.0288   -0.0236   -0.2387   -0.0532    0.0711    0.0726
          19   -0.0186    0.0293    0.0388   -0.0244   -0.1115   -0.0681    0.0838    0.0587
          20   -0.0359    0.0377   -0.0705   -0.0391   -0.0789    0.0027    0.0157   -0.0192
          21    0.0151   -0.0278   -0.0301    0.0284    0.0561    0.0458   -0.0816   -0.0197
          22    0.0043    0.0282    0.0020   -0.0113   -0.0842   -0.0501    0.0632    0.0173
          23   -0.0839    0.0218    0.0190   -0.0465   -0.0661   -0.0117    0.0246    0.0114
          24    0.0480   -0.0487   -0.0746    0.0705    0.1703    0.0968   -0.1488   -0.1441
          25   -0.0541    0.0402    0.1085   -0.0646   -0.1959   -0.1072    0.1230    0.1843
          26   -0.0194    0.0663   -0.1610   -0.0478   -0.1365    0.0058    0.0189   -0.0213
          27    0.0137   -0.0278   -0.0303    0.0285    0.0544    0.0457   -0.0831   -0.0185
          28   -0.0284   -0.0077    0.0794   -0.0032    0.0163   -0.0409    0.0480    0.0290
          29   -0.0439   -0.0041    0.0194   -0.0363   -0.0089    0.0001    0.0106   -0.0274
          30    0.0149    0.0089   -0.0817    0.0108   -0.0456    0.0258   -0.0512    0.0167
          31   -0.0282   -0.0158    0.0994   -0.0112    0.0440   -0.0347    0.0453    0.0409
          32   -0.0626   -0.0224    0.0846   -0.0469    0.0122   -0.0057    0.0188   -0.0191
          33    0.0288    0.0222   -0.1298    0.0181   -0.0617    0.0308   -0.0580    0.0110
          34    0.0332    0.0038   -0.0162    0.0071    0.0461    0.0010   -0.0080   -0.0073
          35   -0.0214    0.0006   -0.0128   -0.0356   -0.0023    0.0166   -0.0114   -0.0349
          36   -0.0226   -0.0176    0.0271    0.0021   -0.0360   -0.0009   -0.0248    0.0376
          37    0.0800   -0.0067   -0.0609    0.0217    0.1555    0.0584   -0.0897   -0.0302
          38   -0.0354   -0.0223    0.0523   -0.0399    0.0375    0.0165   -0.0199   -0.0267
          39   -0.0376   -0.0302    0.0749   -0.0030   -0.0286   -0.0095   -0.0188    0.0486
          40   -0.0614    0.0105    0.1392   -0.0210   -0.0859   -0.0880    0.0911    0.0694
          41   -0.0331    0.0287   -0.0489   -0.0322   -0.0666   -0.0007    0.0133   -0.0179
          42    0.0407    0.0232   -0.1661    0.0176   -0.0380    0.0599   -0.0733    0.0057
          43    0.0744    0.0487   -0.1345    0.0077   -0.0823   -0.0178    0.0423   -0.0584
          44   -0.0056    0.0386   -0.1162   -0.0299   -0.0611    0.0194    0.0013   -0.0595
          45   -0.0555   -0.0741    0.1770   -0.0032    0.0657   -0.0027   -0.0574    0.0910
          46   -0.0172    0.0649    0.0287   -0.0440    0.1262    0.0658   -0.1379    0.0375
          47   -0.0516   -0.0656    0.0721    0.0008   -0.0009    0.0066   -0.0702    0.0031
          48   -0.0101    0.0191   -0.0314    0.0120   -0.0278   -0.0236    0.0559    0.0422
          49   -0.0340    0.0273    0.0630   -0.0128    0.0180    0.0320   -0.0531   -0.0848
          50   -0.0324   -0.0292    0.0141   -0.0084    0.0624    0.0107   -0.0152    0.0879
          51   -0.0163    0.0069   -0.0006    0.0041   -0.0302   -0.0096   -0.0208    0.0394
          52   -0.0077    0.0117    0.0122   -0.0368    0.1119    0.0654   -0.1764    0.1059
          53   -0.0555   -0.0927    0.0737    0.0033   -0.0121   -0.0024   -0.1016    0.0215
          54    0.0279    0.1099   -0.0681   -0.0007    0.0756   -0.0121    0.1608    0.0742
          55   -0.0035    0.0450    0.0440    0.0463   -0.0414    0.0346   -0.0495   -0.2569
[...]
 REDUCED MASS        0.5093         C  3 -- C  7          +1.0% ( 10.3%)      0.1%
 EFFECTIVE MASS      1.4755
 FORCE CONSTANT      2.0863

 VIBRATION        109  109A           ATOM PAIR      ENERGY CONTRIBUTION    RADIAL
 FREQUENCY          2644.66         C 28 -- H 29         +52.2% ( 74.8%)     99.4%
 TRANSITION DIPOLE   0.8007         C 28 -- H 31         +33.3% ( 59.8%)     94.9%
 TRAVEL (Ang.)       0.2480         C 28 -- H 30         +12.4% ( 36.4%)     81.2%
 REDUCED MASS        0.4145         O 22 -- C 28          +0.9% (  9.9%)      0.1%
 EFFECTIVE MASS      1.4595
 FORCE CONSTANT      1.7079

 VIBRATION        110  110A           ATOM PAIR      ENERGY CONTRIBUTION    RADIAL
 FREQUENCY          2656.20         C 24 -- H 25         +54.9% ( 76.9%)     98.9%
 TRANSITION DIPOLE   0.7992         C 24 -- H 27         +42.5% ( 67.7%)     97.3%
 TRAVEL (Ang.)       0.2254         C 24 -- H 26          +1.6% ( 13.3%)     22.0%
 REDUCED MASS        0.4997         O 23 -- C 24          +1.0% ( 10.1%)      0.9%
 EFFECTIVE MASS      1.4697
 FORCE CONSTANT      2.0774

 VIBRATION        111  111A           ATOM PAIR      ENERGY CONTRIBUTION    RADIAL
 FREQUENCY          2675.63         C  2 -- H 14         +74.4% ( 85.9%)    100.0%
 TRANSITION DIPOLE   1.2153         O 35 -- H 36         +11.0% ( 33.0%)     94.0%
 TRAVEL (Ang.)       0.2169         O 35 -- H 37         +10.6% ( 32.4%)     93.4%
 REDUCED MASS        0.5357         C  1 -- C  2          +0.9% (  9.6%)     18.2%
 EFFECTIVE MASS      1.3260
 FORCE CONSTANT      2.2597

 VIBRATION        112  112A           ATOM PAIR      ENERGY CONTRIBUTION    RADIAL
 FREQUENCY          2693.47         O 35 -- H 36         +30.2% ( 52.4%)     93.9%
 TRANSITION DIPOLE   0.2957         O 35 -- H 37         +29.4% ( 51.7%)     94.2%
 TRAVEL (Ang.)       0.3092         C  2 -- H 14         +21.1% ( 43.8%)    100.0%
 REDUCED MASS        0.2619         C  1 -- H  5         +16.0% ( 38.2%)    100.0%
 EFFECTIVE MASS      1.1788
 FORCE CONSTANT      1.1195

 VIBRATION        113  113A           ATOM PAIR      ENERGY CONTRIBUTION    RADIAL
 FREQUENCY          2695.24         C  1 -- H  5         +81.4% ( 91.4%)     99.9%
 TRANSITION DIPOLE   1.0118         C  2 -- H 14          +6.2% ( 25.1%)    100.0%
 TRAVEL (Ang.)       0.1948         O 35 -- H 36          +3.5% ( 18.8%)     93.9%
 REDUCED MASS        0.6596         O 35 -- H 37          +3.4% ( 18.7%)     94.2%
 EFFECTIVE MASS      1.3652
 FORCE CONSTANT      2.8229

 VIBRATION        114  114A           ATOM PAIR      ENERGY CONTRIBUTION    RADIAL
 FREQUENCY          2712.82         O 32 -- H 34         +49.5% ( 64.5%)     94.0%
 TRANSITION DIPOLE   0.4819         O 32 -- H 33         +49.2% ( 64.3%)     94.1%
 TRAVEL (Ang.)       0.2264         C 28 -- H 29          +0.5% (  6.8%)     96.1%
 REDUCED MASS        0.4851         C 28 -- H 31          +0.2% (  4.5%)     90.7%
 EFFECTIVE MASS      1.0633
 FORCE CONSTANT      2.1035

 VIBRATION        115  115A           ATOM PAIR      ENERGY CONTRIBUTION    RADIAL
 FREQUENCY          2713.78         O 41 -- H 43         +50.0% ( 64.8%)     94.0%
 TRANSITION DIPOLE   0.5072         O 41 -- H 42         +49.1% ( 64.1%)     94.0%
 TRAVEL (Ang.)       0.2254         C 24 -- H 26          +0.4% (  5.8%)     99.0%
 REDUCED MASS        0.4890         C 24 -- H 27          +0.4% (  5.7%)     97.3%
 EFFECTIVE MASS      1.0638
 FORCE CONSTANT      2.1217

 VIBRATION        116  116A           ATOM PAIR      ENERGY CONTRIBUTION    RADIAL
 FREQUENCY          2715.46         O 38 -- H 39         +52.9% ( 66.5%)     93.9%
 TRANSITION DIPOLE   0.5728         O 38 -- H 40         +46.6% ( 62.4%)     93.0%
 TRAVEL (Ang.)       0.2243         O 32 -- H 33          +0.1% (  2.9%)     93.9%
 REDUCED MASS        0.4938
 EFFECTIVE MASS      1.0564
 FORCE CONSTANT      2.1452

 VIBRATION        117  117A           ATOM PAIR      ENERGY CONTRIBUTION    RADIAL
 FREQUENCY          2748.20         C 10 -- H 11         +92.9% ( 98.7%)    100.0%
 TRANSITION DIPOLE   1.6567         C  1 -- C 10          +1.2% ( 11.1%)     36.3%
 TRAVEL (Ang.)       0.1667         C  2 -- C 10          +1.1% ( 11.0%)     42.4%
 REDUCED MASS        0.8831         C  4 -- C 10          +1.1% ( 10.9%)     54.7%
 EFFECTIVE MASS      1.4263
 FORCE CONSTANT      3.9295

 VIBRATION        118  118A           ATOM PAIR      ENERGY CONTRIBUTION    RADIAL
 FREQUENCY          2757.74         C  3 -- H 15         +60.9% ( 79.6%)    100.0%
 TRANSITION DIPOLE   0.7447         C  4 -- H  6         +35.0% ( 60.4%)    100.0%
 TRAVEL (Ang.)       0.2221         C  3 -- C  4          +1.0% ( 10.3%)      0.3%
 REDUCED MASS        0.4958         C  3 -- C  7          +0.7% (  8.5%)     16.3%
 EFFECTIVE MASS      1.4024
 FORCE CONSTANT      2.2217

 VIBRATION        119  119A           ATOM PAIR      ENERGY CONTRIBUTION    RADIAL
 FREQUENCY          2763.40         C  4 -- H  6         +53.0% ( 74.2%)    100.0%
 TRANSITION DIPOLE   0.8096         C  3 -- H 15         +27.5% ( 53.5%)    100.0%
 TRAVEL (Ang.)       0.2561         C 12 -- H 13         +10.7% ( 33.4%)    100.0%
 REDUCED MASS        0.3721         C  7 -- H  8          +2.5% ( 16.0%)     98.0%
 EFFECTIVE MASS      1.4076
 FORCE CONSTANT      1.6740

 VIBRATION        120  120A           ATOM PAIR      ENERGY CONTRIBUTION    RADIAL
 FREQUENCY          2772.58         C  7 -- H  8         +47.0% ( 67.2%)     98.2%
 TRANSITION DIPOLE   0.8748         C  7 -- H  9         +35.1% ( 58.1%)     97.1%
 TRAVEL (Ang.)       0.2563         C 12 -- H 13         +15.5% ( 38.5%)    100.0%
 REDUCED MASS        0.3704         C  3 -- H 15          +0.5% (  6.8%)     91.2%
 EFFECTIVE MASS      1.2410
 FORCE CONSTANT      1.6775

 VIBRATION        121  121A           ATOM PAIR      ENERGY CONTRIBUTION    RADIAL
 FREQUENCY          2782.78         C 12 -- H 13         +70.4% ( 85.5%)    100.0%
 TRANSITION DIPOLE   1.2956         C  4 -- H  6          +7.4% ( 27.6%)    100.0%
 TRAVEL (Ang.)       0.2168         C  3 -- H 15          +6.5% ( 25.9%)     99.9%
 REDUCED MASS        0.5154         C  7 -- H  8          +5.2% ( 23.3%)     97.8%
 EFFECTIVE MASS      1.4466
 FORCE CONSTANT      2.3517

 VIBRATION        122  122A           ATOM PAIR      ENERGY CONTRIBUTION    RADIAL
 FREQUENCY          2798.95         C 28 -- H 29         +45.7% ( 63.6%)     98.9%
 TRANSITION DIPOLE   0.5809         C 28 -- H 30         +26.9% ( 48.8%)     97.4%
 TRAVEL (Ang.)       0.2645         C 28 -- H 31         +26.7% ( 48.6%)     96.5%
 REDUCED MASS        0.3444         O 32 -- H 34          +0.1% (  3.4%)     96.9%
 EFFECTIVE MASS      1.0716
 FORCE CONSTANT      1.5896

 VIBRATION        123  123A           ATOM PAIR      ENERGY CONTRIBUTION    RADIAL
 FREQUENCY          2812.24         C 24 -- H 27         +37.0% ( 57.2%)     98.4%
 TRANSITION DIPOLE   0.5708         C 24 -- H 25         +35.7% ( 56.1%)     97.9%
 TRAVEL (Ang.)       0.2681         C 24 -- H 26         +27.0% ( 48.8%)     97.4%
 REDUCED MASS        0.3335         O 23 -- C 24          +0.1% (  3.0%)     92.5%
 EFFECTIVE MASS      1.0683
 FORCE CONSTANT      1.5541

      SYMMETRY NUMBER FOR POINT-GROUP C1  =  1


          SYSTEM IS A GROUND STATE



 Cycloaddition_TS_2H2O_PM6_D3H4_FREQ_THERMO


          MOLECULE IS NOT LINEAR

          THERE ARE  123 GENUINE VIBRATIONS IN THIS SYSTEM
          THIS THERMODYNAMICS CALCULATION IS LIMITED TO
          MOLECULES WHICH HAVE NO INTERNAL ROTATIONS




                    CALCULATED THERMODYNAMIC PROPERTIES
                                          *
   TEMP. (K)   PARTITION FUNCTION   H.O.F.    ENTHALPY  HEAT CAPACITY ENTROPY
                                   KCAL/MOL   CAL/MOLE    CAL/K/MOL  CAL/K/MOL


 298.00  VIB.     0.7157D+17                 18365.3799   100.0225   138.7512
         ROT.     0.7907D+07                   888.2813     2.9808    34.5440
         INT.     0.5659D+24                 19253.6612   103.0033   173.2953
         TRA.     0.5285D+28                  1480.4688     4.9680    43.0912
         TOT.                     -237.534   20734.1301   107.9713   216.3865

 200.00  VIB.     0.1250D+13                  9617.2268    78.4786   103.4387
         ROT.     0.4347D+07                   596.1620     2.9808    33.3554
         INT.     0.5436D+19                 10213.3888    81.4594   136.7940
         TRA.     0.2906D+28                   993.6033     4.9680    41.1101
         TOT.                     -247.061   11206.9920    86.4274   177.9041

 210.00  VIB.     0.4147D+13                 10413.0522    80.6853   107.3211
         ROT.     0.4677D+07                   625.9700     2.9808    33.5008
         INT.     0.1940D+20                 11039.0223    83.6661   140.8219
         TRA.     0.3126D+28                  1043.2834     4.9680    41.3525
         TOT.                     -246.186   12082.3057    88.6341   182.1743

 220.00  VIB.     0.1347D+14                 11230.9168    82.8872   111.1254
         ROT.     0.5015D+07                   655.7781     2.9808    33.6395
         INT.     0.6754D+20                 11886.6949    85.8680   144.7648
         TRA.     0.3352D+28                  1092.9636     4.9680    41.5836
         TOT.                     -245.289   12979.6585    90.8360   186.3484

 230.00  VIB.     0.4287D+14                 12070.7921    85.0879   114.8584
         ROT.     0.5361D+07                   685.5862     2.9808    33.7720
         INT.     0.2298D+21                 12756.3783    88.0687   148.6304
         TRA.     0.3583D+28                  1142.6437     4.9680    41.8044
         TOT.                     -244.369   13899.0220    93.0367   190.4348

 240.00  VIB.     0.1339D+15                 12932.6757    87.2890   118.5262
         ROT.     0.5715D+07                   715.3943     2.9808    33.8988
         INT.     0.7652D+21                 13648.0700    90.2698   152.4250
         TRA.     0.3819D+28                  1192.3239     4.9680    42.0158
         TOT.                     -243.428   14840.3939    95.2378   194.4409

 250.00  VIB.     0.4108D+15                 13816.5749    89.4909   122.1342
         ROT.     0.6075D+07                   745.2024     2.9808    34.0205
         INT.     0.2496D+22                 14561.7773    92.4717   156.1547
         TRA.     0.4061D+28                  1242.0041     4.9680    42.2186
         TOT.                     -242.465   15803.7814    97.4397   198.3733

 260.00  VIB.     0.1239D+16                 14722.4938    91.6927   125.6870
         ROT.     0.6444D+07                   775.0105     2.9808    34.1374
         INT.     0.7985D+22                 15497.5043    94.6735   159.8244
         TRA.     0.4307D+28                  1291.6842     4.9680    42.4135
         TOT.                     -241.479   16789.1885    99.6415   202.2379

 270.00  VIB.     0.3679D+16                 15650.4233    93.8927   129.1887
         ROT.     0.6819D+07                   804.8186     2.9808    34.2499
         INT.     0.2509D+23                 16455.2420    96.8735   163.4386
         TRA.     0.4557D+28                  1341.3644     4.9680    42.6010
         TOT.                     -240.472   17796.6064   101.8415   206.0396

 280.00  VIB.     0.1076D+17                 16600.3346    96.0886   132.6431
         ROT.     0.7201D+07                   834.6267     2.9808    34.3583
         INT.     0.7745D+23                 17434.9613    99.0695   167.0014
         TRA.     0.4813D+28                  1391.0445     4.9680    42.7817
         TOT.                     -239.442   18826.0059   104.0375   209.7831

 290.00  VIB.     0.3100D+17                 17572.1739    98.2779   136.0532
         ROT.     0.7590D+07                   864.4348     2.9808    34.4629
         INT.     0.2353D+24                 18436.6087   101.2587   170.5161
         TRA.     0.5073D+28                  1440.7247     4.9680    42.9560
         TOT.                     -238.391   19877.3334   106.2267   213.4721

 300.00  VIB.     0.8811D+17                 18565.8601   100.4576   139.4217
         ROT.     0.7986D+07                   894.2429     2.9808    34.5640
         INT.     0.7037D+24                 19460.1030   103.4384   173.9857
         TRA.     0.5338D+28                  1490.4049     4.9680    43.1244
         TOT.                     -237.318   20950.5079   108.4064   217.1101

 310.00  VIB.     0.2472D+18                 19581.2838   102.6249   142.7511
         ROT.     0.8389D+07                   924.0510     2.9808    34.6617
         INT.     0.2074D+25                 20505.3348   105.6057   177.4128
         TRA.     0.5607D+28                  1540.0850     4.9680    43.2873
         TOT.                     -236.223   22045.4199   110.5737   220.7001

 320.00  VIB.     0.6850D+18                 20618.3070   104.7770   146.0433
         ROT.     0.8798D+07                   953.8591     2.9808    34.7563
         INT.     0.6027D+25                 21572.1661   107.7578   180.7997
         TRA.     0.5880D+28                  1589.7652     4.9680    43.4451
         TOT.                     -235.106   23161.9313   112.7258   224.2447

 330.00  VIB.     0.1876D+19                 21676.7644   106.9113   149.3002
         ROT.     0.9214D+07                   983.6672     2.9808    34.8481
         INT.     0.1728D+26                 22660.4316   109.8921   184.1483
         TRA.     0.6158D+28                  1639.4454     4.9680    43.5979
         TOT.                     -233.968   24299.8770   114.8601   227.7462

 340.00  VIB.     0.5080D+19                 22756.4650   109.0253   152.5233
         ROT.     0.9636D+07                  1013.4753     2.9808    34.9371
         INT.     0.4895D+26                 23769.9403   112.0061   187.4603
         TRA.     0.6440D+28                  1689.1255     4.9680    43.7462
         TOT.                     -232.809   25459.0659   116.9741   231.2066

 350.00  VIB.     0.1361D+20                 23857.1945   111.1167   155.7139
         ROT.     0.1006D+08                  1043.2834     2.9808    35.0235
         INT.     0.1369D+27                 24900.4779   114.0975   190.7373
         TRA.     0.6726D+28                  1738.8057     4.9680    43.8903
         TOT.                     -231.629   26639.2836   119.0655   234.6276

 360.00  VIB.     0.3607D+20                 24978.7173   113.1836   158.8732
         ROT.     0.1050D+08                  1073.0915     2.9808    35.1074
         INT.     0.3787D+27                 26051.8088   116.1644   193.9806
         TRA.     0.7017D+28                  1788.4859     4.9680    44.0302
         TOT.                     -230.428   27840.2947   121.1325   238.0108

 370.00  VIB.     0.9467D+20                 26120.7796   115.2243   162.0022
         ROT.     0.1094D+08                  1102.8996     2.9808    35.1891
         INT.     0.1036D+28                 27223.6792   118.2051   197.1913
         TRA.     0.7311D+28                  1838.1660     4.9680    44.1663
         TOT.                     -229.206   29061.8452   123.1732   241.3576

 380.00  VIB.     0.2461D+21                 27283.1118   117.2374   165.1018
         ROT.     0.1139D+08                  1132.7077     2.9808    35.2686
         INT.     0.2802D+28                 28415.8195   120.2182   200.3704
         TRA.     0.7609D+28                  1887.8462     4.9680    44.2988
         TOT.                     -227.965   30303.6656   125.1862   244.6692

 390.00  VIB.     0.6340D+21                 28465.4309   119.2215   168.1728
         ROT.     0.1184D+08                  1162.5158     2.9808    35.3460
         INT.     0.7506D+28                 29627.9467   122.2024   203.5188
         TRA.     0.7912D+28                  1937.5263     4.9680    44.4279
         TOT.                     -226.703   31565.4730   127.1704   247.9467

 400.00  VIB.     0.1619D+22                 29667.4432   121.1759   171.2159
         ROT.     0.1230D+08                  1192.3239     2.9808    35.4215
         INT.     0.1991D+29                 30859.7671   124.1567   206.6374
         TRA.     0.8218D+28                  1987.2065     4.9680    44.5536
         TOT.                     -225.421   32846.9736   129.1247   251.1911

   *: NOTE: HEATS OF FORMATION ARE RELATIVE TO THE
            ELEMENTS IN THEIR STANDARD STATE AT 298K
              (=  Standard Enthalpy of Formation).

            Hvib:  Zero-point energy is not included.
                   frequencies of less than zero cm-1 are not included.
            Hrot = (3/2)RT
            Htra = (3/2)RT + pV = (5/2)RT

            Heat capacity is Cp, not Cv

          For more information, see: HTTP://OpenMOPAC.net/Manual/thermochemistry.html


           FORCE CONSTANT IN CARTESIAN COORDINATES (Millidynes/A)

    ATOM   CHEMICAL       X               Y               Z
   NUMBER   SYMBOL  FORCE CONSTANT  FORCE CONSTANT  FORCE CONSTANT

      1       C        4.581286        7.245303       -0.614469
      2       C        5.270043        8.057036        6.506155
      3       C        6.136326        9.083820        5.291848
      4       C        9.579402        6.420864        4.148414
      5       H        1.906079        2.356894        1.147394
      6       H        3.711714        1.145787        0.578056
      7       C        7.248360        6.108494        7.153645
      8       H        3.660825        0.896608        0.917091
      9       H        0.736428        0.678102        4.063114
     10       C        2.773512        6.695428        8.638922
     11       H        0.443406        1.918724        2.931434
     12       C        3.761065        6.820529        9.482152
     13       H        0.538301        1.643544        3.264669
     14       H        1.520687        2.969230        0.877444
     15       H        0.658662        4.092323        0.741035
     16       N        2.962951        8.626184        6.662806
     17       N        3.664180        9.147852        4.189264
     18       C        9.066292       11.418045        4.458038
     19       C       10.095563       10.104761        5.091904
     20       O        6.734907        5.525817        2.679118
     21       O        5.147113        7.301640        2.325949
     22       O        6.015348        6.105974        1.924986
     23       O        6.605159        5.627890        1.394666
     24       C        6.282331        5.990277        6.100713
     25       H        3.902981        0.803335        0.737136
     26       H        0.719399        1.049182        3.633881
     27       H        1.315135        1.992134        2.168246
     28       C        6.269558        5.751329        6.142009
     29       H        0.716503        0.994181        3.740269
     30       H        2.491393        1.644673        1.224171
     31       H        2.957060        0.741953        1.639520
     32       O        1.049297        2.739427        3.518114
     33       H        0.891695        2.287474        1.272074
     34       H        0.524157        0.617964        3.331155
     35       O        2.708893        0.465618        3.857476
     36       H        0.671575        0.365142        3.286511
     37       H        2.051059        0.231332        2.044345
     38       O        3.551949        0.185204        3.516948
     39       H        0.984871        0.103287        3.326379
     40       H        3.276170        0.126787        1.218897
     41       O        0.693024        2.982342        3.522254
     42       H        0.512797        0.757901        3.201206
     43       H        0.221349        2.684701        1.547937

 **********************
 *                    *
 * JOB ENDED NORMALLY *
 *                    *
 **********************



 TOTAL JOB TIME:            12.38 SECONDS

 == MOPAC DONE ==
