 Entering Gaussian System, Link 0=g09
 Input=b3lyp_dienophile_pm6_cpcmtoluene_1.com
 Output=b3lyp_dienophile_pm6_cpcmtoluene_1.log
 Initial command:
 /apps/applications/gaussian/G09.D01/2/default/g09/l1.exe "/local/713532.1.40core-192G.q/Gau-155226.inp" -scrdir="/local/713532.1.40core-192G.q/"
 Entering Link 1 = /apps/applications/gaussian/G09.D01/2/default/g09/l1.exe PID=    155227.
  
 Copyright (c) 1988,1990,1992,1993,1995,1998,2003,2009,2013,
            Gaussian, Inc.  All Rights Reserved.
  
 This is part of the Gaussian(R) 09 program.  It is based on
 the Gaussian(R) 03 system (copyright 2003, Gaussian, Inc.),
 the Gaussian(R) 98 system (copyright 1998, Gaussian, Inc.),
 the Gaussian(R) 94 system (copyright 1995, Gaussian, Inc.),
 the Gaussian 92(TM) system (copyright 1992, Gaussian, Inc.),
 the Gaussian 90(TM) system (copyright 1990, Gaussian, Inc.),
 the Gaussian 88(TM) system (copyright 1988, Gaussian, Inc.),
 the Gaussian 86(TM) system (copyright 1986, Carnegie Mellon
 University), and the Gaussian 82(TM) system (copyright 1983,
 Carnegie Mellon University). Gaussian is a federally registered
 trademark of Gaussian, Inc.
  
 This software contains proprietary and confidential information,
 including trade secrets, belonging to Gaussian, Inc.
  
 This software is provided under written license and may be
 used, copied, transmitted, or stored only in accord with that
 written license.
  
 The following legend is applicable only to US Government
 contracts under FAR:
  
                    RESTRICTED RIGHTS LEGEND
  
 Use, reproduction and disclosure by the US Government is
 subject to restrictions as set forth in subparagraphs (a)
 and (c) of the Commercial Computer Software - Restricted
 Rights clause in FAR 52.227-19.
  
 Gaussian, Inc.
 340 Quinnipiac St., Bldg. 40, Wallingford CT 06492
  
  
 ---------------------------------------------------------------
 Warning -- This program may not be used in any manner that
 competes with the business of Gaussian, Inc. or will provide
 assistance to any competitor of Gaussian, Inc.  The licensee
 of this program is prohibited from giving any competitor of
 Gaussian, Inc. access to this program.  By using this program,
 the user acknowledges that Gaussian, Inc. is engaged in the
 business of creating and licensing software in the field of
 computational chemistry and represents and warrants to the
 licensee that it is not a competitor of Gaussian, Inc. and that
 it will not use this program in any manner prohibited above.
 ---------------------------------------------------------------
  

 Cite this work as:
 Gaussian 09, Revision D.01,
 M. J. Frisch, G. W. Trucks, H. B. Schlegel, G. E. Scuseria, 
 M. A. Robb, J. R. Cheeseman, G. Scalmani, V. Barone, B. Mennucci, 
 G. A. Petersson, H. Nakatsuji, M. Caricato, X. Li, H. P. Hratchian, 
 A. F. Izmaylov, J. Bloino, G. Zheng, J. L. Sonnenberg, M. Hada, 
 M. Ehara, K. Toyota, R. Fukuda, J. Hasegawa, M. Ishida, T. Nakajima, 
 Y. Honda, O. Kitao, H. Nakai, T. Vreven, J. A. Montgomery, Jr., 
 J. E. Peralta, F. Ogliaro, M. Bearpark, J. J. Heyd, E. Brothers, 
 K. N. Kudin, V. N. Staroverov, T. Keith, R. Kobayashi, J. Normand, 
 K. Raghavachari, A. Rendell, J. C. Burant, S. S. Iyengar, J. Tomasi, 
 M. Cossi, N. Rega, J. M. Millam, M. Klene, J. E. Knox, J. B. Cross, 
 V. Bakken, C. Adamo, J. Jaramillo, R. Gomperts, R. E. Stratmann, 
 O. Yazyev, A. J. Austin, R. Cammi, C. Pomelli, J. W. Ochterski, 
 R. L. Martin, K. Morokuma, V. G. Zakrzewski, G. A. Voth, 
 P. Salvador, J. J. Dannenberg, S. Dapprich, A. D. Daniels, 
 O. Farkas, J. B. Foresman, J. V. Ortiz, J. Cioslowski, 
 and D. J. Fox, Gaussian, Inc., Wallingford CT, 2013.
 
 ******************************************
 Gaussian 09:  ES64L-G09RevD.01 24-Apr-2013
                27-Aug-2020 
 ******************************************
 %nprocshared=4
 Will use up to    4 processors via shared memory.
 %chk=b3lyp_dienophile_pm6_cpcmtoluene_1.chk
 ----------------------------------------------------------------------
 # opt freq b3lyp/6-31+g(d,p) scrf=(cpcm,solvent=toluene) geom=connecti
 vity empiricaldispersion=gd3
 ----------------------------------------------------------------------
 1/14=-1,18=20,19=15,26=3,38=1,57=2/1,3;
 2/9=110,12=2,17=6,18=5,40=1/2;
 3/5=1,6=6,7=111,11=2,16=1,25=1,30=1,70=2101,71=1,72=13,74=-5,124=31/1,2,3;
 4//1;
 5/5=2,38=5,53=13/2;
 6/7=2,8=2,9=2,10=2,28=1/1;
 7//1,2,3,16;
 1/14=-1,18=20,19=15,26=3/3(2);
 2/9=110/2;
 99//99;
 2/9=110/2;
 3/5=1,6=6,7=111,11=2,16=1,25=1,30=1,70=2105,71=1,72=13,74=-5,124=31/1,2,3;
 4/5=5,16=3,69=1/1;
 5/5=2,38=5,53=13/2;
 7//1,2,3,16;
 1/14=-1,18=20,19=15,26=3/3(-5);
 2/9=110/2;
 6/7=2,8=2,9=2,10=2,19=2,28=1/1;
 99/9=1/99;
 -------------------
 Title Card Required
 -------------------
 Symbolic Z-matrix:
 Charge =  0 Multiplicity = 1
 C                    -1.18244  -0.21491  -0.00089 
 C                    -0.66877  -1.64302   0.00387 
 C                     0.66866  -1.64305   0.00386 
 C                     1.1824   -0.21498  -0.00089 
 H                    -1.36251  -2.47189   0.00632 
 H                     1.36235  -2.47196   0.00631 
 C                     0.00005   2.07289   0.00709 
 H                     0.9527    2.46054  -0.39667 
 H                    -0.8275    2.46261  -0.61269 
 H                    -0.12434   2.45613   1.03582 
 N                     0.00001   0.59961  -0.0067 
 O                     2.31119   0.20154  -0.00441 
 O                    -2.3112    0.20167  -0.00439 
 

 GradGradGradGradGradGradGradGradGradGradGradGradGradGradGradGradGradGrad
 Berny optimization.
 Initialization pass.
                           ----------------------------
                           !    Initial Parameters    !
                           ! (Angstroms and Degrees)  !
 --------------------------                            --------------------------
 ! Name  Definition              Value          Derivative Info.                !
 --------------------------------------------------------------------------------
 ! R1    R(1,2)                  1.5177         estimate D2E/DX2                !
 ! R2    R(1,11)                 1.4358         estimate D2E/DX2                !
 ! R3    R(1,13)                 1.2032         estimate D2E/DX2                !
 ! R4    R(2,3)                  1.3374         estimate D2E/DX2                !
 ! R5    R(2,5)                  1.0809         estimate D2E/DX2                !
 ! R6    R(3,4)                  1.5177         estimate D2E/DX2                !
 ! R7    R(3,6)                  1.0809         estimate D2E/DX2                !
 ! R8    R(4,11)                 1.4358         estimate D2E/DX2                !
 ! R9    R(4,12)                 1.2032         estimate D2E/DX2                !
 ! R10   R(7,8)                  1.1049         estimate D2E/DX2                !
 ! R11   R(7,9)                  1.1049         estimate D2E/DX2                !
 ! R12   R(7,10)                 1.1048         estimate D2E/DX2                !
 ! R13   R(7,11)                 1.4733         estimate D2E/DX2                !
 ! A1    A(2,1,11)             104.7785         estimate D2E/DX2                !
 ! A2    A(2,1,13)             130.0401         estimate D2E/DX2                !
 ! A3    A(11,1,13)            125.1808         estimate D2E/DX2                !
 ! A4    A(1,2,3)              109.7843         estimate D2E/DX2                !
 ! A5    A(1,2,5)              120.2892         estimate D2E/DX2                !
 ! A6    A(3,2,5)              129.9265         estimate D2E/DX2                !
 ! A7    A(2,3,4)              109.7842         estimate D2E/DX2                !
 ! A8    A(2,3,6)              129.9265         estimate D2E/DX2                !
 ! A9    A(4,3,6)              120.2893         estimate D2E/DX2                !
 ! A10   A(3,4,11)             104.7786         estimate D2E/DX2                !
 ! A11   A(3,4,12)             130.0401         estimate D2E/DX2                !
 ! A12   A(11,4,12)            125.1808         estimate D2E/DX2                !
 ! A13   A(8,7,9)              108.4841         estimate D2E/DX2                !
 ! A14   A(8,7,10)             108.3985         estimate D2E/DX2                !
 ! A15   A(8,7,11)             110.33           estimate D2E/DX2                !
 ! A16   A(9,7,10)             108.3986         estimate D2E/DX2                !
 ! A17   A(9,7,11)             110.33           estimate D2E/DX2                !
 ! A18   A(10,7,11)            110.8285         estimate D2E/DX2                !
 ! A19   A(1,11,4)             110.8739         estimate D2E/DX2                !
 ! A20   A(1,11,7)             124.5576         estimate D2E/DX2                !
 ! A21   A(4,11,7)             124.5577         estimate D2E/DX2                !
 ! D1    D(11,1,2,3)             0.1278         estimate D2E/DX2                !
 ! D2    D(11,1,2,5)          -179.8532         estimate D2E/DX2                !
 ! D3    D(13,1,2,3)           179.868          estimate D2E/DX2                !
 ! D4    D(13,1,2,5)            -0.113          estimate D2E/DX2                !
 ! D5    D(2,1,11,4)            -0.212          estimate D2E/DX2                !
 ! D6    D(2,1,11,7)          -179.0648         estimate D2E/DX2                !
 ! D7    D(13,1,11,4)         -179.9686         estimate D2E/DX2                !
 ! D8    D(13,1,11,7)            1.1786         estimate D2E/DX2                !
 ! D9    D(1,2,3,4)              0.0            estimate D2E/DX2                !
 ! D10   D(1,2,3,6)           -179.9787         estimate D2E/DX2                !
 ! D11   D(5,2,3,4)            179.9787         estimate D2E/DX2                !
 ! D12   D(5,2,3,6)             -0.0001         estimate D2E/DX2                !
 ! D13   D(2,3,4,11)            -0.1278         estimate D2E/DX2                !
 ! D14   D(2,3,4,12)          -179.868          estimate D2E/DX2                !
 ! D15   D(6,3,4,11)           179.8533         estimate D2E/DX2                !
 ! D16   D(6,3,4,12)             0.1131         estimate D2E/DX2                !
 ! D17   D(3,4,11,1)             0.212          estimate D2E/DX2                !
 ! D18   D(3,4,11,7)           179.0648         estimate D2E/DX2                !
 ! D19   D(12,4,11,1)          179.9686         estimate D2E/DX2                !
 ! D20   D(12,4,11,7)           -1.1786         estimate D2E/DX2                !
 ! D21   D(8,7,11,1)          -157.4986         estimate D2E/DX2                !
 ! D22   D(8,7,11,4)            23.803          estimate D2E/DX2                !
 ! D23   D(9,7,11,1)           -37.6416         estimate D2E/DX2                !
 ! D24   D(9,7,11,4)           143.66           estimate D2E/DX2                !
 ! D25   D(10,7,11,1)           82.4299         estimate D2E/DX2                !
 ! D26   D(10,7,11,4)          -96.2685         estimate D2E/DX2                !
 --------------------------------------------------------------------------------
 Trust Radius=3.00D-01 FncErr=1.00D-07 GrdErr=1.00D-06
 Number of steps in this run=     70 maximum allowed number of steps=    100.
 GradGradGradGradGradGradGradGradGradGradGradGradGradGradGradGradGradGrad

                          Input orientation:                          
 ---------------------------------------------------------------------
 Center     Atomic      Atomic             Coordinates (Angstroms)
 Number     Number       Type             X           Y           Z
 ---------------------------------------------------------------------
      1          6           0       -1.182439   -0.214910   -0.000888
      2          6           0       -0.668774   -1.643015    0.003866
      3          6           0        0.668660   -1.643052    0.003862
      4          6           0        1.182403   -0.214975   -0.000894
      5          1           0       -1.362513   -2.471888    0.006319
      6          1           0        1.362353   -2.471963    0.006312
      7          6           0        0.000045    2.072890    0.007087
      8          1           0        0.952700    2.460536   -0.396669
      9          1           0       -0.827502    2.462606   -0.612691
     10          1           0       -0.124343    2.456130    1.035823
     11          7           0        0.000005    0.599609   -0.006700
     12          8           0        2.311185    0.201542   -0.004406
     13          8           0       -2.311197    0.201669   -0.004394
 ---------------------------------------------------------------------
                    Distance matrix (angstroms):
                    1          2          3          4          5
     1  C    0.000000
     2  C    1.517682   0.000000
     3  C    2.337986   1.337434   0.000000
     4  C    2.364842   2.337986   1.517682   0.000000
     5  H    2.264162   1.080884   2.193773   3.401515   0.000000
     6  H    3.401515   2.193772   1.080884   2.264162   2.724866
     7  C    2.575337   3.775616   3.775617   2.575337   4.744636
     8  H    3.445791   4.430433   4.132861   2.714362   5.463645
     9  H    2.769364   4.154691   4.413056   3.403447   5.001864
    10  H    3.054307   4.261963   4.300824   3.149154   5.184429
    11  N    1.435844   2.340243   2.340243   1.435843   3.360166
    12  O    3.518359   3.504656   2.469916   1.203182   4.543501
    13  O    1.203181   2.469915   3.504656   3.518358   2.836904
                    6          7          8          9         10
     6  H    0.000000
     7  C    4.744636   0.000000
     8  H    4.965859   1.104916   0.000000
     9  H    5.434023   1.104915   1.793262   0.000000
    10  H    5.249406   1.104827   1.792226   1.792226   0.000000
    11  N    3.360166   1.473346   2.126676   2.126676   2.132835
    12  O    2.836904   2.973793   2.665034   3.915837   3.478080
    13  O    4.543500   2.973792   3.988657   2.771861   3.308621
                   11         12         13
    11  N    0.000000
    12  O    2.345211   0.000000
    13  O    2.345211   4.622382   0.000000
 Stoichiometry    C5H5NO2
 Framework group  C1[X(C5H5NO2)]
 Deg. of freedom    33
 Full point group                 C1      NOp   1
 Largest Abelian subgroup         C1      NOp   1
 Largest concise Abelian subgroup C1      NOp   1
                         Standard orientation:                         
 ---------------------------------------------------------------------
 Center     Atomic      Atomic             Coordinates (Angstroms)
 Number     Number       Type             X           Y           Z
 ---------------------------------------------------------------------
      1          6           0       -1.182439   -0.214910   -0.000888
      2          6           0       -0.668775   -1.643015    0.003866
      3          6           0        0.668659   -1.643052    0.003862
      4          6           0        1.182403   -0.214975   -0.000894
      5          1           0       -1.362514   -2.471888    0.006319
      6          1           0        1.362352   -2.471963    0.006312
      7          6           0        0.000046    2.072890    0.007087
      8          1           0        0.952701    2.460536   -0.396669
      9          1           0       -0.827501    2.462606   -0.612691
     10          1           0       -0.124342    2.456130    1.035823
     11          7           0        0.000005    0.599609   -0.006700
     12          8           0        2.311185    0.201541   -0.004406
     13          8           0       -2.311197    0.201670   -0.004394
 ---------------------------------------------------------------------
 Rotational constants (GHZ):      3.2401673      2.2749787      1.3481131
 Standard basis: 6-31+G(d,p) (6D, 7F)
 There are   177 symmetry adapted cartesian basis functions of A   symmetry.
 There are   177 symmetry adapted basis functions of A   symmetry.
   177 basis functions,   291 primitive gaussians,   177 cartesian basis functions
    29 alpha electrons       29 beta electrons
       nuclear repulsion energy       350.8173106584 Hartrees.
 NAtoms=   13 NActive=   13 NUniq=   13 SFac= 1.00D+00 NAtFMM=   60 NAOKFM=F Big=F
 Integral buffers will be    131072 words long.
 Raffenetti 2 integral format.
 Two-electron integral symmetry is turned on.
 Nuclear repulsion after empirical dispersion term =      350.8089975496 Hartrees.
 ------------------------------------------------------------------------------
 Polarizable Continuum Model (PCM)
 =================================
 Model                : C-PCM.
 Atomic radii         : UFF (Universal Force Field).
 Polarization charges : Total charges.
 Charge compensation  : None.
 Solution method      : On-the-fly selection.
 Cavity type          : Scaled VdW (van der Waals Surface) (Alpha=1.100).
 Cavity algorithm     : GePol (No added spheres)
                        Default sphere list used, NSphG=   13.
                        Lebedev-Laikov grids with approx.  5.0 points / Ang**2.
                        Smoothing algorithm: Karplus/York (Gamma=1.0000).
                        Polarization charges: spherical gaussians, with
                                              point-specific exponents (IZeta= 3).
                        Self-potential: point-specific (ISelfS= 7).
                        Self-field    : sphere-specific E.n sum rule (ISelfD= 2).
 1st derivatives      : Analytical E(r).r(x)/FMM algorithm (CHGder, D1EAlg=3).
                        Cavity 1st derivative terms included.
 Solvent              : Toluene, Eps=   2.374100 Eps(inf)=   2.238315
 ------------------------------------------------------------------------------
 Spheres list:
 ISph  on   Nord     Re0    Alpha      Xe            Ye            Ze
    1   C      1    1.9255  1.100     -1.182439     -0.214910     -0.000888
    2   C      2    1.9255  1.100     -0.668775     -1.643015      0.003866
    3   C      3    1.9255  1.100      0.668659     -1.643052      0.003862
    4   C      4    1.9255  1.100      1.182403     -0.214975     -0.000894
    5   H      5    1.4430  1.100     -1.362514     -2.471888      0.006319
    6   H      6    1.4430  1.100      1.362352     -2.471963      0.006312
    7   C      7    1.9255  1.100      0.000046      2.072890      0.007087
    8   H      8    1.4430  1.100      0.952701      2.460536     -0.396669
    9   H      9    1.4430  1.100     -0.827501      2.462606     -0.612691
   10   H     10    1.4430  1.100     -0.124342      2.456130      1.035823
   11   N     11    1.8300  1.100      0.000005      0.599609     -0.006700
   12   O     12    1.7500  1.100      2.311185      0.201541     -0.004406
   13   O     13    1.7500  1.100     -2.311197      0.201670     -0.004394
 ------------------------------------------------------------------------------
 One-electron integrals computed using PRISM.
 NBasis=   177 RedAO= T EigKep=  1.75D-05  NBF=   177
 NBsUse=   177 1.00D-06 EigRej= -1.00D+00 NBFU=   177
 ExpMin= 4.38D-02 ExpMax= 5.48D+03 ExpMxC= 8.25D+02 IAcc=2 IRadAn=         4 AccDes= 0.00D+00
 Harris functional with IExCor=  402 and IRadAn=       4 diagonalized for initial guess.
 HarFok:  IExCor=  402 AccDes= 0.00D+00 IRadAn=         4 IDoV= 1 UseB2=F ITyADJ=14
 ICtDFT=  3500011 ScaDFX=  1.000000  1.000000  1.000000  1.000000
 FoFCou: FMM=F IPFlag=           0 FMFlag=      100000 FMFlg1=           0
         NFxFlg=           0 DoJE=T BraDBF=F KetDBF=T FulRan=T
         wScrn=  0.000000 ICntrl=     500 IOpCl=  0 I1Cent=   200000004 NGrid=           0
         NMat0=    1 NMatS0=      1 NMatT0=    0 NMatD0=    1 NMtDS0=    0 NMtDT0=    0
 Petite list used in FoFCou.
 Requested convergence on RMS density matrix=1.00D-08 within 128 cycles.
 Requested convergence on MAX density matrix=1.00D-06.
 Requested convergence on             energy=1.00D-06.
 No special actions if energy rises.
 Inv3:  Mode=1 IEnd=     4961388.
 Iteration    1 A*A^-1 deviation from unit magnitude is 6.00D-15 for   1286.
 Iteration    1 A*A^-1 deviation from orthogonality  is 1.69D-15 for   1286   1149.
 Iteration    1 A^-1*A deviation from unit magnitude is 6.00D-15 for   1286.
 Iteration    1 A^-1*A deviation from orthogonality  is 1.36D-15 for    800    744.
 Error on total polarization charges =  0.00705
 SCF Done:  E(RB3LYP) =  -398.779036503     A.U. after   13 cycles
            NFock= 13  Conv=0.32D-08     -V/T= 2.0099

 **********************************************************************

            Population analysis using the SCF density.

 **********************************************************************

 Orbital symmetries:
       Occupied  (A) (A) (A) (A) (A) (A) (A) (A) (A) (A) (A) (A)
                 (A) (A) (A) (A) (A) (A) (A) (A) (A) (A) (A) (A)
                 (A) (A) (A) (A) (A)
       Virtual   (A) (A) (A) (A) (A) (A) (A) (A) (A) (A) (A) (A)
                 (A) (A) (A) (A) (A) (A) (A) (A) (A) (A) (A) (A)
                 (A) (A) (A) (A) (A) (A) (A) (A) (A) (A) (A) (A)
                 (A) (A) (A) (A) (A) (A) (A) (A) (A) (A) (A) (A)
                 (A) (A) (A) (A) (A) (A) (A) (A) (A) (A) (A) (A)
                 (A) (A) (A) (A) (A) (A) (A) (A) (A) (A) (A) (A)
                 (A) (A) (A) (A) (A) (A) (A) (A) (A) (A) (A) (A)
                 (A) (A) (A) (A) (A) (A) (A) (A) (A) (A) (A) (A)
                 (A) (A) (A) (A) (A) (A) (A) (A) (A) (A) (A) (A)
                 (A) (A) (A) (A) (A) (A) (A) (A) (A) (A) (A) (A)
                 (A) (A) (A) (A) (A) (A) (A) (A) (A) (A) (A) (A)
                 (A) (A) (A) (A) (A) (A) (A) (A) (A) (A) (A) (A)
                 (A) (A) (A) (A)
 The electronic state is 1-A.
 Alpha  occ. eigenvalues --  -19.17714 -19.17705 -14.39703 -10.33347 -10.33338
 Alpha  occ. eigenvalues --  -10.24253 -10.24167 -10.23736  -1.09431  -1.08303
 Alpha  occ. eigenvalues --   -0.96362  -0.83778  -0.71695  -0.68910  -0.60992
 Alpha  occ. eigenvalues --   -0.57113  -0.51548  -0.49048  -0.48230  -0.46430
 Alpha  occ. eigenvalues --   -0.45995  -0.44214  -0.42351  -0.42061  -0.40728
 Alpha  occ. eigenvalues --   -0.32184  -0.32022  -0.28845  -0.28217
 Alpha virt. eigenvalues --   -0.10898   0.00360   0.01577   0.02861   0.03162
 Alpha virt. eigenvalues --    0.03999   0.04144   0.04230   0.05506   0.06564
 Alpha virt. eigenvalues --    0.07650   0.08323   0.08489   0.09339   0.09956
 Alpha virt. eigenvalues --    0.11332   0.13303   0.13584   0.14381   0.14417
 Alpha virt. eigenvalues --    0.16723   0.17234   0.18184   0.18915   0.19593
 Alpha virt. eigenvalues --    0.20508   0.20829   0.21349   0.22393   0.24115
 Alpha virt. eigenvalues --    0.25053   0.25518   0.25609   0.26208   0.27899
 Alpha virt. eigenvalues --    0.28602   0.29415   0.30781   0.32112   0.32763
 Alpha virt. eigenvalues --    0.34097   0.35393   0.37207   0.38791   0.41956
 Alpha virt. eigenvalues --    0.44670   0.46208   0.56652   0.62428   0.63983
 Alpha virt. eigenvalues --    0.65760   0.68969   0.70561   0.71945   0.72748
 Alpha virt. eigenvalues --    0.73912   0.77167   0.78545   0.83272   0.84231
 Alpha virt. eigenvalues --    0.88463   0.90618   0.91779   0.92657   0.95782
 Alpha virt. eigenvalues --    0.98155   1.02342   1.06309   1.06960   1.09455
 Alpha virt. eigenvalues --    1.17924   1.19919   1.20380   1.22110   1.24291
 Alpha virt. eigenvalues --    1.25583   1.28636   1.29408   1.29836   1.31218
 Alpha virt. eigenvalues --    1.32604   1.36146   1.36927   1.39449   1.41394
 Alpha virt. eigenvalues --    1.44601   1.49676   1.56188   1.61143   1.62828
 Alpha virt. eigenvalues --    1.68240   1.73725   1.74139   1.76171   1.76682
 Alpha virt. eigenvalues --    1.85701   1.88927   1.91047   1.91625   1.92171
 Alpha virt. eigenvalues --    1.93104   1.97088   1.97714   2.03269   2.05181
 Alpha virt. eigenvalues --    2.08048   2.09194   2.10006   2.15263   2.15951
 Alpha virt. eigenvalues --    2.22456   2.31653   2.34907   2.35170   2.37139
 Alpha virt. eigenvalues --    2.42147   2.45203   2.46305   2.49248   2.50941
 Alpha virt. eigenvalues --    2.51138   2.63278   2.65350   2.68623   2.73102
 Alpha virt. eigenvalues --    2.73928   2.76242   2.80633   2.85838   2.94922
 Alpha virt. eigenvalues --    3.01660   3.02408   3.18401   3.22506   3.25573
 Alpha virt. eigenvalues --    3.29054   3.29288   3.40826   3.42240   3.67222
 Alpha virt. eigenvalues --    4.13415   4.22150   4.31289   4.41006   4.53322
 Alpha virt. eigenvalues --    4.61038   4.64021   4.98398
          Condensed to atoms (all electrons):
               1          2          3          4          5          6
     1  C    5.339220  -0.447939   0.553263  -0.318859   0.014905  -0.007015
     2  C   -0.447939   6.384146  -0.358509   0.557510   0.300656   0.013240
     3  C    0.553263  -0.358509   6.444678  -0.483170   0.013558   0.301798
     4  C   -0.318859   0.557510  -0.483170   5.358870  -0.007596   0.013550
     5  H    0.014905   0.300656   0.013558  -0.007596   0.502373  -0.002038
     6  H   -0.007015   0.013240   0.301798   0.013550  -0.002038   0.502635
     7  C   -0.098133  -0.026974  -0.047326  -0.084628  -0.000307  -0.000356
     8  H    0.002984  -0.002859   0.001352  -0.004856   0.000002  -0.000002
     9  H   -0.003733   0.001454  -0.001149   0.002850  -0.000002   0.000002
    10  H   -0.001345  -0.000079  -0.000065   0.000132   0.000000   0.000001
    11  N    0.277085  -0.354561  -0.364703   0.287224   0.008279   0.008279
    12  O    0.062139  -0.068598  -0.007050   0.308712  -0.000404  -0.004180
    13  O    0.310957  -0.012803  -0.068500   0.061003  -0.004081  -0.000393
               7          8          9         10         11         12
     1  C   -0.098133   0.002984  -0.003733  -0.001345   0.277085   0.062139
     2  C   -0.026974  -0.002859   0.001454  -0.000079  -0.354561  -0.068598
     3  C   -0.047326   0.001352  -0.001149  -0.000065  -0.364703  -0.007050
     4  C   -0.084628  -0.004856   0.002850   0.000132   0.287224   0.308712
     5  H   -0.000307   0.000002  -0.000002   0.000000   0.008279  -0.000404
     6  H   -0.000356  -0.000002   0.000002   0.000001   0.008279  -0.004180
     7  C    5.149849   0.408587   0.403155   0.403675   0.235488  -0.035651
     8  H    0.408587   0.506433  -0.023200  -0.028330  -0.043589   0.005162
     9  H    0.403155  -0.023200   0.514686  -0.030317  -0.042669   0.000272
    10  H    0.403675  -0.028330  -0.030317   0.532954  -0.047411   0.000887
    11  N    0.235488  -0.043589  -0.042669  -0.047411   7.425102  -0.095543
    12  O   -0.035651   0.005162   0.000272   0.000887  -0.095543   8.361776
    13  O   -0.027765   0.000196   0.003886   0.001228  -0.095673  -0.001333
              13
     1  C    0.310957
     2  C   -0.012803
     3  C   -0.068500
     4  C    0.061003
     5  H   -0.004081
     6  H   -0.000393
     7  C   -0.027765
     8  H    0.000196
     9  H    0.003886
    10  H    0.001228
    11  N   -0.095673
    12  O   -0.001333
    13  O    8.357725
 Mulliken charges:
               1
     1  C    0.316471
     2  C    0.015316
     3  C    0.015822
     4  C    0.309256
     5  H    0.174656
     6  H    0.174480
     7  C   -0.279613
     8  H    0.178120
     9  H    0.174766
    10  H    0.168670
    11  N   -0.197307
    12  O   -0.526190
    13  O   -0.524447
 Sum of Mulliken charges =   0.00000
 Mulliken charges with hydrogens summed into heavy atoms:
               1
     1  C    0.316471
     2  C    0.189972
     3  C    0.190302
     4  C    0.309256
     7  C    0.241942
    11  N   -0.197307
    12  O   -0.526190
    13  O   -0.524447
 Electronic spatial extent (au):  <R**2>=            845.3721
 Charge=              0.0000 electrons
 Dipole moment (field-independent basis, Debye):
    X=              0.0204    Y=             -1.5038    Z=              0.0009  Tot=              1.5040
 Quadrupole moment (field-independent basis, Debye-Ang):
   XX=            -61.9602   YY=            -35.9022   ZZ=            -45.8609
   XY=              0.0820   XZ=              0.0008   YZ=             -0.1370
 Traceless Quadrupole moment (field-independent basis, Debye-Ang):
   XX=            -14.0524   YY=             12.0056   ZZ=              2.0469
   XY=              0.0820   XZ=              0.0008   YZ=             -0.1370
 Octapole moment (field-independent basis, Debye-Ang**2):
  XXX=              0.2716  YYY=             -0.5584  ZZZ=              0.5624  XYY=              0.2245
  XXY=             -9.2738  XXZ=             -0.5655  XZZ=             -0.2326  YZZ=              3.8636
  YYZ=             -0.3798  XYZ=              0.0021
 Hexadecapole moment (field-independent basis, Debye-Ang**3):
 XXXX=           -678.0747 YYYY=           -429.3582 ZZZZ=            -53.8665 XXXY=              0.8476
 XXXZ=             -0.0083 YYYX=              0.6642 YYYZ=             -1.4231 ZZZX=              0.0056
 ZZZY=              1.4557 XXYY=           -156.7996 XXZZ=            -99.1757 YYZZ=            -93.1807
 XXYZ=             -1.8293 YYXZ=              0.0096 ZZXY=             -0.5913
 N-N= 3.508089975496D+02 E-N=-1.631126658478D+03  KE= 3.948738040902D+02
 D1PCM: C-PCM CHGder 1st derivatives, ID1Alg=3 FixD1E=F DoIter=F DoCFld=F I1PDM=0.
 Calling FoFJK, ICntrl=      2127 FMM=F ISym2X=0 I1Cent= 0 IOpClX= 0 NMat=1 NMatS=1 NMatT=0.
 ***** Axes restored to original set *****
 -------------------------------------------------------------------
 Center     Atomic                   Forces (Hartrees/Bohr)
 Number     Number              X              Y              Z
 -------------------------------------------------------------------
      1        6           0.047964892    0.004361083   -0.000158005
      2        6          -0.004935819    0.006625922    0.000053879
      3        6           0.005015625    0.006593406    0.000051836
      4        6          -0.047612286    0.004138444   -0.000137683
      5        1           0.001021900   -0.002356031   -0.000024921
      6        1          -0.001018924   -0.002350912   -0.000025523
      7        6          -0.000987257    0.001055427    0.000475123
      8        1          -0.006159105   -0.007516173    0.002919427
      9        1           0.005140651   -0.006191886    0.004301574
     10        1           0.000622704   -0.003111047   -0.005740289
     11        7           0.000898678   -0.007195572   -0.001850004
     12        8           0.016820640    0.002818491    0.000063183
     13        8          -0.016771699    0.003128848    0.000071404
 -------------------------------------------------------------------
 Cartesian Forces:  Max     0.047964892 RMS     0.012007835

 GradGradGradGradGradGradGradGradGradGradGradGradGradGradGradGradGradGrad
 Berny optimization.
 FormGI is forming the generalized inverse of G from B-inverse, IUseBI=4.
 Internal  Forces:  Max     0.024156278 RMS     0.006628685
 Search for a local minimum.
 Step number   1 out of a maximum of   70
 All quantities printed in internal units (Hartrees-Bohrs-Radians)
 Mixed Optimization -- RFO/linear search
 Second derivative matrix not updated -- first step.
 ITU=  0
     Eigenvalues ---    0.00722   0.00790   0.00844   0.00909   0.01100
     Eigenvalues ---    0.01521   0.01656   0.02189   0.07282   0.07339
     Eigenvalues ---    0.16000   0.16000   0.16000   0.16000   0.16000
     Eigenvalues ---    0.22680   0.24789   0.24992   0.25000   0.25000
     Eigenvalues ---    0.29542   0.30395   0.33144   0.33144   0.33154
     Eigenvalues ---    0.35343   0.35888   0.35888   0.37974   0.39345
     Eigenvalues ---    0.55231   1.03240   1.03241
 RFO step:  Lambda=-6.57826398D-03 EMin= 7.21559835D-03
 Linear search not attempted -- first point.
 Iteration  1 RMS(Cart)=  0.02592389 RMS(Int)=  0.00024299
 Iteration  2 RMS(Cart)=  0.00023392 RMS(Int)=  0.00010616
 Iteration  3 RMS(Cart)=  0.00000007 RMS(Int)=  0.00010616
 Variable       Old X    -DE/DX   Delta X   Delta X   Delta X     New X
                                 (Linear)    (Quad)   (Total)
    R1        2.86800  -0.00736   0.00000  -0.02238  -0.02238   2.84562
    R2        2.71335  -0.02416   0.00000  -0.06148  -0.06147   2.65188
    R3        2.27368   0.01682   0.00000   0.01619   0.01619   2.28987
    R4        2.52738  -0.00603   0.00000  -0.00838  -0.00840   2.51899
    R5        2.04257   0.00115   0.00000   0.00315   0.00315   2.04572
    R6        2.86800  -0.00741   0.00000  -0.02243  -0.02244   2.84556
    R7        2.04257   0.00115   0.00000   0.00314   0.00314   2.04572
    R8        2.71335  -0.02347   0.00000  -0.05975  -0.05974   2.65361
    R9        2.27368   0.01676   0.00000   0.01613   0.01613   2.28981
   R10        2.08799  -0.00901   0.00000  -0.02666  -0.02666   2.06132
   R11        2.08799  -0.00845   0.00000  -0.02499  -0.02499   2.06300
   R12        2.08782  -0.00649   0.00000  -0.01921  -0.01921   2.06861
   R13        2.78422  -0.01574   0.00000  -0.04373  -0.04373   2.74048
    A1        1.82873   0.00596   0.00000   0.02168   0.02169   1.85042
    A2        2.26963  -0.00624   0.00000  -0.02355  -0.02356   2.24607
    A3        2.18482   0.00028   0.00000   0.00189   0.00188   2.18670
    A4        1.91610  -0.00545   0.00000  -0.01678  -0.01679   1.89931
    A5        2.09944   0.00507   0.00000   0.02245   0.02246   2.12190
    A6        2.26765   0.00038   0.00000  -0.00568  -0.00567   2.26197
    A7        1.91610  -0.00548   0.00000  -0.01684  -0.01686   1.89924
    A8        2.26765   0.00040   0.00000  -0.00563  -0.00562   2.26202
    A9        2.09944   0.00508   0.00000   0.02247   0.02248   2.12192
   A10        1.82873   0.00582   0.00000   0.02130   0.02130   1.85003
   A11        2.26963  -0.00653   0.00000  -0.02473  -0.02474   2.24489
   A12        2.18482   0.00070   0.00000   0.00345   0.00345   2.18826
   A13        1.89340   0.00437   0.00000   0.02289   0.02233   1.91574
   A14        1.89191   0.00284   0.00000   0.01746   0.01745   1.90936
   A15        1.92562  -0.00597   0.00000  -0.03734  -0.03762   1.88800
   A16        1.89191   0.00218   0.00000   0.01597   0.01599   1.90790
   A17        1.92562  -0.00377   0.00000  -0.02286  -0.02311   1.90251
   A18        1.93432   0.00069   0.00000   0.00586   0.00586   1.94018
   A19        1.93512  -0.00085   0.00000  -0.00937  -0.00934   1.92577
   A20        2.17394  -0.00007   0.00000   0.00273   0.00272   2.17666
   A21        2.17394   0.00092   0.00000   0.00659   0.00658   2.18052
    D1        0.00223   0.00000   0.00000   0.00021   0.00021   0.00244
    D2       -3.13903   0.00000   0.00000   0.00035   0.00036  -3.13867
    D3        3.13929   0.00007   0.00000   0.00414   0.00410  -3.13979
    D4       -0.00197   0.00006   0.00000   0.00428   0.00426   0.00228
    D5       -0.00370  -0.00001   0.00000  -0.00045  -0.00044  -0.00414
    D6       -3.12527   0.00001   0.00000   0.00185   0.00186  -3.12341
    D7       -3.14105  -0.00005   0.00000  -0.00404  -0.00408   3.13806
    D8        0.02057  -0.00003   0.00000  -0.00174  -0.00178   0.01879
    D9        0.00000   0.00000   0.00000   0.00009   0.00009   0.00009
   D10       -3.14122   0.00000   0.00000   0.00018   0.00019  -3.14103
   D11        3.14122   0.00001   0.00000  -0.00005  -0.00007   3.14115
   D12        0.00000   0.00000   0.00000   0.00003   0.00003   0.00003
   D13       -0.00223   0.00000   0.00000  -0.00036  -0.00036  -0.00259
   D14       -3.13929  -0.00007   0.00000  -0.00385  -0.00381   3.14009
   D15        3.13903   0.00000   0.00000  -0.00044  -0.00045   3.13858
   D16        0.00197  -0.00006   0.00000  -0.00393  -0.00390  -0.00193
   D17        0.00370   0.00001   0.00000   0.00050   0.00049   0.00419
   D18        3.12527  -0.00002   0.00000  -0.00185  -0.00187   3.12340
   D19        3.14105   0.00004   0.00000   0.00367   0.00370  -3.13844
   D20       -0.02057   0.00001   0.00000   0.00131   0.00134  -0.01923
   D21       -2.74887   0.00028   0.00000   0.00222   0.00198  -2.74689
   D22        0.41544   0.00032   0.00000   0.00501   0.00480   0.42024
   D23       -0.65697  -0.00053   0.00000  -0.00784  -0.00761  -0.66458
   D24        2.50734  -0.00048   0.00000  -0.00504  -0.00479   2.50255
   D25        1.43867   0.00018   0.00000   0.00099   0.00097   1.43964
   D26       -1.68020   0.00022   0.00000   0.00379   0.00378  -1.67642
         Item               Value     Threshold  Converged?
 Maximum Force            0.024156     0.000450     NO 
 RMS     Force            0.006629     0.000300     NO 
 Maximum Displacement     0.109992     0.001800     NO 
 RMS     Displacement     0.026018     0.001200     NO 
 Predicted change in Energy=-3.353501D-03
 GradGradGradGradGradGradGradGradGradGradGradGradGradGradGradGradGradGrad

                          Input orientation:                          
 ---------------------------------------------------------------------
 Center     Atomic      Atomic             Coordinates (Angstroms)
 Number     Number       Type             X           Y           Z
 ---------------------------------------------------------------------
      1          6           0       -1.151726   -0.196774   -0.001143
      2          6           0       -0.665901   -1.622086    0.001669
      3          6           0        0.667090   -1.622092    0.001631
      4          6           0        1.152828   -0.196782   -0.001075
      5          1           0       -1.355972   -2.456182    0.002895
      6          1           0        1.357192   -2.456158    0.002796
      7          6           0       -0.003127    2.055067    0.011618
      8          1           0        0.947688    2.402331   -0.394850
      9          1           0       -0.824429    2.416426   -0.610209
     10          1           0       -0.124592    2.437648    1.030031
     11          7           0       -0.000002    0.604976   -0.006052
     12          8           0        2.292878    0.213755   -0.000457
     13          8           0       -2.291344    0.215051   -0.000225
 ---------------------------------------------------------------------
                    Distance matrix (angstroms):
                    1          2          3          4          5
     1  C    0.000000
     2  C    1.505838   0.000000
     3  C    2.310764   1.332991   0.000000
     4  C    2.304554   2.310686   1.505808   0.000000
     5  H    2.268624   1.082551   2.188262   3.376238   0.000000
     6  H    3.376314   2.188283   1.082547   2.268604   2.713164
     7  C    2.527890   3.736418   3.737752   2.531247   4.709738
     8  H    3.364207   4.353943   4.053629   2.636764   5.391678
     9  H    2.703128   4.087677   4.348403   3.333083   4.939711
    10  H    3.009735   4.222793   4.262142   3.104062   5.149842
    11  N    1.403315   2.324496   2.324844   1.404228   3.348047
    12  O    3.468982   3.482052   2.452249   1.211716   4.521359
    13  O    1.211747   2.452986   3.482446   3.468707   2.830268
                    6          7          8          9         10
     6  H    0.000000
     7  C    4.711867   0.000000
     8  H    4.891904   1.090806   0.000000
     9  H    5.373763   1.091690   1.785211   0.000000
    10  H    5.215384   1.094663   1.783624   1.783427   0.000000
    11  N    3.348521   1.450202   2.068760   2.079913   2.108952
    12  O    2.829127   2.943164   2.599028   3.865380   3.442640
    13  O    4.521856   2.936279   3.928263   2.714769   3.270501
                   11         12         13
    11  N    0.000000
    12  O    2.326024   0.000000
    13  O    2.324289   4.584223   0.000000
 Stoichiometry    C5H5NO2
 Framework group  C1[X(C5H5NO2)]
 Deg. of freedom    33
 Full point group                 C1      NOp   1
 Largest Abelian subgroup         C1      NOp   1
 Largest concise Abelian subgroup C1      NOp   1
                         Standard orientation:                         
 ---------------------------------------------------------------------
 Center     Atomic      Atomic             Coordinates (Angstroms)
 Number     Number       Type             X           Y           Z
 ---------------------------------------------------------------------
      1          6           0       -1.150875   -0.211009   -0.001827
      2          6           0       -0.658394   -1.634027    0.003575
      3          6           0        0.674582   -1.627804    0.003581
      4          6           0        1.153653   -0.200246   -0.001684
      5          1           0       -1.344560   -2.471336    0.006286
      6          1           0        1.368574   -2.458633    0.006276
      7          6           0       -0.012813    2.046194    0.006903
      8          1           0        0.936385    2.397163   -0.400159
      9          1           0       -0.835770    2.402588   -0.615602
     10          1           0       -0.136107    2.430042    1.024620
     11          7           0       -0.002911    0.596104   -0.008147
     12          8           0        2.291773    0.215614   -0.001770
     13          8           0       -2.292406    0.195486   -0.001690
 ---------------------------------------------------------------------
 Rotational constants (GHZ):      3.3076581      2.3234369      1.3766896
 Standard basis: 6-31+G(d,p) (6D, 7F)
 There are   177 symmetry adapted cartesian basis functions of A   symmetry.
 There are   177 symmetry adapted basis functions of A   symmetry.
   177 basis functions,   291 primitive gaussians,   177 cartesian basis functions
    29 alpha electrons       29 beta electrons
       nuclear repulsion energy       354.1241140122 Hartrees.
 NAtoms=   13 NActive=   13 NUniq=   13 SFac= 1.00D+00 NAtFMM=   60 NAOKFM=F Big=F
 Integral buffers will be    131072 words long.
 Raffenetti 2 integral format.
 Two-electron integral symmetry is turned on.
 Nuclear repulsion after empirical dispersion term =      354.1157138579 Hartrees.
 ------------------------------------------------------------------------------
 Polarizable Continuum Model (PCM)
 =================================
 Model                : C-PCM.
 Atomic radii         : UFF (Universal Force Field).
 Polarization charges : Total charges.
 Charge compensation  : None.
 Solution method      : On-the-fly selection.
 Cavity type          : Scaled VdW (van der Waals Surface) (Alpha=1.100).
 Cavity algorithm     : GePol (No added spheres)
                        Default sphere list used, NSphG=   13.
                        Lebedev-Laikov grids with approx.  5.0 points / Ang**2.
                        Smoothing algorithm: Karplus/York (Gamma=1.0000).
                        Polarization charges: spherical gaussians, with
                                              point-specific exponents (IZeta= 3).
                        Self-potential: point-specific (ISelfS= 7).
                        Self-field    : sphere-specific E.n sum rule (ISelfD= 2).
 1st derivatives      : Analytical E(r).r(x)/FMM algorithm (CHGder, D1EAlg=3).
                        Cavity 1st derivative terms included.
 Solvent              : Toluene, Eps=   2.374100 Eps(inf)=   2.238315
 ------------------------------------------------------------------------------
 Spheres list:
 ISph  on   Nord     Re0    Alpha      Xe            Ye            Ze
    1   C      1    1.9255  1.100     -1.150875     -0.211009     -0.001827
    2   C      2    1.9255  1.100     -0.658394     -1.634027      0.003575
    3   C      3    1.9255  1.100      0.674582     -1.627804      0.003581
    4   C      4    1.9255  1.100      1.153653     -0.200246     -0.001684
    5   H      5    1.4430  1.100     -1.344560     -2.471336      0.006286
    6   H      6    1.4430  1.100      1.368574     -2.458633      0.006276
    7   C      7    1.9255  1.100     -0.012813      2.046194      0.006903
    8   H      8    1.4430  1.100      0.936385      2.397163     -0.400159
    9   H      9    1.4430  1.100     -0.835770      2.402588     -0.615602
   10   H     10    1.4430  1.100     -0.136107      2.430042      1.024620
   11   N     11    1.8300  1.100     -0.002911      0.596104     -0.008147
   12   O     12    1.7500  1.100      2.291773      0.215614     -0.001770
   13   O     13    1.7500  1.100     -2.292406      0.195486     -0.001690
 ------------------------------------------------------------------------------
 One-electron integrals computed using PRISM.
 NBasis=   177 RedAO= T EigKep=  1.62D-05  NBF=   177
 NBsUse=   177 1.00D-06 EigRej= -1.00D+00 NBFU=   177
 Initial guess from the checkpoint file:  "b3lyp_dienophile_pm6_cpcmtoluene_1.chk"
 B after Tr=     0.000000    0.000000    0.000000
         Rot=    0.999997    0.000372    0.000004   -0.002396 Ang=   0.28 deg.
 ExpMin= 4.38D-02 ExpMax= 5.48D+03 ExpMxC= 8.25D+02 IAcc=2 IRadAn=         4 AccDes= 0.00D+00
 Harris functional with IExCor=  402 and IRadAn=       4 diagonalized for initial guess.
 HarFok:  IExCor=  402 AccDes= 0.00D+00 IRadAn=         4 IDoV= 1 UseB2=F ITyADJ=14
 ICtDFT=  3500011 ScaDFX=  1.000000  1.000000  1.000000  1.000000
 FoFCou: FMM=F IPFlag=           0 FMFlag=      100000 FMFlg1=           0
         NFxFlg=           0 DoJE=T BraDBF=F KetDBF=T FulRan=T
         wScrn=  0.000000 ICntrl=     500 IOpCl=  0 I1Cent=   200000004 NGrid=           0
         NMat0=    1 NMatS0=      1 NMatT0=    0 NMatD0=    1 NMtDS0=    0 NMtDT0=    0
 Petite list used in FoFCou.
 Requested convergence on RMS density matrix=1.00D-08 within 128 cycles.
 Requested convergence on MAX density matrix=1.00D-06.
 Requested convergence on             energy=1.00D-06.
 No special actions if energy rises.
 Inv3:  Mode=1 IEnd=     4915200.
 Iteration    1 A*A^-1 deviation from unit magnitude is 3.11D-15 for   1277.
 Iteration    1 A*A^-1 deviation from orthogonality  is 1.77D-15 for    864     64.
 Iteration    1 A^-1*A deviation from unit magnitude is 3.11D-15 for   1277.
 Iteration    1 A^-1*A deviation from orthogonality  is 1.20D-15 for   1223   1140.
 Error on total polarization charges =  0.00701
 SCF Done:  E(RB3LYP) =  -398.782917669     A.U. after   11 cycles
            NFock= 11  Conv=0.41D-08     -V/T= 2.0093
 D1PCM: C-PCM CHGder 1st derivatives, ID1Alg=3 FixD1E=F DoIter=F DoCFld=F I1PDM=0.
 Calling FoFJK, ICntrl=      2127 FMM=F ISym2X=0 I1Cent= 0 IOpClX= 0 NMat=1 NMatS=1 NMatT=0.
 ***** Axes restored to original set *****
 -------------------------------------------------------------------
 Center     Atomic                   Forces (Hartrees/Bohr)
 Number     Number              X              Y              Z
 -------------------------------------------------------------------
      1        6           0.015801082    0.000011065    0.000436647
      2        6          -0.006458593    0.000408721   -0.000115397
      3        6           0.006323911    0.000530526   -0.000092229
      4        6          -0.015492921    0.000108031    0.000378441
      5        1           0.000608066   -0.000048769   -0.000027944
      6        1          -0.000579671   -0.000011143   -0.000021344
      7        6           0.000042139    0.001821191   -0.000771422
      8        1           0.000091228    0.000374347    0.000319741
      9        1          -0.000035459    0.000157624    0.000416815
     10        1          -0.000033997   -0.000127663   -0.000288161
     11        7          -0.000147117   -0.007364049   -0.000094359
     12        8           0.008870767    0.001993185   -0.000068320
     13        8          -0.008989435    0.002146936   -0.000072467
 -------------------------------------------------------------------
 Cartesian Forces:  Max     0.015801082 RMS     0.004528407

 GradGradGradGradGradGradGradGradGradGradGradGradGradGradGradGradGradGrad
 Berny optimization.
 Using GEDIIS/GDIIS optimizer.
 FormGI is forming the generalized inverse of G from B-inverse, IUseBI=4.
 Internal  Forces:  Max     0.009184323 RMS     0.002063754
 Search for a local minimum.
 Step number   2 out of a maximum of   70
 All quantities printed in internal units (Hartrees-Bohrs-Radians)
 Mixed Optimization -- RFO/linear search
 Update second derivatives using D2CorX and points    1    2
 DE= -3.88D-03 DEPred=-3.35D-03 R= 1.16D+00
 TightC=F SS=  1.41D+00  RLast= 1.40D-01 DXNew= 5.0454D-01 4.2149D-01
 Trust test= 1.16D+00 RLast= 1.40D-01 DXMaxT set to 4.21D-01
 ITU=  1  0
 Use linear search instead of GDIIS.
     Eigenvalues ---    0.00722   0.00797   0.00851   0.00909   0.01098
     Eigenvalues ---    0.01497   0.01636   0.02169   0.07370   0.07676
     Eigenvalues ---    0.15873   0.16000   0.16000   0.16000   0.16441
     Eigenvalues ---    0.22697   0.23211   0.24937   0.24990   0.25000
     Eigenvalues ---    0.29491   0.30171   0.32388   0.33146   0.33165
     Eigenvalues ---    0.33874   0.35874   0.35888   0.37665   0.39313
     Eigenvalues ---    0.56668   0.97893   1.03241
 RFO step:  Lambda=-3.72592567D-04 EMin= 7.21556589D-03
 Quartic linear search produced a step of  0.17418.
 Iteration  1 RMS(Cart)=  0.00618000 RMS(Int)=  0.00006672
 Iteration  2 RMS(Cart)=  0.00006527 RMS(Int)=  0.00004095
 Iteration  3 RMS(Cart)=  0.00000000 RMS(Int)=  0.00004095
 Variable       Old X    -DE/DX   Delta X   Delta X   Delta X     New X
                                 (Linear)    (Quad)   (Total)
    R1        2.84562  -0.00128  -0.00390  -0.00133  -0.00522   2.84040
    R2        2.65188  -0.00484  -0.01071  -0.00726  -0.01796   2.63392
    R3        2.28987   0.00918   0.00282   0.00847   0.01129   2.30116
    R4        2.51899   0.00313  -0.00146   0.00837   0.00691   2.52590
    R5        2.04572  -0.00035   0.00055  -0.00156  -0.00101   2.04472
    R6        2.84556  -0.00127  -0.00391  -0.00126  -0.00517   2.84039
    R7        2.04572  -0.00036   0.00055  -0.00159  -0.00105   2.04467
    R8        2.65361  -0.00475  -0.01041  -0.00723  -0.01764   2.63597
    R9        2.28981   0.00902   0.00281   0.00829   0.01110   2.30091
   R10        2.06132   0.00008  -0.00464   0.00383  -0.00082   2.06051
   R11        2.06300  -0.00016  -0.00435   0.00276  -0.00160   2.06140
   R12        2.06861  -0.00031  -0.00335   0.00146  -0.00189   2.06673
   R13        2.74048   0.00222  -0.00762   0.01314   0.00552   2.74601
    A1        1.85042   0.00164   0.00378   0.00382   0.00752   1.85794
    A2        2.24607  -0.00200  -0.00410  -0.00571  -0.00988   2.23619
    A3        2.18670   0.00036   0.00033   0.00188   0.00214   2.18884
    A4        1.89931  -0.00185  -0.00292  -0.00400  -0.00693   1.89238
    A5        2.12190   0.00143   0.00391   0.00361   0.00753   2.12944
    A6        2.26197   0.00042  -0.00099   0.00038  -0.00060   2.26137
    A7        1.89924  -0.00171  -0.00294  -0.00323  -0.00617   1.89307
    A8        2.26202   0.00039  -0.00098   0.00032  -0.00066   2.26137
    A9        2.12192   0.00132   0.00392   0.00291   0.00683   2.12875
   A10        1.85003   0.00153   0.00371   0.00334   0.00697   1.85700
   A11        2.24489  -0.00206  -0.00431  -0.00580  -0.01017   2.23472
   A12        2.18826   0.00053   0.00060   0.00245   0.00299   2.19126
   A13        1.91574  -0.00004   0.00389  -0.00088   0.00290   1.91864
   A14        1.90936  -0.00028   0.00304  -0.00538  -0.00234   1.90702
   A15        1.88800   0.00060  -0.00655   0.01100   0.00439   1.89239
   A16        1.90790  -0.00026   0.00279  -0.00617  -0.00339   1.90452
   A17        1.90251   0.00031  -0.00403   0.00608   0.00200   1.90451
   A18        1.94018  -0.00031   0.00102  -0.00444  -0.00342   1.93676
   A19        1.92577   0.00039  -0.00163  -0.00002  -0.00165   1.92412
   A20        2.17666  -0.00032   0.00047  -0.00036   0.00012   2.17677
   A21        2.18052  -0.00008   0.00115   0.00025   0.00139   2.18191
    D1        0.00244   0.00009   0.00004   0.01094   0.01098   0.01341
    D2       -3.13867   0.00009   0.00006   0.01111   0.01115  -3.12752
    D3       -3.13979  -0.00005   0.00071  -0.01050  -0.00971   3.13368
    D4        0.00228  -0.00005   0.00074  -0.01033  -0.00954  -0.00725
    D5       -0.00414  -0.00015  -0.00008  -0.01752  -0.01762  -0.02176
    D6       -3.12341  -0.00009   0.00032  -0.01179  -0.01152  -3.13493
    D7        3.13806  -0.00001  -0.00071   0.00298   0.00235   3.14041
    D8        0.01879   0.00005  -0.00031   0.00871   0.00845   0.02725
    D9        0.00009  -0.00001   0.00002  -0.00055  -0.00053  -0.00044
   D10       -3.14103   0.00000   0.00003   0.00027   0.00027  -3.14076
   D11        3.14115  -0.00001  -0.00001  -0.00075  -0.00073   3.14042
   D12        0.00003   0.00000   0.00000   0.00008   0.00008   0.00011
   D13       -0.00259  -0.00008  -0.00006  -0.01001  -0.01008  -0.01267
   D14        3.14009   0.00006  -0.00066   0.01051   0.00977  -3.13333
   D15        3.13858  -0.00009  -0.00008  -0.01076  -0.01081   3.12777
   D16       -0.00193   0.00005  -0.00068   0.00977   0.00903   0.00710
   D17        0.00419   0.00015   0.00009   0.01720   0.01731   0.02150
   D18        3.12340   0.00008  -0.00033   0.01145   0.01116   3.13456
   D19       -3.13844   0.00001   0.00064  -0.00247  -0.00191  -3.14035
   D20       -0.01923  -0.00005   0.00023  -0.00822  -0.00805  -0.02728
   D21       -2.74689  -0.00025   0.00035  -0.00890  -0.00859  -2.75548
   D22        0.42024  -0.00019   0.00084  -0.00234  -0.00156   0.41868
   D23       -0.66458   0.00022  -0.00133  -0.00012  -0.00139  -0.66597
   D24        2.50255   0.00028  -0.00084   0.00644   0.00565   2.50819
   D25        1.43964  -0.00010   0.00017  -0.00662  -0.00644   1.43320
   D26       -1.67642  -0.00004   0.00066  -0.00006   0.00059  -1.67583
         Item               Value     Threshold  Converged?
 Maximum Force            0.009184     0.000450     NO 
 RMS     Force            0.002064     0.000300     NO 
 Maximum Displacement     0.020550     0.001800     NO 
 RMS     Displacement     0.006169     0.001200     NO 
 Predicted change in Energy=-2.855681D-04
 GradGradGradGradGradGradGradGradGradGradGradGradGradGradGradGradGradGrad

                          Input orientation:                          
 ---------------------------------------------------------------------
 Center     Atomic      Atomic             Coordinates (Angstroms)
 Number     Number       Type             X           Y           Z
 ---------------------------------------------------------------------
      1          6           0       -1.142739   -0.195313    0.009731
      2          6           0       -0.667916   -1.621392    0.001153
      3          6           0        0.668730   -1.621621    0.000990
      4          6           0        1.145031   -0.196033    0.008821
      5          1           0       -1.357286   -2.455358   -0.004354
      6          1           0        1.357790   -2.455811   -0.004773
      7          6           0       -0.002937    2.054640    0.006956
      8          1           0        0.947885    2.404617   -0.395995
      9          1           0       -0.824762    2.414383   -0.613634
     10          1           0       -0.127131    2.438340    1.023544
     11          7           0        0.000730    0.601558   -0.003574
     12          8           0        2.292284    0.211770    0.003019
     13          8           0       -2.289097    0.215399    0.004743
 ---------------------------------------------------------------------
                    Distance matrix (angstroms):
                    1          2          3          4          5
     1  C    0.000000
     2  C    1.503073   0.000000
     3  C    2.305613   1.336647   0.000000
     4  C    2.287770   2.306183   1.503071   0.000000
     5  H    2.270249   1.082017   2.190864   3.371396   0.000000
     6  H    3.370861   2.190839   1.081993   2.269812   2.715075
     7  C    2.522191   3.735698   3.737120   2.526532   4.708977
     8  H    3.360798   4.356293   4.055381   2.639341   5.393195
     9  H    2.701890   4.085345   4.347138   3.328935   4.936515
    10  H    2.999235   4.221274   4.261725   3.096446   5.149576
    11  N    1.393809   2.321339   2.321373   1.394894   3.344988
    12  O    3.459068   3.481849   2.448929   1.217591   4.520286
    13  O    1.217721   2.449906   3.481867   3.458688   2.828657
                    6          7          8          9         10
     6  H    0.000000
     7  C    4.711250   0.000000
     8  H    4.893345   1.090374   0.000000
     9  H    5.371502   1.090846   1.785985   0.000000
    10  H    5.216813   1.093664   1.780979   1.779780   0.000000
    11  N    3.345013   1.453125   2.074154   2.083254   2.108338
    12  O    2.826540   2.943505   2.602921   3.866231   3.442768
    13  O    4.520535   2.934168   3.928272   2.713337   3.263973
                   11         12         13
    11  N    0.000000
    12  O    2.324478   0.000000
    13  O    2.322175   4.581383   0.000000
 Stoichiometry    C5H5NO2
 Framework group  C1[X(C5H5NO2)]
 Deg. of freedom    33
 Full point group                 C1      NOp   1
 Largest Abelian subgroup         C1      NOp   1
 Largest concise Abelian subgroup C1      NOp   1
                         Standard orientation:                         
 ---------------------------------------------------------------------
 Center     Atomic      Atomic             Coordinates (Angstroms)
 Number     Number       Type             X           Y           Z
 ---------------------------------------------------------------------
      1          6           0       -1.141832   -0.211526    0.006031
      2          6           0       -0.657448   -1.634396   -0.000385
      3          6           0        0.679171   -1.625656   -0.000078
      4          6           0        1.145891   -0.196894    0.005928
      5          1           0       -1.341203   -2.472977   -0.004969
      6          1           0        1.373814   -2.455209   -0.004432
      7          6           0       -0.017153    2.046020    0.000512
      8          1           0        0.931445    2.401807   -0.402593
      9          1           0       -0.841149    2.399373   -0.620870
     10          1           0       -0.144286    2.430297    1.016518
     11          7           0       -0.003731    0.592982   -0.007986
     12          8           0        2.290384    0.218591   -0.000041
     13          8           0       -2.290919    0.191477    0.000066
 ---------------------------------------------------------------------
 Rotational constants (GHZ):      3.3110580      2.3300054      1.3795204
 Standard basis: 6-31+G(d,p) (6D, 7F)
 There are   177 symmetry adapted cartesian basis functions of A   symmetry.
 There are   177 symmetry adapted basis functions of A   symmetry.
   177 basis functions,   291 primitive gaussians,   177 cartesian basis functions
    29 alpha electrons       29 beta electrons
       nuclear repulsion energy       354.3808880839 Hartrees.
 NAtoms=   13 NActive=   13 NUniq=   13 SFac= 1.00D+00 NAtFMM=   60 NAOKFM=F Big=F
 Integral buffers will be    131072 words long.
 Raffenetti 2 integral format.
 Two-electron integral symmetry is turned on.
 Nuclear repulsion after empirical dispersion term =      354.3724851416 Hartrees.
 ------------------------------------------------------------------------------
 Polarizable Continuum Model (PCM)
 =================================
 Model                : C-PCM.
 Atomic radii         : UFF (Universal Force Field).
 Polarization charges : Total charges.
 Charge compensation  : None.
 Solution method      : On-the-fly selection.
 Cavity type          : Scaled VdW (van der Waals Surface) (Alpha=1.100).
 Cavity algorithm     : GePol (No added spheres)
                        Default sphere list used, NSphG=   13.
                        Lebedev-Laikov grids with approx.  5.0 points / Ang**2.
                        Smoothing algorithm: Karplus/York (Gamma=1.0000).
                        Polarization charges: spherical gaussians, with
                                              point-specific exponents (IZeta= 3).
                        Self-potential: point-specific (ISelfS= 7).
                        Self-field    : sphere-specific E.n sum rule (ISelfD= 2).
 1st derivatives      : Analytical E(r).r(x)/FMM algorithm (CHGder, D1EAlg=3).
                        Cavity 1st derivative terms included.
 Solvent              : Toluene, Eps=   2.374100 Eps(inf)=   2.238315
 ------------------------------------------------------------------------------
 Spheres list:
 ISph  on   Nord     Re0    Alpha      Xe            Ye            Ze
    1   C      1    1.9255  1.100     -1.141832     -0.211526      0.006031
    2   C      2    1.9255  1.100     -0.657448     -1.634396     -0.000385
    3   C      3    1.9255  1.100      0.679171     -1.625656     -0.000078
    4   C      4    1.9255  1.100      1.145891     -0.196894      0.005928
    5   H      5    1.4430  1.100     -1.341203     -2.472977     -0.004969
    6   H      6    1.4430  1.100      1.373814     -2.455209     -0.004432
    7   C      7    1.9255  1.100     -0.017153      2.046020      0.000512
    8   H      8    1.4430  1.100      0.931445      2.401807     -0.402593
    9   H      9    1.4430  1.100     -0.841149      2.399373     -0.620870
   10   H     10    1.4430  1.100     -0.144286      2.430297      1.016518
   11   N     11    1.8300  1.100     -0.003731      0.592982     -0.007986
   12   O     12    1.7500  1.100      2.290384      0.218591     -0.000041
   13   O     13    1.7500  1.100     -2.290919      0.191477      0.000066
 ------------------------------------------------------------------------------
 One-electron integrals computed using PRISM.
 NBasis=   177 RedAO= T EigKep=  1.60D-05  NBF=   177
 NBsUse=   177 1.00D-06 EigRej= -1.00D+00 NBFU=   177
 Initial guess from the checkpoint file:  "b3lyp_dienophile_pm6_cpcmtoluene_1.chk"
 B after Tr=     0.000000    0.000000    0.000000
         Rot=    1.000000    0.000007    0.000027   -0.000891 Ang=   0.10 deg.
 ExpMin= 4.38D-02 ExpMax= 5.48D+03 ExpMxC= 8.25D+02 IAcc=2 IRadAn=         4 AccDes= 0.00D+00
 Harris functional with IExCor=  402 and IRadAn=       4 diagonalized for initial guess.
 HarFok:  IExCor=  402 AccDes= 0.00D+00 IRadAn=         4 IDoV= 1 UseB2=F ITyADJ=14
 ICtDFT=  3500011 ScaDFX=  1.000000  1.000000  1.000000  1.000000
 FoFCou: FMM=F IPFlag=           0 FMFlag=      100000 FMFlg1=           0
         NFxFlg=           0 DoJE=T BraDBF=F KetDBF=T FulRan=T
         wScrn=  0.000000 ICntrl=     500 IOpCl=  0 I1Cent=   200000004 NGrid=           0
         NMat0=    1 NMatS0=      1 NMatT0=    0 NMatD0=    1 NMtDS0=    0 NMtDT0=    0
 Petite list used in FoFCou.
 Requested convergence on RMS density matrix=1.00D-08 within 128 cycles.
 Requested convergence on MAX density matrix=1.00D-06.
 Requested convergence on             energy=1.00D-06.
 No special actions if energy rises.
 Inv3:  Mode=1 IEnd=     4953675.
 Iteration    1 A*A^-1 deviation from unit magnitude is 3.22D-15 for   1263.
 Iteration    1 A*A^-1 deviation from orthogonality  is 1.29D-15 for   1214   1166.
 Iteration    1 A^-1*A deviation from unit magnitude is 3.22D-15 for   1263.
 Iteration    1 A^-1*A deviation from orthogonality  is 1.86D-15 for   1266    584.
 Error on total polarization charges =  0.00701
 SCF Done:  E(RB3LYP) =  -398.783172526     A.U. after   11 cycles
            NFock= 11  Conv=0.54D-08     -V/T= 2.0093
 D1PCM: C-PCM CHGder 1st derivatives, ID1Alg=3 FixD1E=F DoIter=F DoCFld=F I1PDM=0.
 Calling FoFJK, ICntrl=      2127 FMM=F ISym2X=0 I1Cent= 0 IOpClX= 0 NMat=1 NMatS=1 NMatT=0.
 ***** Axes restored to original set *****
 -------------------------------------------------------------------
 Center     Atomic                   Forces (Hartrees/Bohr)
 Number     Number              X              Y              Z
 -------------------------------------------------------------------
      1        6           0.001026163   -0.000730795   -0.002233738
      2        6          -0.000924609   -0.000029670    0.000762263
      3        6           0.000909775   -0.000057933    0.000704287
      4        6          -0.001057138   -0.000669618   -0.002142135
      5        1           0.000100862    0.000097296   -0.000013625
      6        1          -0.000076133    0.000093983   -0.000017375
      7        6          -0.000001495    0.001053832    0.000209218
      8        1           0.000245768   -0.000249163   -0.000041264
      9        1          -0.000269263   -0.000205325   -0.000162133
     10        1          -0.000046274    0.000007839    0.000308679
     11        7           0.000160609   -0.000201982    0.001156996
     12        8           0.001484080    0.000428487    0.000716817
     13        8          -0.001552345    0.000463050    0.000752011
 -------------------------------------------------------------------
 Cartesian Forces:  Max     0.002233738 RMS     0.000793270

 GradGradGradGradGradGradGradGradGradGradGradGradGradGradGradGradGradGrad
 Berny optimization.
 Using GEDIIS/GDIIS optimizer.
 FormGI is forming the generalized inverse of G from B-inverse, IUseBI=4.
 Internal  Forces:  Max     0.001614753 RMS     0.000409746
 Search for a local minimum.
 Step number   3 out of a maximum of   70
 All quantities printed in internal units (Hartrees-Bohrs-Radians)
 Mixed Optimization -- En-DIIS/RFO-DIIS
 Update second derivatives using D2CorX and points    1    2    3
 DE= -2.55D-04 DEPred=-2.86D-04 R= 8.92D-01
 TightC=F SS=  1.41D+00  RLast= 5.99D-02 DXNew= 7.0887D-01 1.7980D-01
 Trust test= 8.92D-01 RLast= 5.99D-02 DXMaxT set to 4.21D-01
 ITU=  1  1  0
 Use linear search instead of GDIIS.
     Eigenvalues ---    0.00721   0.00815   0.00855   0.01026   0.01163
     Eigenvalues ---    0.01490   0.01631   0.02164   0.07390   0.07635
     Eigenvalues ---    0.15801   0.16000   0.16000   0.16012   0.16385
     Eigenvalues ---    0.22706   0.23025   0.24930   0.24982   0.24993
     Eigenvalues ---    0.29475   0.30021   0.32769   0.33146   0.33180
     Eigenvalues ---    0.33754   0.35881   0.35888   0.37980   0.39308
     Eigenvalues ---    0.56614   0.88994   1.03241
 RFO step:  Lambda=-2.75863258D-04 EMin= 7.21076412D-03
 Quartic linear search produced a step of -0.07754.
 Iteration  1 RMS(Cart)=  0.01893325 RMS(Int)=  0.00044723
 Iteration  2 RMS(Cart)=  0.00052822 RMS(Int)=  0.00029512
 Iteration  3 RMS(Cart)=  0.00000009 RMS(Int)=  0.00029512
 Variable       Old X    -DE/DX   Delta X   Delta X   Delta X     New X
                                 (Linear)    (Quad)   (Total)
    R1        2.84040  -0.00006   0.00041  -0.00347  -0.00307   2.83733
    R2        2.63392   0.00055   0.00139  -0.00960  -0.00818   2.62574
    R3        2.30116   0.00161  -0.00088   0.00760   0.00672   2.30788
    R4        2.52590   0.00082  -0.00054   0.00456   0.00400   2.52989
    R5        2.04472  -0.00014   0.00008  -0.00077  -0.00069   2.04402
    R6        2.84039  -0.00005   0.00040  -0.00341  -0.00303   2.83737
    R7        2.04467  -0.00012   0.00008  -0.00075  -0.00066   2.04401
    R8        2.63597   0.00047   0.00137  -0.00957  -0.00819   2.62778
    R9        2.30091   0.00154  -0.00086   0.00743   0.00657   2.30749
   R10        2.06051   0.00015   0.00006  -0.00079  -0.00072   2.05978
   R11        2.06140   0.00023   0.00012  -0.00091  -0.00079   2.06061
   R12        2.06673   0.00029   0.00015  -0.00070  -0.00055   2.06617
   R13        2.74601   0.00061  -0.00043   0.00306   0.00264   2.74864
    A1        1.85794  -0.00006  -0.00058   0.00473   0.00333   1.86127
    A2        2.23619  -0.00006   0.00077  -0.00540  -0.00560   2.23058
    A3        2.18884   0.00014  -0.00017   0.00217   0.00101   2.18985
    A4        1.89238   0.00003   0.00054  -0.00377  -0.00317   1.88920
    A5        2.12944   0.00000  -0.00058   0.00444   0.00383   2.13327
    A6        2.26137  -0.00003   0.00005  -0.00068  -0.00066   2.26072
    A7        1.89307   0.00002   0.00048  -0.00342  -0.00290   1.89017
    A8        2.26137  -0.00001   0.00005  -0.00060  -0.00057   2.26079
    A9        2.12875  -0.00001  -0.00053   0.00402   0.00347   2.13222
   A10        1.85700  -0.00004  -0.00054   0.00448   0.00315   1.86015
   A11        2.23472  -0.00008   0.00079  -0.00566  -0.00578   2.22895
   A12        2.19126   0.00014  -0.00023   0.00262   0.00146   2.19271
   A13        1.91864   0.00033  -0.00022   0.00397   0.00375   1.92239
   A14        1.90702   0.00020   0.00018   0.00056   0.00074   1.90776
   A15        1.89239  -0.00038  -0.00034  -0.00123  -0.00157   1.89082
   A16        1.90452   0.00020   0.00026   0.00004   0.00030   1.90482
   A17        1.90451  -0.00035  -0.00015  -0.00174  -0.00190   1.90261
   A18        1.93676  -0.00001   0.00027  -0.00153  -0.00127   1.93549
   A19        1.92412   0.00007   0.00013  -0.00083  -0.00057   1.92355
   A20        2.17677  -0.00008  -0.00001  -0.00011  -0.00019   2.17659
   A21        2.18191   0.00002  -0.00011   0.00103   0.00085   2.18277
    D1        0.01341  -0.00037  -0.00085  -0.02953  -0.03039  -0.01698
    D2       -3.12752  -0.00039  -0.00086  -0.03040  -0.03121   3.12446
    D3        3.13368   0.00046   0.00075   0.04684   0.04740  -3.10211
    D4       -0.00725   0.00045   0.00074   0.04598   0.04658   0.03933
    D5       -0.02176   0.00059   0.00137   0.04817   0.04958   0.02782
    D6       -3.13493   0.00053   0.00089   0.04488   0.04587  -3.08906
    D7        3.14041  -0.00021  -0.00018  -0.02543  -0.02578   3.11463
    D8        0.02725  -0.00027  -0.00066  -0.02872  -0.02949  -0.00225
    D9       -0.00044   0.00002   0.00004   0.00073   0.00077   0.00033
   D10       -3.14076  -0.00002  -0.00002  -0.00106  -0.00101   3.14142
   D11        3.14042   0.00004   0.00006   0.00169   0.00167  -3.14109
   D12        0.00011   0.00000  -0.00001  -0.00011  -0.00011   0.00000
   D13       -0.01267   0.00034   0.00078   0.02828   0.02907   0.01641
   D14       -3.13333  -0.00046  -0.00076  -0.04565  -0.04619   3.10366
   D15        3.12777   0.00037   0.00084   0.02991   0.03069  -3.12473
   D16        0.00710  -0.00043  -0.00070  -0.04402  -0.04458  -0.03747
   D17        0.02150  -0.00058  -0.00134  -0.04773  -0.04911  -0.02761
   D18        3.13456  -0.00052  -0.00087  -0.04445  -0.04540   3.08916
   D19       -3.14035   0.00019   0.00015   0.02371   0.02404  -3.11631
   D20       -0.02728   0.00025   0.00062   0.02699   0.02775   0.00046
   D21       -2.75548   0.00004   0.00067  -0.00174  -0.00109  -2.75658
   D22        0.41868  -0.00004   0.00012  -0.00547  -0.00532   0.41335
   D23       -0.66597   0.00001   0.00011   0.00132   0.00140  -0.66456
   D24        2.50819  -0.00006  -0.00044  -0.00241  -0.00282   2.50537
   D25        1.43320   0.00003   0.00050  -0.00071  -0.00023   1.43297
   D26       -1.67583  -0.00004  -0.00005  -0.00444  -0.00446  -1.68029
         Item               Value     Threshold  Converged?
 Maximum Force            0.001615     0.000450     NO 
 RMS     Force            0.000410     0.000300     NO 
 Maximum Displacement     0.071773     0.001800     NO 
 RMS     Displacement     0.018917     0.001200     NO 
 Predicted change in Energy=-1.433711D-04
 GradGradGradGradGradGradGradGradGradGradGradGradGradGradGradGradGradGrad

                          Input orientation:                          
 ---------------------------------------------------------------------
 Center     Atomic      Atomic             Coordinates (Angstroms)
 Number     Number       Type             X           Y           Z
 ---------------------------------------------------------------------
      1          6           0       -1.138675   -0.194222   -0.028250
      2          6           0       -0.669024   -1.619969    0.003806
      3          6           0        0.669737   -1.620345    0.002989
      4          6           0        1.141534   -0.195289   -0.029156
      5          1           0       -1.357688   -2.453832    0.023288
      6          1           0        1.358016   -2.454534    0.021633
      7          6           0       -0.003048    2.054448    0.013103
      8          1           0        0.949117    2.410349   -0.380337
      9          1           0       -0.824770    2.423253   -0.601545
     10          1           0       -0.129800    2.417805    1.036513
     11          7           0        0.001145    0.600418   -0.024370
     12          8           0        2.292670    0.211128   -0.002303
     13          8           0       -2.288631    0.215968    0.001255
 ---------------------------------------------------------------------
                    Distance matrix (angstroms):
                    1          2          3          4          5
     1  C    0.000000
     2  C    1.501451   0.000000
     3  C    2.303293   1.338761   0.000000
     4  C    2.280210   2.304109   1.501469   0.000000
     5  H    2.270784   1.081649   2.192160   3.368958   0.000000
     6  H    3.368229   2.192192   1.081641   2.270162   2.715704
     7  C    2.519499   3.734294   3.735886   2.524514   4.707413
     8  H    3.356581   4.359978   4.058508   2.636229   5.398567
     9  H    2.697847   4.091252   4.353124   3.324265   4.945742
    10  H    2.995703   4.202484   4.244301   3.095190   5.125152
    11  N    1.389481   2.319491   2.319385   1.390560   3.343223
    12  O    3.455303   3.482038   2.447087   1.221069   4.519711
    13  O    1.221280   2.448224   3.481952   3.454865   2.827538
                    6          7          8          9         10
     6  H    0.000000
     7  C    4.709935   0.000000
     8  H    4.898558   1.089991   0.000000
     9  H    5.380122   1.090429   1.787673   0.000000
    10  H    5.194542   1.093372   1.780894   1.779395   0.000000
    11  N    3.343044   1.454519   2.073937   2.082785   2.108440
    12  O    2.824873   2.944213   2.604730   3.869240   3.437575
    13  O    4.519959   2.933264   3.929877   2.716314   3.252753
                   11         12         13
    11  N    0.000000
    12  O    2.324461   0.000000
    13  O    2.321968   4.581305   0.000000
 Stoichiometry    C5H5NO2
 Framework group  C1[X(C5H5NO2)]
 Deg. of freedom    33
 Full point group                 C1      NOp   1
 Largest Abelian subgroup         C1      NOp   1
 Largest concise Abelian subgroup C1      NOp   1
                         Standard orientation:                         
 ---------------------------------------------------------------------
 Center     Atomic      Atomic             Coordinates (Angstroms)
 Number     Number       Type             X           Y           Z
 ---------------------------------------------------------------------
      1          6           0       -1.137663   -0.212132   -0.023618
      2          6           0       -0.656670   -1.634055    0.010097
      3          6           0        0.682051   -1.623745    0.010228
      4          6           0        1.142482   -0.194999   -0.022909
      5          1           0       -1.338671   -2.473369    0.029868
      6          1           0        1.376952   -2.452397    0.030136
      7          6           0       -0.020049    2.045568    0.016446
      8          1           0        0.929527    2.408694   -0.376651
      9          1           0       -0.844249    2.407233   -0.599126
     10          1           0       -0.150429    2.408849    1.039427
     11          7           0       -0.004224    0.591583   -0.019671
     12          8           0        2.290319    0.220618    0.004381
     13          8           0       -2.290877    0.188893    0.004691
 ---------------------------------------------------------------------
 Rotational constants (GHZ):      3.3145466      2.3316045      1.3808754
 Standard basis: 6-31+G(d,p) (6D, 7F)
 There are   177 symmetry adapted cartesian basis functions of A   symmetry.
 There are   177 symmetry adapted basis functions of A   symmetry.
   177 basis functions,   291 primitive gaussians,   177 cartesian basis functions
    29 alpha electrons       29 beta electrons
       nuclear repulsion energy       354.4799955858 Hartrees.
 NAtoms=   13 NActive=   13 NUniq=   13 SFac= 1.00D+00 NAtFMM=   60 NAOKFM=F Big=F
 Integral buffers will be    131072 words long.
 Raffenetti 2 integral format.
 Two-electron integral symmetry is turned on.
 Nuclear repulsion after empirical dispersion term =      354.4715917638 Hartrees.
 ------------------------------------------------------------------------------
 Polarizable Continuum Model (PCM)
 =================================
 Model                : C-PCM.
 Atomic radii         : UFF (Universal Force Field).
 Polarization charges : Total charges.
 Charge compensation  : None.
 Solution method      : On-the-fly selection.
 Cavity type          : Scaled VdW (van der Waals Surface) (Alpha=1.100).
 Cavity algorithm     : GePol (No added spheres)
                        Default sphere list used, NSphG=   13.
                        Lebedev-Laikov grids with approx.  5.0 points / Ang**2.
                        Smoothing algorithm: Karplus/York (Gamma=1.0000).
                        Polarization charges: spherical gaussians, with
                                              point-specific exponents (IZeta= 3).
                        Self-potential: point-specific (ISelfS= 7).
                        Self-field    : sphere-specific E.n sum rule (ISelfD= 2).
 1st derivatives      : Analytical E(r).r(x)/FMM algorithm (CHGder, D1EAlg=3).
                        Cavity 1st derivative terms included.
 Solvent              : Toluene, Eps=   2.374100 Eps(inf)=   2.238315
 ------------------------------------------------------------------------------
 Spheres list:
 ISph  on   Nord     Re0    Alpha      Xe            Ye            Ze
    1   C      1    1.9255  1.100     -1.137663     -0.212132     -0.023618
    2   C      2    1.9255  1.100     -0.656670     -1.634055      0.010097
    3   C      3    1.9255  1.100      0.682051     -1.623745      0.010228
    4   C      4    1.9255  1.100      1.142482     -0.194999     -0.022909
    5   H      5    1.4430  1.100     -1.338671     -2.473369      0.029868
    6   H      6    1.4430  1.100      1.376952     -2.452397      0.030136
    7   C      7    1.9255  1.100     -0.020049      2.045568      0.016446
    8   H      8    1.4430  1.100      0.929527      2.408694     -0.376651
    9   H      9    1.4430  1.100     -0.844249      2.407233     -0.599126
   10   H     10    1.4430  1.100     -0.150429      2.408849      1.039427
   11   N     11    1.8300  1.100     -0.004224      0.591583     -0.019671
   12   O     12    1.7500  1.100      2.290319      0.220618      0.004381
   13   O     13    1.7500  1.100     -2.290877      0.188893      0.004691
 ------------------------------------------------------------------------------
 One-electron integrals computed using PRISM.
 NBasis=   177 RedAO= T EigKep=  1.60D-05  NBF=   177
 NBsUse=   177 1.00D-06 EigRej= -1.00D+00 NBFU=   177
 Initial guess from the checkpoint file:  "b3lyp_dienophile_pm6_cpcmtoluene_1.chk"
 B after Tr=     0.000000    0.000000    0.000000
         Rot=    1.000000   -0.000320    0.000033   -0.000576 Ang=  -0.08 deg.
 ExpMin= 4.38D-02 ExpMax= 5.48D+03 ExpMxC= 8.25D+02 IAcc=2 IRadAn=         4 AccDes= 0.00D+00
 Harris functional with IExCor=  402 and IRadAn=       4 diagonalized for initial guess.
 HarFok:  IExCor=  402 AccDes= 0.00D+00 IRadAn=         4 IDoV= 1 UseB2=F ITyADJ=14
 ICtDFT=  3500011 ScaDFX=  1.000000  1.000000  1.000000  1.000000
 FoFCou: FMM=F IPFlag=           0 FMFlag=      100000 FMFlg1=           0
         NFxFlg=           0 DoJE=T BraDBF=F KetDBF=T FulRan=T
         wScrn=  0.000000 ICntrl=     500 IOpCl=  0 I1Cent=   200000004 NGrid=           0
         NMat0=    1 NMatS0=      1 NMatT0=    0 NMatD0=    1 NMtDS0=    0 NMtDT0=    0
 Petite list used in FoFCou.
 Requested convergence on RMS density matrix=1.00D-08 within 128 cycles.
 Requested convergence on MAX density matrix=1.00D-06.
 Requested convergence on             energy=1.00D-06.
[...]
 Rotational      0.266356D+06          5.425462         12.492589
 ***** Axes restored to original set *****
 -------------------------------------------------------------------
 Center     Atomic                   Forces (Hartrees/Bohr)
 Number     Number              X              Y              Z
 -------------------------------------------------------------------
      1        6          -0.000032540    0.000212067    0.000197109
      2        6          -0.000038418   -0.000031510   -0.000069303
      3        6           0.000043929   -0.000023185    0.000035139
      4        6           0.000049879    0.000200633   -0.000111680
      5        1          -0.000004116   -0.000004015   -0.000005650
      6        1           0.000005357   -0.000004031    0.000009992
      7        6          -0.000008138   -0.000272836    0.000008789
      8        1          -0.000023985    0.000018843    0.000012014
      9        1           0.000027658    0.000038224    0.000003086
     10        1          -0.000014384    0.000024058   -0.000025903
     11        7          -0.000010025   -0.000027676   -0.000020184
     12        8           0.000000151   -0.000068119    0.000036195
     13        8           0.000004633   -0.000062452   -0.000069603
 -------------------------------------------------------------------
 Cartesian Forces:  Max     0.000272836 RMS     0.000079521
 FormGI is forming the generalized inverse of G from B-inverse, IUseBI=4.

 GradGradGradGradGradGradGradGradGradGradGradGradGradGradGradGradGradGrad
 Berny optimization.
 Internal  Forces:  Max     0.000191696 RMS     0.000041943
 Search for a local minimum.
 Step number   1 out of a maximum of    2
 All quantities printed in internal units (Hartrees-Bohrs-Radians)
 Second derivative matrix not updated -- analytic derivatives used.
 ITU=  0
     Eigenvalues ---    0.00006   0.00335   0.01357   0.01375   0.01814
     Eigenvalues ---    0.01850   0.04524   0.04999   0.06014   0.06103
     Eigenvalues ---    0.09007   0.10025   0.13147   0.14490   0.16750
     Eigenvalues ---    0.17917   0.18801   0.20471   0.21778   0.22935
     Eigenvalues ---    0.24133   0.31960   0.32226   0.33554   0.34176
     Eigenvalues ---    0.34895   0.35905   0.37384   0.37477   0.38290
     Eigenvalues ---    0.57135   0.82308   0.84199
 Quadratic step=4.220D-01 exceeds max=3.000D-01 adjusted using Lamda=-2.532D-05.
 Angle between NR and scaled steps=   0.15 degrees.
 Angle between quadratic step and forces=  85.01 degrees.
 Linear search not attempted -- first point.
 Iteration  1 RMS(Cart)=  0.04892874 RMS(Int)=  0.00226287
 Iteration  2 RMS(Cart)=  0.00233914 RMS(Int)=  0.00000484
 Iteration  3 RMS(Cart)=  0.00000396 RMS(Int)=  0.00000371
 Iteration  4 RMS(Cart)=  0.00000000 RMS(Int)=  0.00000371
 Variable       Old X    -DE/DX   Delta X   Delta X   Delta X     New X
                                 (Linear)    (Quad)   (Total)
    R1        2.83944   0.00004   0.00000   0.00012   0.00012   2.83956
    R2        2.63499  -0.00005   0.00000  -0.00087  -0.00087   2.63412
    R3        2.30317  -0.00003   0.00000   0.00008   0.00008   2.30325
    R4        2.52731   0.00006   0.00000   0.00007   0.00007   2.52737
    R5        2.04430   0.00001   0.00000   0.00002   0.00002   2.04432
    R6        2.83957   0.00003   0.00000   0.00024   0.00024   2.83981
    R7        2.04430   0.00001   0.00000   0.00001   0.00001   2.04431
    R8        2.63668  -0.00003   0.00000   0.00074   0.00074   2.63741
    R9        2.30287  -0.00002   0.00000  -0.00021  -0.00021   2.30266
   R10        2.06083  -0.00002   0.00000  -0.00037  -0.00037   2.06046
   R11        2.06191  -0.00001   0.00000   0.00072   0.00072   2.06263
   R12        2.06742  -0.00001   0.00000  -0.00028  -0.00028   2.06713
   R13        2.74939  -0.00019   0.00000  -0.00074  -0.00074   2.74865
    A1        1.85828  -0.00004   0.00000   0.00030   0.00030   1.85859
    A2        2.23622  -0.00004   0.00000   0.00051   0.00051   2.23673
    A3        2.18868   0.00009   0.00000  -0.00081  -0.00081   2.18787
    A4        1.89235   0.00000   0.00000  -0.00032  -0.00032   1.89203
    A5        2.12990   0.00000   0.00000   0.00034   0.00034   2.13024
    A6        2.26093   0.00000   0.00000  -0.00002  -0.00002   2.26091
    A7        1.89306   0.00000   0.00000   0.00035   0.00035   1.89341
    A8        2.26112   0.00000   0.00000   0.00007   0.00007   2.26120
    A9        2.12900   0.00000   0.00000  -0.00042  -0.00042   2.12858
   A10        1.85737  -0.00005   0.00000  -0.00057  -0.00056   1.85680
   A11        2.23455  -0.00005   0.00000  -0.00107  -0.00107   2.23348
   A12        2.19127   0.00010   0.00000   0.00164   0.00164   2.19290
   A13        1.92164  -0.00004   0.00000  -0.00127  -0.00127   1.92037
   A14        1.90913  -0.00002   0.00000   0.00123   0.00123   1.91036
   A15        1.88940   0.00002   0.00000  -0.00484  -0.00484   1.88456
   A16        1.90660  -0.00004   0.00000  -0.00125  -0.00125   1.90535
   A17        1.90233   0.00005   0.00000   0.00717   0.00717   1.90950
   A18        1.93474   0.00003   0.00000  -0.00105  -0.00106   1.93368
   A19        1.92365   0.00009   0.00000   0.00025   0.00025   1.92390
   A20        2.17654  -0.00006   0.00000  -0.00286  -0.00287   2.17367
   A21        2.18249  -0.00004   0.00000   0.00279   0.00278   2.18527
    D1        0.00627   0.00003   0.00000  -0.00077  -0.00077   0.00550
    D2       -3.13448   0.00002   0.00000  -0.00102  -0.00102  -3.13550
    D3       -3.13675  -0.00002   0.00000  -0.00185  -0.00185  -3.13859
    D4        0.00569  -0.00004   0.00000  -0.00210  -0.00210   0.00359
    D5       -0.01083  -0.00002   0.00000   0.00178   0.00178  -0.00905
    D6       -3.11948  -0.00002   0.00000  -0.00406  -0.00404  -3.12353
    D7        3.13213   0.00003   0.00000   0.00283   0.00282   3.13496
    D8        0.02348   0.00004   0.00000  -0.00301  -0.00300   0.02048
    D9        0.00040  -0.00003   0.00000  -0.00047  -0.00047  -0.00007
   D10       -3.14068  -0.00002   0.00000  -0.00036  -0.00036  -3.14104
   D11        3.14107  -0.00002   0.00000  -0.00019  -0.00019   3.14088
   D12       -0.00001   0.00000   0.00000  -0.00009  -0.00008  -0.00009
   D13       -0.00693   0.00002   0.00000   0.00155   0.00155  -0.00538
   D14        3.13827   0.00000   0.00000   0.00049   0.00050   3.13876
   D15        3.13419   0.00001   0.00000   0.00146   0.00146   3.13565
   D16       -0.00379  -0.00002   0.00000   0.00039   0.00040  -0.00339
   D17        0.01106   0.00000   0.00000  -0.00206  -0.00206   0.00900
   D18        3.11957   0.00000   0.00000   0.00367   0.00368   3.12326
   D19       -3.13403   0.00002   0.00000  -0.00104  -0.00104  -3.13507
   D20       -0.02551   0.00002   0.00000   0.00469   0.00470  -0.02081
   D21       -2.76511  -0.00001   0.00000  -0.11965  -0.11965  -2.88476
   D22        0.41424  -0.00001   0.00000  -0.12628  -0.12627   0.28797
   D23       -0.67499  -0.00001   0.00000  -0.11988  -0.11989  -0.79488
   D24        2.50436  -0.00001   0.00000  -0.12651  -0.12651   2.37785
   D25        1.42410  -0.00001   0.00000  -0.11749  -0.11749   1.30661
   D26       -1.67974  -0.00001   0.00000  -0.12411  -0.12411  -1.80385
         Item               Value     Threshold  Converged?
 Maximum Force            0.000192     0.000450     YES
 RMS     Force            0.000042     0.000300     YES
 Maximum Displacement     0.200907     0.001800     NO 
 RMS     Displacement     0.048932     0.001200     NO 
 Predicted change in Energy=-5.381960D-06
 GradGradGradGradGradGradGradGradGradGradGradGradGradGradGradGradGradGrad

 1\1\GINC-D8S3B2\Freq\RB3LYP\6-31+G(d,p)\C5H5N1O2\CHMKSH\27-Aug-2020\0\
 \#N Geom=AllCheck Guess=TCheck SCRF=Check GenChk RB3LYP/6-31+G(d,p) Fr
 eq\\Title Card Required\\0,1\C,-1.1428441683,-0.1956146323,0.000256711
 2\C,-0.6683002737,-1.6212748599,0.0030129806\C,0.6690910727,-1.6215888
 343,0.0012280984\C,1.1453259829,-0.1964197397,-0.002222759\H,-1.357211
 913,-2.4553515613,0.0051430589\H,1.357773908,-2.4558562588,0.001528405
 8\C,-0.0031498427,2.0565538928,0.0085859023\H,0.9512278089,2.406357317
 ,-0.3864886992\H,-0.8222925419,2.4180564163,-0.6149951054\H,-0.1335164
 831,2.4315466866,1.0280401762\N,0.0009677251,0.6017855566,-0.011548293
 2\O,2.2936783741,0.2114252321,-0.0013709345\O,-2.2901666491,0.21555978
 48,0.0054574578\\Version=ES64L-G09RevD.01\State=1-A\HF=-398.7832107\RM
 SD=4.783e-09\RMSF=7.952e-05\ZeroPoint=0.096\Thermal=0.103236\Dipole=0.
 0072205,-0.546615,-0.0059957\DipoleDeriv=2.3024276,0.2078981,-0.003583
 8,-0.1676138,1.0607796,0.0035201,-0.0028727,-0.0054365,0.365253,-0.029
 6857,0.1531163,0.0056976,0.3362677,-0.2205386,-0.0036295,-0.007272,-0.
 0002525,-0.1346427,-0.0253273,-0.1529323,-0.0060504,-0.3320082,-0.2198
 558,-0.0027233,0.0070465,-0.0002482,-0.1349993,2.3137121,-0.2222858,-0
 .001235,0.1525305,1.0660965,0.0035525,-0.0025723,-0.0046672,0.3596939,
 0.0745998,-0.0385462,-0.0001627,-0.0368466,0.0295262,0.0011315,-0.0007
 217,-0.0002785,0.174006,0.0742594,0.0383024,0.0004512,0.0363484,0.0293
 63,0.0010668,0.0009184,-0.0004023,0.1756341,0.1132098,-0.0010388,0.000
 2156,-0.0243425,0.6878821,0.0590002,0.0012658,0.0210942,0.2720329,0.00
 26389,-0.0899688,0.0611821,0.0073268,0.031396,-0.0117535,0.0540561,0.0
 144724,0.0812039,0.0222415,0.0851463,-0.0848053,0.0015527,0.0023292,-0
 .0107928,-0.0741322,0.0340421,0.0354428,0.0915686,0.0187034,0.0233849,
 0.0040232,-0.068311,-0.0116318,0.0194471,-0.1060596,-0.098811,-1.63977
 57,-0.0036414,0.0019231,0.0149415,-1.1789456,-0.0232166,0.0015376,0.04
 35597,-0.2384571,-1.6558086,-0.0173636,0.0033313,-0.452947,-0.6104205,
 -0.0016319,-0.0050542,0.0024615,-0.4279613,-1.6440605,0.0226103,-0.000
 3485,0.4607673,-0.6093011,-0.0028918,0.0083535,0.0017149,-0.4283952\Po
 lar=114.3099801,-0.3493232,79.6745096,-0.0895967,0.598399,47.4179653\P
 G=C01 [X(C5H5N1O2)]\NImag=0\\0.93419416,-0.17067404,0.55708750,-0.0026
 7908,-0.00016080,0.19108312,-0.08839210,0.00469662,0.00001305,0.856219
 07,-0.00840699,-0.18469305,0.00028357,0.15141572,0.60073242,0.00028750
 ,0.00024579,-0.07225400,-0.00113655,-0.00121159,0.11008728,-0.03485574
 ,0.02299530,0.00004521,-0.53309897,0.00411778,0.00060064,0.85615712,0.
 03141157,-0.00842723,-0.00004816,-0.00379680,-0.11187797,-0.00010964,-
 0.15168522,0.60067519,-0.00023471,-0.00001170,0.00311480,0.00066997,-0
 .00013675,-0.04967052,-0.00082474,-0.00079407,0.11021519,-0.09680883,-
 0.03074491,-0.00005761,-0.03483983,-0.03136015,0.00032561,-0.08817449,
 0.00804727,-0.00029545,0.93406811,0.03117511,0.06669979,-0.00082609,-0
 .02290381,-0.00839338,0.00006894,-0.00473540,-0.18470511,0.00021457,0.
 17181670,0.55507344,0.00021357,-0.00070865,-0.01754809,0.00009496,0.00
 001337,0.00313249,-0.00002951,0.00022657,-0.07231800,0.00025543,-0.000
 81368,0.19036261,0.01064016,0.00924584,-0.00000704,-0.17790059,-0.1490
 5703,0.00038894,-0.00775989,-0.02451754,0.00005085,-0.00466949,0.00423
 956,0.00001850,0.17852162,-0.02061318,-0.00926711,0.00005710,-0.148176
 87,-0.23824019,0.00052595,0.00495789,0.00918752,0.00000153,0.00311482,
 -0.00199134,0.00001885,0.15983534,0.24144362,-0.00005322,0.00000328,0.
 00037734,0.00039417,0.00051142,-0.03551906,0.00003343,0.00008388,0.007
 80924,0.00002313,-0.00005662,0.01216278,-0.00041714,-0.00056815,0.0232
 0625,-0.00467141,-0.00424711,0.00002581,-0.00775562,0.02453067,-0.0000
 2273,-0.17782974,0.14908345,-0.00001667,0.01061236,-0.00928217,-0.0000
 1786,0.00109329,-0.00064545,-0.00000989,0.17845904,-0.00309346,-0.0019
 8371,0.00002150,-0.00494650,0.00918234,0.00000631,0.14815260,-0.238288
 34,0.00013458,0.02057315,-0.00932853,0.00000753,0.00064533,0.00015057,
 -0.00001127,-0.15981514,0.24154594,0.00001984,-0.00004568,0.01215832,0
 .00000590,0.00002172,0.00784690,-0.00002650,0.00011774,-0.03552405,0.0
 0003477,0.00002220,0.00038488,-0.00000654,-0.00001160,-0.00552260,0.00
 001777,-0.00014171,0.02319963,0.00955062,-0.02726381,0.00140825,-0.005
 24275,-0.00338326,-0.00045168,-0.00446375,0.00383572,0.00048050,0.0119
 0626,0.02582179,-0.00147857,0.00092279,-0.00131760,-0.00016029,0.00087
 541,0.00121175,0.00016286,0.61975595,-0.01764157,-0.02192318,0.0000438
 6,0.00020949,0.00297040,-0.00008207,-0.00013934,0.00295916,-0.00009928
 ,0.01844608,-0.02165064,0.00002671,0.00011538,0.00060964,0.00000788,-0
 .00011639,0.00062174,0.00001188,-0.00129375,0.46976256,0.00314161,0.00
 177453,-0.00285392,0.00103391,-0.00049668,0.00262676,-0.00104242,-0.00
 048775,0.00303357,-0.00321240,0.00180536,-0.00466768,-0.00005694,0.000
 15256,0.00104558,0.00006016,0.00015449,0.00118843,0.00075308,0.0001844
 3,0.57669371,0.00003475,0.00129105,0.00028166,-0.00013530,0.00008959,0
 .00018834,0.00013125,-0.00001803,0.00016153,-0.00144982,0.00111331,-0.
 00030103,-0.00003560,-0.00000578,0.00001403,-0.00000061,-0.00006576,-0
 .00000828,-0.26351823,-0.07758720,0.09019949,0.27866783,0.00593896,-0.
 00395939,0.00189768,-0.00140928,-0.00136012,-0.00043826,-0.00028633,-0
 .00003614,-0.00002073,-0.00425327,-0.00005908,0.00026921,0.00032280,-0
 .00043182,-0.00018560,0.00006839,0.00005117,-0.00001925,-0.06690902,-0
 .07254260,0.02807946,0.08328113,0.08912397,-0.00125561,-0.00089531,-0.
 00027494,-0.00018342,0.00005367,0.00020735,-0.00004374,0.00011713,-0.0
 0004196,0.00158851,0.00023463,0.00117577,0.00000419,-0.00003555,0.0000
 0353,0.00001164,0.00000136,-0.00002487,0.09033504,0.03192529,-0.086840
 65,-0.09747240,-0.03252009,0.08651392,-0.00073518,-0.00103251,0.000568
 03,0.00023534,-0.00005011,-0.00027248,-0.00020313,-0.00016605,-0.00024
 606,-0.00037993,-0.00087439,-0.00042131,-0.00000283,0.00006153,0.00000
 433,-0.00001354,0.00002789,-0.00000528,-0.20566765,0.06683010,-0.12086
 642,-0.01631228,0.00881456,-0.01643835,0.21560860,0.00436714,0.0004728
 7,0.00043529,0.00043878,-0.00030894,-0.00011349,0.00106994,-0.00143103
 ,-0.00067658,-0.00630751,-0.00297628,0.00278845,-0.00005968,0.00003242
 ,-0.00004470,-0.00027648,-0.00038215,-0.00026315,0.05867341,-0.0725620
 4,0.04540473,-0.00689437,0.00438975,-0.00798672,-0.07333091,0.08997527
 ,-0.00216483,0.00033575,0.00086923,0.00006564,0.00016999,-0.00012449,0
 .00024043,0.00006355,0.00004715,0.00154128,-0.00131710,-0.00028484,-0.
 00001648,0.00001084,-0.00001269,-0.00000502,-0.00004495,0.00000161,-0.
 12111196,0.05051216,-0.14207516,0.00958426,-0.00591702,0.00862734,0.13
 084391,-0.05283826,0.14586253,0.00063449,-0.00091858,-0.00096714,0.000
 03899,0.00000620,0.00029952,-0.00010684,-0.00009393,-0.00013704,0.0003
 2168,0.00061635,0.00083463,0.00000848,-0.00001587,0.00003501,0.0000129
 1,0.00004285,-0.00004083,-0.05463533,0.00991732,0.02991566,-0.00126847
 ,0.00936799,0.02677980,0.00427192,-0.00815233,-0.02328180,0.04981959,0
 .00586615,0.00119925,-0.00170140,0.00044758,-0.00115928,0.00062775,-0.
 00019454,-0.00133664,0.00078604,-0.00632040,0.00064221,-0.00234741,0.0
 0003601,-0.00009278,0.00019749,-0.00008848,-0.00015606,0.00025078,0.00
 904722,-0.06983284,-0.07301194,0.00031610,0.00449600,0.00975670,-0.002
 49107,0.00463646,0.00925114,-0.01164280,0.08939656,0.00155879,0.000580
 95,0.00017269,-0.00001696,-0.00014795,-0.00037445,-0.00005425,-0.00011
 614,-0.00038848,-0.00116810,0.00102354,0.00001684,0.00001627,-0.000031
 51,0.00000441,-0.00001126,-0.00001378,0.00000236,0.03000544,-0.0777855
 7,-0.28731158,-0.00008379,-0.00238211,-0.00922620,0.00351966,-0.004673
 46,-0.01584779,-0.03269445,0.08748451,0.30324548,-0.14121645,-0.037059
 74,-0.00044545,0.00959584,-0.01076681,-0.00012259,0.00924314,0.0106807
 3,0.00015269,-0.14117605,0.03626880,0.00065587,0.00018569,0.00089669,0
 .00007611,0.00019732,-0.00086470,-0.00007952,-0.10831349,0.00135074,0.
 00006730,0.00334216,-0.03598101,-0.00292871,0.00253442,0.03105174,0.00
 382136,0.00055057,0.00510417,-0.00089778,0.57948043,-0.05692845,-0.202
 55231,0.00029581,-0.02182877,-0.05396393,0.00063062,0.02173553,-0.0539
 4220,0.00058344,0.05517248,-0.20175815,0.00010293,0.00380811,-0.004692
 05,0.00000459,-0.00380900,-0.00469926,0.00000982,0.00227400,-0.2178397
 9,-0.00738729,-0.00197562,-0.02256352,0.00083077,0.00148527,-0.0246724
 8,0.00153802,0.00036168,-0.02951156,-0.00380813,-0.00127699,0.75388857
 ,-0.00072559,-0.00050751,-0.05622745,-0.00099119,0.00090876,0.01512812
 ,0.00102163,0.00085652,0.01472831,0.00084544,-0.00063918,-0.05386943,0
 .00002853,-0.00012046,-0.00028546,-0.00003144,-0.00012249,-0.00043507,
 0.00001919,-0.00496442,-0.05704196,-0.00265276,0.01159670,0.00054067,0
 .00343317,0.01830405,0.00341622,-0.00065262,-0.03101348,0.00967601,-0.
 00065928,0.00605768,0.08947840,0.02262453,0.02580729,-0.00042914,0.006
 24538,-0.00435018,-0.00014243,-0.02525383,-0.02708302,0.00011142,-0.61
 177714,-0.20744703,-0.00026108,-0.00116334,-0.00035043,0.00003602,0.00
 018246,-0.00222607,-0.00002926,-0.00114689,-0.00999136,0.00085096,0.00
 039191,0.00180661,-0.00054583,0.00019560,0.00115659,-0.00020647,0.0001
 5699,0.00216890,0.00043588,-0.10694755,-0.00122644,-0.00092597,0.73198
 427,0.00030157,-0.01126928,0.00039105,-0.00094590,-0.00792962,-0.00009
 508,-0.04684235,-0.00483779,0.00010883,-0.19766984,-0.18048327,0.00003
 560,-0.00260069,0.00105205,0.00002595,0.00199893,0.00223165,0.00002471
 ,-0.00126563,-0.00060926,0.00192988,0.00105683,0.00152003,-0.00088729,
 0.00089074,0.00132382,-0.00055535,-0.00030280,0.00087928,-0.00023715,0
 .01872231,0.03102555,-0.00019772,0.22416516,0.16377081,0.00014020,0.00
 029027,0.00829916,0.00005434,0.00009445,0.00114506,0.00016626,0.000025
 77,0.01783072,0.00029546,-0.00010069,-0.06683374,0.00000718,-0.0000024
 9,-0.00238264,0.00000622,0.00000980,-0.00088389,-0.00010027,0.00012667
 ,-0.00160983,0.00011576,-0.00040680,-0.00077634,0.00011635,0.00008945,
 0.00000938,-0.00047589,-0.00017542,0.00000291,-0.00103078,0.00057842,0
 .01729224,0.00088883,-0.00042520,0.02986740,-0.61099900,0.20790461,0.0
 0224346,-0.02496946,0.02721457,0.00005790,0.00621488,0.00430185,0.0001
 2772,0.02236717,-0.02580881,0.00043640,0.00015969,0.00225889,0.0000243
 1,-0.00116187,0.00035806,-0.00004490,-0.00002296,0.00990051,-0.0008439
 8,0.00015241,-0.00076153,0.00014889,0.00046865,-0.00173634,0.00068967,
 0.00019502,-0.00224884,-0.00060946,-0.10747604,0.00220821,0.00129089,-
 0.01549239,0.00249168,-0.00018368,0.73056391,0.19829719,-0.18138414,-0
 .00068940,0.04679975,-0.00495869,-0.00005524,0.00085413,-0.00793943,-0
 .00008988,-0.00051441,-0.01106967,0.00038053,-0.00201344,0.00223947,0.
 00003184,0.00259878,0.00105463,0.00002254,0.00056917,0.00003686,0.0018
 9821,-0.00060126,0.00137176,-0.00059459,-0.00016506,0.00150232,-0.0012
 0878,0.00081392,0.00083938,0.00010682,-0.01812592,0.03128112,-0.000158
 45,-0.00243000,0.00332604,-0.00010424,-0.22608285,0.16370035,0.0017515
 4,-0.00090091,-0.06691627,-0.00000380,-0.00006397,0.01776858,-0.000086
 44,0.00006462,0.00116403,-0.00017605,0.00038411,0.00828641,-0.00001033
 ,0.00000293,-0.00088668,-0.00000675,-0.00000138,-0.00239166,0.00013842
 ,0.00009247,-0.00218727,-0.00002681,0.00004680,0.00011638,-0.00023557,
 -0.00042562,-0.00048849,0.00038515,-0.00010476,0.00002783,0.00139078,0
 .00056332,0.01759940,0.00021707,-0.00011824,-0.00196042,-0.00333720,0.
 00046064,0.02986817\\0.00003254,-0.00021207,-0.00019711,0.00003842,0.0
 0003151,0.00006930,-0.00004393,0.00002319,-0.00003514,-0.00004988,-0.0
 0020063,0.00011168,0.00000412,0.00000401,0.00000565,-0.00000536,0.0000
 0403,-0.00000999,0.00000814,0.00027284,-0.00000879,0.00002399,-0.00001
 884,-0.00001201,-0.00002766,-0.00003822,-0.00000309,0.00001438,-0.0000
 2406,0.00002590,0.00001003,0.00002768,0.00002018,-0.00000015,0.0000681
 2,-0.00003620,-0.00000463,0.00006245,0.00006960\\\@


 We're simply so accustomed to the marvels of everyday thought
 that we never wonder about it.
 -- Marvin Minsky in "Why people think computers are smart"
 Job cpu time:       0 days  0 hours  7 minutes 20.2 seconds.
 File lengths (MBytes):  RWF=     65 Int=      0 D2E=      0 Chk=      8 Scr=      1
 Normal termination of Gaussian 09 at Thu Aug 27 16:55:16 2020.
