 Entering Gaussian System, Link 0=g09
 Input=b3lyp_cyclohexene_pm6_cpcmtoluene_2.com
 Output=b3lyp_cyclohexene_pm6_cpcmtoluene_2.log
 Initial command:
 /apps/applications/gaussian/G09.D01/2/default/g09/l1.exe "/local/713521.1.40core-192G.q/Gau-225753.inp" -scrdir="/local/713521.1.40core-192G.q/"
 Entering Link 1 = /apps/applications/gaussian/G09.D01/2/default/g09/l1.exe PID=    225754.
  
 Copyright (c) 1988,1990,1992,1993,1995,1998,2003,2009,2013,
            Gaussian, Inc.  All Rights Reserved.
  
 This is part of the Gaussian(R) 09 program.  It is based on
 the Gaussian(R) 03 system (copyright 2003, Gaussian, Inc.),
 the Gaussian(R) 98 system (copyright 1998, Gaussian, Inc.),
 the Gaussian(R) 94 system (copyright 1995, Gaussian, Inc.),
 the Gaussian 92(TM) system (copyright 1992, Gaussian, Inc.),
 the Gaussian 90(TM) system (copyright 1990, Gaussian, Inc.),
 the Gaussian 88(TM) system (copyright 1988, Gaussian, Inc.),
 the Gaussian 86(TM) system (copyright 1986, Carnegie Mellon
 University), and the Gaussian 82(TM) system (copyright 1983,
 Carnegie Mellon University). Gaussian is a federally registered
 trademark of Gaussian, Inc.
  
 This software contains proprietary and confidential information,
 including trade secrets, belonging to Gaussian, Inc.
  
 This software is provided under written license and may be
 used, copied, transmitted, or stored only in accord with that
 written license.
  
 The following legend is applicable only to US Government
 contracts under FAR:
  
                    RESTRICTED RIGHTS LEGEND
  
 Use, reproduction and disclosure by the US Government is
 subject to restrictions as set forth in subparagraphs (a)
 and (c) of the Commercial Computer Software - Restricted
 Rights clause in FAR 52.227-19.
  
 Gaussian, Inc.
 340 Quinnipiac St., Bldg. 40, Wallingford CT 06492
  
  
 ---------------------------------------------------------------
 Warning -- This program may not be used in any manner that
 competes with the business of Gaussian, Inc. or will provide
 assistance to any competitor of Gaussian, Inc.  The licensee
 of this program is prohibited from giving any competitor of
 Gaussian, Inc. access to this program.  By using this program,
 the user acknowledges that Gaussian, Inc. is engaged in the
 business of creating and licensing software in the field of
 computational chemistry and represents and warrants to the
 licensee that it is not a competitor of Gaussian, Inc. and that
 it will not use this program in any manner prohibited above.
 ---------------------------------------------------------------
  

 Cite this work as:
 Gaussian 09, Revision D.01,
 M. J. Frisch, G. W. Trucks, H. B. Schlegel, G. E. Scuseria, 
 M. A. Robb, J. R. Cheeseman, G. Scalmani, V. Barone, B. Mennucci, 
 G. A. Petersson, H. Nakatsuji, M. Caricato, X. Li, H. P. Hratchian, 
 A. F. Izmaylov, J. Bloino, G. Zheng, J. L. Sonnenberg, M. Hada, 
 M. Ehara, K. Toyota, R. Fukuda, J. Hasegawa, M. Ishida, T. Nakajima, 
 Y. Honda, O. Kitao, H. Nakai, T. Vreven, J. A. Montgomery, Jr., 
 J. E. Peralta, F. Ogliaro, M. Bearpark, J. J. Heyd, E. Brothers, 
 K. N. Kudin, V. N. Staroverov, T. Keith, R. Kobayashi, J. Normand, 
 K. Raghavachari, A. Rendell, J. C. Burant, S. S. Iyengar, J. Tomasi, 
 M. Cossi, N. Rega, J. M. Millam, M. Klene, J. E. Knox, J. B. Cross, 
 V. Bakken, C. Adamo, J. Jaramillo, R. Gomperts, R. E. Stratmann, 
 O. Yazyev, A. J. Austin, R. Cammi, C. Pomelli, J. W. Ochterski, 
 R. L. Martin, K. Morokuma, V. G. Zakrzewski, G. A. Voth, 
 P. Salvador, J. J. Dannenberg, S. Dapprich, A. D. Daniels, 
 O. Farkas, J. B. Foresman, J. V. Ortiz, J. Cioslowski, 
 and D. J. Fox, Gaussian, Inc., Wallingford CT, 2013.
 
 ******************************************
 Gaussian 09:  ES64L-G09RevD.01 24-Apr-2013
                27-Aug-2020 
 ******************************************
 %nprocshared=4
 Will use up to    4 processors via shared memory.
 %chk=b3lyp_cyclohexene_pm6_cpcmtoluene_2.chk
 ----------------------------------------------------------------------
 # opt freq b3lyp/6-31+g(d,p) scrf=(cpcm,solvent=toluene) geom=connecti
 vity empiricaldispersion=gd3
 ----------------------------------------------------------------------
 1/14=-1,18=20,19=15,26=3,38=1,57=2/1,3;
 2/9=110,12=2,17=6,18=5,40=1/2;
 3/5=1,6=6,7=111,11=2,16=1,25=1,30=1,70=2101,71=1,72=13,74=-5,124=31/1,2,3;
 4//1;
 5/5=2,38=5,53=13/2;
 6/7=2,8=2,9=2,10=2,28=1/1;
 7//1,2,3,16;
 1/14=-1,18=20,19=15,26=3/3(2);
 2/9=110/2;
 99//99;
 2/9=110/2;
 3/5=1,6=6,7=111,11=2,16=1,25=1,30=1,70=2105,71=1,72=13,74=-5,124=31/1,2,3;
 4/5=5,16=3,69=1/1;
 5/5=2,38=5,53=13/2;
 7//1,2,3,16;
 1/14=-1,18=20,19=15,26=3/3(-5);
 2/9=110/2;
 6/7=2,8=2,9=2,10=2,19=2,28=1/1;
 99/9=1/99;
 -------------------
 Title Card Required
 -------------------
 Symbolic Z-matrix:
 Charge =  0 Multiplicity = 1
 C                    -2.8838    0.25434  -0.21289 
 C                    -1.55436   0.84508  -0.69982 
 C                    -0.56497  -0.3506   -0.74793 
 C                    -1.35188  -1.55891  -0.21953 
 H                    -1.71106   1.22821  -1.74056 
 H                    -0.30769  -0.56493  -1.81827 
 C                    -3.74087  -2.02894   0.55319 
 H                    -3.74036  -2.04033   1.65752 
 H                    -4.73409  -1.69037   0.20856 
 H                    -3.5775   -3.06087   0.19453 
 N                    -2.68621  -1.13345   0.0376 
 O                    -0.9636   -2.69034  -0.05331 
 O                    -3.94196   0.81844  -0.06184 
 C                     0.73978  -0.19489   0.06057 
 H                     1.11307  -1.22561   0.32029 
 C                    -1.16384   2.03736   0.20996 
 H                    -2.11818   2.50324   0.58188 
 C                    -0.34999   1.59282   1.39694 
 H                    -0.50794   2.16365   2.31074 
 C                     0.5181    0.58157   1.32969 
 H                     1.1237    0.26921   2.17852 
 C                    -0.40148   3.10848  -0.57741 
 H                    -0.99083   3.49567  -1.41593 
 H                    -0.14733   3.96192   0.06382 
 H                     0.54738   2.72142  -0.98507 
 C                     1.81467   0.48456  -0.80829 
 H                     1.9634   -0.03006  -1.77348 
 H                     1.61187   1.56807  -0.96867 
 C                     3.87741  -0.59967  -0.09959 
 C                     5.08381  -0.34058   0.72418 
 H                     5.16079  -1.06659   1.55162 
 H                     6.00385  -0.4412    0.12361 
 H                     5.09038   0.66785   1.17032 
 O                     3.56722  -1.58951  -0.72362 
 O                     3.07441   0.52278  -0.08335 
 

 GradGradGradGradGradGradGradGradGradGradGradGradGradGradGradGradGradGrad
 Berny optimization.
 Initialization pass.
                           ----------------------------
                           !    Initial Parameters    !
                           ! (Angstroms and Degrees)  !
 --------------------------                            --------------------------
 ! Name  Definition              Value          Derivative Info.                !
 --------------------------------------------------------------------------------
 ! R1    R(1,2)                  1.5341         estimate D2E/DX2                !
 ! R2    R(1,11)                 1.424          estimate D2E/DX2                !
 ! R3    R(1,13)                 1.2086         estimate D2E/DX2                !
 ! R4    R(2,3)                  1.5527         estimate D2E/DX2                !
 ! R5    R(2,5)                  1.12           estimate D2E/DX2                !
 ! R6    R(2,16)                 1.5498         estimate D2E/DX2                !
 ! R7    R(3,4)                  1.5357         estimate D2E/DX2                !
 ! R8    R(3,6)                  1.1215         estimate D2E/DX2                !
 ! R9    R(3,14)                 1.5428         estimate D2E/DX2                !
 ! R10   R(4,11)                 1.4239         estimate D2E/DX2                !
 ! R11   R(4,12)                 1.2077         estimate D2E/DX2                !
 ! R12   R(7,8)                  1.1044         estimate D2E/DX2                !
 ! R13   R(7,9)                  1.1045         estimate D2E/DX2                !
 ! R14   R(7,10)                 1.1046         estimate D2E/DX2                !
 ! R15   R(7,11)                 1.4765         estimate D2E/DX2                !
 ! R16   R(14,15)                1.1266         estimate D2E/DX2                !
 ! R17   R(14,20)                1.5042         estimate D2E/DX2                !
 ! R18   R(14,26)                1.5401         estimate D2E/DX2                !
 ! R19   R(16,17)                1.1252         estimate D2E/DX2                !
 ! R20   R(16,18)                1.5063         estimate D2E/DX2                !
 ! R21   R(16,22)                1.5325         estimate D2E/DX2                !
 ! R22   R(18,19)                1.089          estimate D2E/DX2                !
 ! R23   R(18,20)                1.3344         estimate D2E/DX2                !
 ! R24   R(20,21)                1.0885         estimate D2E/DX2                !
 ! R25   R(22,23)                1.0956         estimate D2E/DX2                !
 ! R26   R(22,24)                1.0973         estimate D2E/DX2                !
 ! R27   R(22,25)                1.1029         estimate D2E/DX2                !
 ! R28   R(26,27)                1.1039         estimate D2E/DX2                !
 ! R29   R(26,28)                1.1139         estimate D2E/DX2                !
 ! R30   R(26,35)                1.4539         estimate D2E/DX2                !
 ! R31   R(29,30)                1.4836         estimate D2E/DX2                !
 ! R32   R(29,34)                1.2105         estimate D2E/DX2                !
 ! R33   R(29,35)                1.3802         estimate D2E/DX2                !
 ! R34   R(30,31)                1.1035         estimate D2E/DX2                !
 ! R35   R(30,32)                1.1033         estimate D2E/DX2                !
 ! R36   R(30,33)                1.1027         estimate D2E/DX2                !
 ! A1    A(2,1,11)             108.112          estimate D2E/DX2                !
 ! A2    A(2,1,13)             128.2179         estimate D2E/DX2                !
 ! A3    A(11,1,13)            123.6674         estimate D2E/DX2                !
 ! A4    A(1,2,3)              105.3966         estimate D2E/DX2                !
 ! A5    A(1,2,5)              107.7834         estimate D2E/DX2                !
 ! A6    A(1,2,16)             109.1648         estimate D2E/DX2                !
 ! A7    A(3,2,5)              108.8915         estimate D2E/DX2                !
 ! A8    A(3,2,16)             116.7473         estimate D2E/DX2                !
 ! A9    A(5,2,16)             108.5163         estimate D2E/DX2                !
 ! A10   A(2,3,4)              105.5885         estimate D2E/DX2                !
 ! A11   A(2,3,6)              108.8391         estimate D2E/DX2                !
 ! A12   A(2,3,14)             116.4188         estimate D2E/DX2                !
 ! A13   A(4,3,6)              107.1908         estimate D2E/DX2                !
 ! A14   A(4,3,14)             109.4168         estimate D2E/DX2                !
 ! A15   A(6,3,14)             108.9909         estimate D2E/DX2                !
 ! A16   A(3,4,11)             107.8902         estimate D2E/DX2                !
 ! A17   A(3,4,12)             128.2969         estimate D2E/DX2                !
 ! A18   A(11,4,12)            123.8037         estimate D2E/DX2                !
 ! A19   A(8,7,9)              108.396          estimate D2E/DX2                !
 ! A20   A(8,7,10)             108.3588         estimate D2E/DX2                !
 ! A21   A(8,7,11)             110.8003         estimate D2E/DX2                !
 ! A22   A(9,7,10)             108.5447         estimate D2E/DX2                !
 ! A23   A(9,7,11)             110.3322         estimate D2E/DX2                !
 ! A24   A(10,7,11)            110.3386         estimate D2E/DX2                !
 ! A25   A(1,11,4)             112.9209         estimate D2E/DX2                !
 ! A26   A(1,11,7)             123.6004         estimate D2E/DX2                !
 ! A27   A(4,11,7)             123.4485         estimate D2E/DX2                !
 ! A28   A(3,14,15)            107.9801         estimate D2E/DX2                !
 ! A29   A(3,14,20)            111.6909         estimate D2E/DX2                !
 ! A30   A(3,14,26)            109.8234         estimate D2E/DX2                !
 ! A31   A(15,14,20)           109.0621         estimate D2E/DX2                !
 ! A32   A(15,14,26)           107.6036         estimate D2E/DX2                !
 ! A33   A(20,14,26)           110.555          estimate D2E/DX2                !
 ! A34   A(2,16,17)            107.3885         estimate D2E/DX2                !
 ! A35   A(2,16,18)            111.8209         estimate D2E/DX2                !
 ! A36   A(2,16,22)            111.1904         estimate D2E/DX2                !
 ! A37   A(17,16,18)           108.6612         estimate D2E/DX2                !
 ! A38   A(17,16,22)           107.5993         estimate D2E/DX2                !
 ! A39   A(18,16,22)           110.0212         estimate D2E/DX2                !
 ! A40   A(16,18,19)           115.3528         estimate D2E/DX2                !
 ! A41   A(16,18,20)           122.372          estimate D2E/DX2                !
 ! A42   A(19,18,20)           122.2691         estimate D2E/DX2                !
 ! A43   A(14,20,18)           121.9757         estimate D2E/DX2                !
 ! A44   A(14,20,21)           115.3289         estimate D2E/DX2                !
 ! A45   A(18,20,21)           122.6899         estimate D2E/DX2                !
 ! A46   A(16,22,23)           111.8782         estimate D2E/DX2                !
 ! A47   A(16,22,24)           111.0134         estimate D2E/DX2                !
 ! A48   A(16,22,25)           111.8767         estimate D2E/DX2                !
 ! A49   A(23,22,24)           107.2753         estimate D2E/DX2                !
 ! A50   A(23,22,25)           107.694          estimate D2E/DX2                !
 ! A51   A(24,22,25)           106.8397         estimate D2E/DX2                !
 ! A52   A(14,26,27)           112.4354         estimate D2E/DX2                !
 ! A53   A(14,26,28)           112.5367         estimate D2E/DX2                !
 ! A54   A(14,26,35)           109.5736         estimate D2E/DX2                !
 ! A55   A(27,26,28)           110.6158         estimate D2E/DX2                !
 ! A56   A(27,26,35)           109.3585         estimate D2E/DX2                !
 ! A57   A(28,26,35)           101.7687         estimate D2E/DX2                !
 ! A58   A(30,29,34)           129.5969         estimate D2E/DX2                !
 ! A59   A(30,29,35)           108.9375         estimate D2E/DX2                !
 ! A60   A(34,29,35)           121.4639         estimate D2E/DX2                !
 ! A61   A(29,30,31)           110.988          estimate D2E/DX2                !
 ! A62   A(29,30,32)           111.0953         estimate D2E/DX2                !
 ! A63   A(29,30,33)           112.904          estimate D2E/DX2                !
 ! A64   A(31,30,32)           106.8566         estimate D2E/DX2                !
 ! A65   A(31,30,33)           107.3303         estimate D2E/DX2                !
 ! A66   A(32,30,33)           107.3772         estimate D2E/DX2                !
 ! A67   A(26,35,29)           118.4795         estimate D2E/DX2                !
 ! D1    D(11,1,2,3)             1.5739         estimate D2E/DX2                !
 ! D2    D(11,1,2,5)           117.7422         estimate D2E/DX2                !
 ! D3    D(11,1,2,16)         -124.5765         estimate D2E/DX2                !
 ! D4    D(13,1,2,3)          -177.843          estimate D2E/DX2                !
 ! D5    D(13,1,2,5)           -61.6748         estimate D2E/DX2                !
 ! D6    D(13,1,2,16)           56.0065         estimate D2E/DX2                !
 ! D7    D(2,1,11,4)             0.3624         estimate D2E/DX2                !
 ! D8    D(2,1,11,7)           178.4192         estimate D2E/DX2                !
 ! D9    D(13,1,11,4)          179.812          estimate D2E/DX2                !
 ! D10   D(13,1,11,7)           -2.1311         estimate D2E/DX2                !
 ! D11   D(1,2,3,4)             -2.7567         estimate D2E/DX2                !
 ! D12   D(1,2,3,6)            112.0399         estimate D2E/DX2                !
 ! D13   D(1,2,3,14)          -124.3566         estimate D2E/DX2                !
 ! D14   D(5,2,3,4)           -118.1648         estimate D2E/DX2                !
 ! D15   D(5,2,3,6)             -3.3682         estimate D2E/DX2                !
 ! D16   D(5,2,3,14)           120.2353         estimate D2E/DX2                !
 ! D17   D(16,2,3,4)           118.5819         estimate D2E/DX2                !
 ! D18   D(16,2,3,6)          -126.6215         estimate D2E/DX2                !
 ! D19   D(16,2,3,14)           -3.018          estimate D2E/DX2                !
 ! D20   D(1,2,16,17)          -30.2632         estimate D2E/DX2                !
 ! D21   D(1,2,16,18)           88.8515         estimate D2E/DX2                !
 ! D22   D(1,2,16,22)         -147.7292         estimate D2E/DX2                !
 ! D23   D(3,2,16,17)         -149.5981         estimate D2E/DX2                !
 ! D24   D(3,2,16,18)          -30.4834         estimate D2E/DX2                !
 ! D25   D(3,2,16,22)           92.9359         estimate D2E/DX2                !
 ! D26   D(5,2,16,17)           86.9556         estimate D2E/DX2                !
 ! D27   D(5,2,16,18)         -153.9297         estimate D2E/DX2                !
 ! D28   D(5,2,16,22)          -30.5104         estimate D2E/DX2                !
 ! D29   D(2,3,4,11)             3.0375         estimate D2E/DX2                !
 ! D30   D(2,3,4,12)          -178.0432         estimate D2E/DX2                !
 ! D31   D(6,3,4,11)          -112.89           estimate D2E/DX2                !
 ! D32   D(6,3,4,12)            66.0293         estimate D2E/DX2                !
 ! D33   D(14,3,4,11)          129.0609         estimate D2E/DX2                !
 ! D34   D(14,3,4,12)          -52.0198         estimate D2E/DX2                !
 ! D35   D(2,3,14,15)          154.8688         estimate D2E/DX2                !
 ! D36   D(2,3,14,20)           34.9604         estimate D2E/DX2                !
 ! D37   D(2,3,14,26)          -88.0678         estimate D2E/DX2                !
 ! D38   D(4,3,14,15)           35.3126         estimate D2E/DX2                !
 ! D39   D(4,3,14,20)          -84.5959         estimate D2E/DX2                !
 ! D40   D(4,3,14,26)          152.376          estimate D2E/DX2                !
 ! D41   D(6,3,14,15)          -81.6061         estimate D2E/DX2                !
 ! D42   D(6,3,14,20)          158.4855         estimate D2E/DX2                !
 ! D43   D(6,3,14,26)           35.4573         estimate D2E/DX2                !
 ! D44   D(3,4,11,1)            -2.1866         estimate D2E/DX2                !
 ! D45   D(3,4,11,7)           179.7532         estimate D2E/DX2                !
 ! D46   D(12,4,11,1)          178.8341         estimate D2E/DX2                !
 ! D47   D(12,4,11,7)            0.7739         estimate D2E/DX2                !
 ! D48   D(8,7,11,1)           -89.2268         estimate D2E/DX2                !
 ! D49   D(8,7,11,4)            88.6281         estimate D2E/DX2                !
 ! D50   D(9,7,11,1)            30.8246         estimate D2E/DX2                !
 ! D51   D(9,7,11,4)          -151.3205         estimate D2E/DX2                !
 ! D52   D(10,7,11,1)          150.764          estimate D2E/DX2                !
 ! D53   D(10,7,11,4)          -31.3811         estimate D2E/DX2                !
 ! D54   D(3,14,20,18)         -35.3383         estimate D2E/DX2                !
 ! D55   D(3,14,20,21)         145.4909         estimate D2E/DX2                !
 ! D56   D(15,14,20,18)       -154.6084         estimate D2E/DX2                !
 ! D57   D(15,14,20,21)         26.2208         estimate D2E/DX2                !
 ! D58   D(26,14,20,18)         87.2728         estimate D2E/DX2                !
 ! D59   D(26,14,20,21)        -91.898          estimate D2E/DX2                !
 ! D60   D(3,14,26,27)         -53.2117         estimate D2E/DX2                !
 ! D61   D(3,14,26,28)          72.5039         estimate D2E/DX2                !
 ! D62   D(3,14,26,35)        -175.0436         estimate D2E/DX2                !
 ! D63   D(15,14,26,27)         64.087          estimate D2E/DX2                !
 ! D64   D(15,14,26,28)       -170.1974         estimate D2E/DX2                !
 ! D65   D(15,14,26,35)        -57.7449         estimate D2E/DX2                !
 ! D66   D(20,14,26,27)       -176.9064         estimate D2E/DX2                !
 ! D67   D(20,14,26,28)        -51.1908         estimate D2E/DX2                !
 ! D68   D(20,14,26,35)         61.2617         estimate D2E/DX2                !
 ! D69   D(2,16,18,19)        -146.5767         estimate D2E/DX2                !
 ! D70   D(2,16,18,20)          34.3051         estimate D2E/DX2                !
 ! D71   D(17,16,18,19)        -28.2173         estimate D2E/DX2                !
 ! D72   D(17,16,18,20)        152.6646         estimate D2E/DX2                !
 ! D73   D(22,16,18,19)         89.346          estimate D2E/DX2                !
 ! D74   D(22,16,18,20)        -89.7722         estimate D2E/DX2                !
 ! D75   D(2,16,22,23)          58.8432         estimate D2E/DX2                !
 ! D76   D(2,16,22,24)         178.6489         estimate D2E/DX2                !
 ! D77   D(2,16,22,25)         -62.0989         estimate D2E/DX2                !
 ! D78   D(17,16,22,23)        -58.4946         estimate D2E/DX2                !
 ! D79   D(17,16,22,24)         61.3111         estimate D2E/DX2                !
 ! D80   D(17,16,22,25)       -179.4367         estimate D2E/DX2                !
 ! D81   D(18,16,22,23)       -176.7148         estimate D2E/DX2                !
 ! D82   D(18,16,22,24)        -56.9091         estimate D2E/DX2                !
 ! D83   D(18,16,22,25)         62.3431         estimate D2E/DX2                !
 ! D84   D(16,18,20,14)         -0.4002         estimate D2E/DX2                !
 ! D85   D(16,18,20,21)        178.7093         estimate D2E/DX2                !
 ! D86   D(19,18,20,14)       -179.4577         estimate D2E/DX2                !
 ! D87   D(19,18,20,21)         -0.3483         estimate D2E/DX2                !
 ! D88   D(14,26,35,29)         82.6578         estimate D2E/DX2                !
 ! D89   D(27,26,35,29)        -41.0011         estimate D2E/DX2                !
 ! D90   D(28,26,35,29)       -158.0281         estimate D2E/DX2                !
 ! D91   D(34,29,30,31)        -59.8031         estimate D2E/DX2                !
 ! D92   D(34,29,30,32)         58.94           estimate D2E/DX2                !
 ! D93   D(34,29,30,33)        179.6372         estimate D2E/DX2                !
 ! D94   D(35,29,30,31)        120.6789         estimate D2E/DX2                !
 ! D95   D(35,29,30,32)       -120.5779         estimate D2E/DX2                !
 ! D96   D(35,29,30,33)          0.1193         estimate D2E/DX2                !
 ! D97   D(30,29,35,26)       -178.7721         estimate D2E/DX2                !
 ! D98   D(34,29,35,26)          1.6633         estimate D2E/DX2                !
 --------------------------------------------------------------------------------
 Trust Radius=3.00D-01 FncErr=1.00D-07 GrdErr=1.00D-06
 Number of steps in this run=    210 maximum allowed number of steps=    210.
 GradGradGradGradGradGradGradGradGradGradGradGradGradGradGradGradGradGrad

                          Input orientation:                          
 ---------------------------------------------------------------------
 Center     Atomic      Atomic             Coordinates (Angstroms)
 Number     Number       Type             X           Y           Z
 ---------------------------------------------------------------------
      1          6           0       -2.883796    0.254338   -0.212888
      2          6           0       -1.554364    0.845080   -0.699824
      3          6           0       -0.564971   -0.350597   -0.747927
      4          6           0       -1.351875   -1.558913   -0.219534
      5          1           0       -1.711060    1.228208   -1.740558
      6          1           0       -0.307694   -0.564925   -1.818273
      7          6           0       -3.740865   -2.028939    0.553190
      8          1           0       -3.740361   -2.040331    1.657517
      9          1           0       -4.734095   -1.690369    0.208559
     10          1           0       -3.577503   -3.060867    0.194531
     11          7           0       -2.686213   -1.133446    0.037597
     12          8           0       -0.963595   -2.690337   -0.053308
     13          8           0       -3.941955    0.818439   -0.061842
     14          6           0        0.739778   -0.194886    0.060570
     15          1           0        1.113066   -1.225612    0.320288
     16          6           0       -1.163844    2.037359    0.209955
     17          1           0       -2.118184    2.503241    0.581880
     18          6           0       -0.349992    1.592816    1.396942
     19          1           0       -0.507941    2.163652    2.310735
     20          6           0        0.518099    0.581574    1.329688
     21          1           0        1.123695    0.269206    2.178524
     22          6           0       -0.401478    3.108484   -0.577413
     23          1           0       -0.990828    3.495673   -1.415930
     24          1           0       -0.147333    3.961923    0.063819
     25          1           0        0.547383    2.721416   -0.985073
     26          6           0        1.814672    0.484562   -0.808288
     27          1           0        1.963403   -0.030055   -1.773480
     28          1           0        1.611867    1.568068   -0.968669
     29          6           0        3.877408   -0.599668   -0.099585
     30          6           0        5.083807   -0.340576    0.724175
     31          1           0        5.160793   -1.066595    1.551615
     32          1           0        6.003851   -0.441204    0.123610
     33          1           0        5.090382    0.667853    1.170319
     34          8           0        3.567219   -1.589506   -0.723619
     35          8           0        3.074405    0.522784   -0.083351
 ---------------------------------------------------------------------
                    Distance matrix (angstroms):
                    1          2          3          4          5
     1  C    0.000000
     2  C    1.534103   0.000000
     3  C    2.455435   1.552693   0.000000
     4  C    2.373753   2.459850   1.535723   0.000000
     5  H    2.158126   1.120030   2.188941   3.195398   0.000000
     6  H    3.144003   2.189344   1.121503   2.152741   2.278333
     7  C    2.556325   3.822410   3.820476   2.554467   4.471062
     8  H    3.081822   4.319865   4.327177   3.075703   5.133062
     9  H    2.717188   4.167055   4.482349   3.411738   4.632050
    10  H    3.411423   4.488807   4.160425   2.716751   5.062049
    11  N    1.423983   2.395712   2.393652   1.423937   3.112903
    12  O    3.519055   3.642275   2.473010   1.207689   4.331341
    13  O    1.208605   2.471502   3.638871   3.519259   2.821859
    14  C    3.661539   2.631124   1.542817   2.512775   3.357956
    15  H    4.295280   3.527545   2.173141   2.545276   4.271300
    16  C    2.513204   1.549753   2.641689   3.626705   2.181438
    17  H    2.505071   2.170289   3.510733   4.210771   2.680518
    18  C    3.286828   2.531017   2.902332   3.681054   3.439382
    19  H    3.957125   3.449217   3.959812   4.579517   4.328455
    20  C    3.749602   2.912638   2.521600   3.237063   3.848856
    21  H    4.666804   3.973477   3.435093   3.901429   4.930996
    22  C    3.800122   2.543055   3.467138   4.776602   2.569698
    23  H    3.941686   2.802860   3.927006   5.206780   2.401149
    24  H    4.616382   3.503940   4.408081   5.657812   3.629630
    25  H    4.296014   2.831845   3.275795   4.744939   2.810870
    26  C    4.741635   3.390006   2.522664   3.814373   3.721951
    27  H    5.100163   3.780646   2.747213   3.967773   3.884068
    28  H    4.744268   3.258835   2.910090   4.372983   3.428288
    29  C    6.815867   5.652586   4.496345   5.317889   6.104498
    30  C    8.044545   6.891942   5.837455   6.617623   7.396365
    31  H    8.341088   7.335994   6.211676   6.767140   7.957819
    32  H    8.921170   7.710978   6.627006   7.448069   8.110605
    33  H    8.103812   6.905179   6.058046   6.956497   7.419354
    34  O    6.728759   5.670837   4.313987   4.944949   6.069094
    35  O    5.965652   4.680750   3.801252   4.893257   5.113182
                    6          7          8          9         10
     6  H    0.000000
     7  C    4.421972   0.000000
     8  H    5.103052   1.104386   0.000000
     9  H    4.996769   1.104494   1.791497   0.000000
    10  H    4.579602   1.104626   1.791185   1.793367   0.000000
    11  N    3.069987   1.476494   2.134903   2.129134   2.129314
    12  O    2.839487   2.918650   3.325637   3.909627   2.651647
    13  O    4.266919   2.919977   3.342065   2.644753   3.904813
    14  C    2.182700   4.866476   5.101721   5.676412   5.183696
    15  H    2.651134   4.925467   5.099775   5.866666   5.038394
    16  C    3.408604   4.826347   5.036013   5.161652   5.640735
    17  H    4.295608   4.813998   4.942924   4.956685   5.765323
    18  C    3.872369   5.032598   4.976169   5.604634   5.789593
    19  H    4.953175   5.578403   5.343099   6.093685   6.418421
    20  C    3.450515   5.055344   5.011620   5.831312   5.597313
    21  H    4.326550   5.620242   5.409663   6.483394   6.093183
    22  C    3.878461   6.230801   6.530953   6.512934   6.981685
    23  H    4.137271   6.477768   6.903140   6.598943   7.229985
    24  H    4.905134   7.003098   7.174732   7.280641   7.816824
    25  H    3.496486   6.581884   6.931253   6.984455   7.200066
    26  C    2.574088   6.247824   6.581312   6.975002   6.530794
    27  H    2.333661   6.476697   6.953120   7.179248   6.615174
    28  H    2.992691   6.626179   6.968769   7.230111   7.050506
    29  C    4.524398   7.778625   7.949423   8.685768   7.856189
    30  C    5.965120   8.986359   9.034724   9.923659   9.093888
    31  H    6.442994   9.009022   8.954882  10.005084   9.065132
    32  H    6.604681   9.882557   9.992985  10.810694   9.933278
    33  H    6.292110   9.254429   9.249521  10.149214   9.486187
    34  O    4.154875   7.431785   7.698947   8.354097   7.352207
    35  O    3.953689   7.305093   7.486068   8.121326   7.560929
                   11         12         13         14         15
    11  N    0.000000
    12  O    2.323701   0.000000
    13  O    2.323065   4.602414   0.000000
    14  C    3.552300   3.023528   4.791705   0.000000
    15  H    3.810896   2.568563   5.466023   1.126585   0.000000
    16  C    3.521551   4.739253   3.045905   2.937518   3.980386
    17  H    3.720805   5.358152   2.564971   3.964795   4.941027
    18  C    3.839043   4.563456   3.953468   2.483821   3.353097
    19  H    4.558824   5.418259   4.385336   3.490379   4.251665
    20  C    3.857254   3.848831   4.678092   1.504225   2.153786
    21  H    4.589815   4.254027   5.566121   2.201932   2.384876
    22  C    4.857182   5.849529   4.247952   3.552709   4.678044
    23  H    5.139632   6.334367   4.208359   4.335352   5.452647
    24  H    5.692924   6.703176   4.929142   4.250416   5.344614
    25  H    5.134390   5.695464   4.962644   3.104062   4.195592
    26  C    4.857102   4.285878   5.814414   1.540117   2.165786
    27  H    5.110421   4.313167   6.206682   2.210920   2.556618
    28  H    5.175349   5.060129   5.677078   2.219883   3.116867
    29  C    6.586718   5.273362   7.947005   3.167684   2.865255
    30  C    7.840487   6.534289   9.133757   4.396838   4.088178
    31  H    7.992010   6.536088   9.434862   4.746416   4.233857
    32  H    8.718016   7.323606  10.026971   5.270210   4.957192
    33  H    8.062454   7.030316   9.117237   4.572047   4.486291
    34  O    6.316079   4.710565   7.913523   3.248744   2.691659
    35  O    5.995202   5.160474   7.022619   2.446681   2.658320
                   16         17         18         19         20
    16  C    0.000000
    17  H    1.125228   0.000000
    18  C    1.506291   2.149349   0.000000
    19  H    2.204413   2.386869   1.088953   0.000000
    20  C    2.490390   3.346940   1.334435   2.125602   0.000000
    21  H    3.497780   4.248525   2.129452   2.503726   1.088505
    22  C    1.532468   2.158091   2.489574   3.040632   3.296654
    23  H    2.190917   2.499419   3.455978   3.986915   4.278697
    24  H    2.181421   2.506071   2.725978   2.900422   3.670420
    25  H    2.196434   3.099708   2.784424   3.505305   3.152443
    26  C    3.509922   4.634111   3.282840   4.235821   2.502290
    27  H    4.241213   5.350202   4.247009   5.253637   3.477448
    28  H    3.051878   4.146327   3.073373   3.950038   2.729825
    29  C    5.697714   6.785246   4.991742   5.716368   3.837071
    30  C    6.704636   7.744431   5.806616   6.328979   4.697094
    31  H    7.171863   8.165024   6.120878   6.568509   4.931564
    32  H    7.584628   8.651429   6.791902   7.346579   5.709131
    33  H    6.474040   7.461792   5.523095   5.905860   4.575873
    34  O    6.033960   7.125918   5.474349   6.316679   4.269285
    35  O    4.510291   5.597117   3.881073   4.610564   2.921444
                   21         22         23         24         25
    21  H    0.000000
    22  C    4.240618   0.000000
    23  H    5.272703   1.095609   0.000000
    24  H    4.441131   1.097327   1.765936   0.000000
    25  H    4.043985   1.102881   1.775163   1.766823   0.000000
    26  C    3.073251   3.442323   4.160150   4.086817   2.576973
    27  H    4.051296   4.107757   4.613684   4.875117   3.193320
    28  H    3.439503   2.565058   3.269514   3.145053   1.569588
    29  C    3.677996   5.682216   6.496484   6.085504   4.785682
    30  C    4.262564   6.608971   7.496536   6.805321   5.733800
    31  H    4.298318   7.273438   8.213590   7.461617   6.485936
    32  H    5.342591   7.356627   8.172804   7.564930   6.403467
    33  H    4.112177   6.258736   7.187932   6.285610   5.431544
    34  O    4.224696   6.151670   6.863974   6.725795   5.269897
    35  O    2.997607   4.360241   5.209602   4.714757   3.468851
                   26         27         28         29         30
    26  C    0.000000
    27  H    1.103878   0.000000
    28  H    1.113929   1.823539   0.000000
    29  C    2.435712   2.605724   3.253777   0.000000
    30  C    3.703585   4.008943   4.308481   1.483613   0.000000
    31  H    4.378556   4.727999   5.088041   2.142792   1.103489
    32  H    4.390296   4.482545   4.951744   2.143988   1.103307
    33  H    3.831287   4.350980   4.181593   2.165773   1.102731
    34  O    2.716680   2.471097   3.722059   1.210543   2.440486
    35  O    1.453933   2.096781   2.003852   1.380209   2.331348
                   31         32         33         34         35
    31  H    0.000000
    32  H    1.772303   0.000000
    33  H    1.777260   1.777648   0.000000
    34  O    2.826589   2.823751   3.317031   0.000000
    35  O    3.090672   3.090916   2.378423   2.261543   0.000000
 Stoichiometry    C13H17NO4
 Framework group  C1[X(C13H17NO4)]
 Deg. of freedom    99
 Full point group                 C1      NOp   1
 Largest Abelian subgroup         C1      NOp   1
 Largest concise Abelian subgroup C1      NOp   1
                         Standard orientation:                         
 ---------------------------------------------------------------------
 Center     Atomic      Atomic             Coordinates (Angstroms)
 Number     Number       Type             X           Y           Z
 ---------------------------------------------------------------------
      1          6           0       -2.883796    0.254338   -0.212888
      2          6           0       -1.554364    0.845080   -0.699824
      3          6           0       -0.564971   -0.350597   -0.747927
      4          6           0       -1.351875   -1.558913   -0.219534
      5          1           0       -1.711060    1.228208   -1.740558
      6          1           0       -0.307694   -0.564925   -1.818273
      7          6           0       -3.740865   -2.028939    0.553190
      8          1           0       -3.740361   -2.040331    1.657517
      9          1           0       -4.734095   -1.690369    0.208559
     10          1           0       -3.577503   -3.060867    0.194531
     11          7           0       -2.686213   -1.133446    0.037597
     12          8           0       -0.963595   -2.690337   -0.053308
     13          8           0       -3.941955    0.818439   -0.061842
     14          6           0        0.739778   -0.194886    0.060570
     15          1           0        1.113066   -1.225612    0.320288
     16          6           0       -1.163844    2.037359    0.209955
     17          1           0       -2.118184    2.503241    0.581880
     18          6           0       -0.349992    1.592816    1.396942
     19          1           0       -0.507941    2.163652    2.310735
     20          6           0        0.518099    0.581574    1.329688
     21          1           0        1.123695    0.269206    2.178524
     22          6           0       -0.401478    3.108484   -0.577413
     23          1           0       -0.990828    3.495673   -1.415930
     24          1           0       -0.147333    3.961923    0.063819
     25          1           0        0.547383    2.721416   -0.985073
     26          6           0        1.814672    0.484562   -0.808288
     27          1           0        1.963403   -0.030055   -1.773480
     28          1           0        1.611867    1.568068   -0.968669
     29          6           0        3.877408   -0.599668   -0.099585
     30          6           0        5.083807   -0.340576    0.724175
     31          1           0        5.160793   -1.066595    1.551615
     32          1           0        6.003851   -0.441204    0.123610
     33          1           0        5.090382    0.667853    1.170319
     34          8           0        3.567219   -1.589506   -0.723619
     35          8           0        3.074405    0.522784   -0.083351
 ---------------------------------------------------------------------
 Rotational constants (GHZ):      0.7448112      0.2690621      0.2181422
 Standard basis: 6-31+G(d,p) (6D, 7F)
 There are   427 symmetry adapted cartesian basis functions of A   symmetry.
 There are   427 symmetry adapted basis functions of A   symmetry.
   427 basis functions,   695 primitive gaussians,   427 cartesian basis functions
    67 alpha electrons       67 beta electrons
       nuclear repulsion energy      1384.1313226682 Hartrees.
 NAtoms=   35 NActive=   35 NUniq=   35 SFac= 1.00D+00 NAtFMM=   60 NAOKFM=F Big=F
 Integral buffers will be    131072 words long.
 Raffenetti 2 integral format.
 Two-electron integral symmetry is turned on.
 Nuclear repulsion after empirical dispersion term =     1384.0925780673 Hartrees.
 ------------------------------------------------------------------------------
 Polarizable Continuum Model (PCM)
 =================================
 Model                : C-PCM.
 Atomic radii         : UFF (Universal Force Field).
 Polarization charges : Total charges.
 Charge compensation  : None.
 Solution method      : On-the-fly selection.
 Cavity type          : Scaled VdW (van der Waals Surface) (Alpha=1.100).
 Cavity algorithm     : GePol (No added spheres)
                        Default sphere list used, NSphG=   35.
                        Lebedev-Laikov grids with approx.  5.0 points / Ang**2.
                        Smoothing algorithm: Karplus/York (Gamma=1.0000).
                        Polarization charges: spherical gaussians, with
                                              point-specific exponents (IZeta= 3).
                        Self-potential: point-specific (ISelfS= 7).
                        Self-field    : sphere-specific E.n sum rule (ISelfD= 2).
 1st derivatives      : Analytical E(r).r(x)/FMM algorithm (CHGder, D1EAlg=3).
                        Cavity 1st derivative terms included.
 Solvent              : Toluene, Eps=   2.374100 Eps(inf)=   2.238315
 ------------------------------------------------------------------------------
 One-electron integrals computed using PRISM.
 NBasis=   427 RedAO= T EigKep=  2.13D-06  NBF=   427
 NBsUse=   427 1.00D-06 EigRej= -1.00D+00 NBFU=   427
 ExpMin= 4.38D-02 ExpMax= 5.48D+03 ExpMxC= 8.25D+02 IAcc=2 IRadAn=         4 AccDes= 0.00D+00
 Harris functional with IExCor=  402 and IRadAn=       4 diagonalized for initial guess.
 HarFok:  IExCor=  402 AccDes= 0.00D+00 IRadAn=         4 IDoV= 1 UseB2=F ITyADJ=14
 ICtDFT=  3500011 ScaDFX=  1.000000  1.000000  1.000000  1.000000
 FoFCou: FMM=F IPFlag=           0 FMFlag=      100000 FMFlg1=           0
         NFxFlg=           0 DoJE=T BraDBF=F KetDBF=T FulRan=T
         wScrn=  0.000000 ICntrl=     500 IOpCl=  0 I1Cent=   200000004 NGrid=           0
         NMat0=    1 NMatS0=      1 NMatT0=    0 NMatD0=    1 NMtDS0=    0 NMtDT0=    0
 Petite list used in FoFCou.
 Requested convergence on RMS density matrix=1.00D-08 within 128 cycles.
 Requested convergence on MAX density matrix=1.00D-06.
 Requested convergence on             energy=1.00D-06.
 No special actions if energy rises.
 Inv3:  Mode=1 IEnd=    18630192.
 Iteration    1 A*A^-1 deviation from unit magnitude is 8.33D-15 for   2480.
 Iteration    1 A*A^-1 deviation from orthogonality  is 2.89D-15 for   1253   1127.
 Iteration    1 A^-1*A deviation from unit magnitude is 8.33D-15 for   2480.
 Iteration    1 A^-1*A deviation from orthogonality  is 1.68D-15 for   1253   1127.
 Error on total polarization charges =  0.01020
 SCF Done:  E(RB3LYP) =  -861.390738418     A.U. after   15 cycles
            NFock= 15  Conv=0.28D-08     -V/T= 2.0098

 **********************************************************************

            Population analysis using the SCF density.

 **********************************************************************

 Orbital symmetries:
       Occupied  (A) (A) (A) (A) (A) (A) (A) (A) (A) (A) (A) (A)
                 (A) (A) (A) (A) (A) (A) (A) (A) (A) (A) (A) (A)
                 (A) (A) (A) (A) (A) (A) (A) (A) (A) (A) (A) (A)
                 (A) (A) (A) (A) (A) (A) (A) (A) (A) (A) (A) (A)
                 (A) (A) (A) (A) (A) (A) (A) (A) (A) (A) (A) (A)
                 (A) (A) (A) (A) (A) (A) (A)
       Virtual   (A) (A) (A) (A) (A) (A) (A) (A) (A) (A) (A) (A)
                 (A) (A) (A) (A) (A) (A) (A) (A) (A) (A) (A) (A)
                 (A) (A) (A) (A) (A) (A) (A) (A) (A) (A) (A) (A)
                 (A) (A) (A) (A) (A) (A) (A) (A) (A) (A) (A) (A)
                 (A) (A) (A) (A) (A) (A) (A) (A) (A) (A) (A) (A)
                 (A) (A) (A) (A) (A) (A) (A) (A) (A) (A) (A) (A)
                 (A) (A) (A) (A) (A) (A) (A) (A) (A) (A) (A) (A)
                 (A) (A) (A) (A) (A) (A) (A) (A) (A) (A) (A) (A)
                 (A) (A) (A) (A) (A) (A) (A) (A) (A) (A) (A) (A)
                 (A) (A) (A) (A) (A) (A) (A) (A) (A) (A) (A) (A)
                 (A) (A) (A) (A) (A) (A) (A) (A) (A) (A) (A) (A)
                 (A) (A) (A) (A) (A) (A) (A) (A) (A) (A) (A) (A)
                 (A) (A) (A) (A) (A) (A) (A) (A) (A) (A) (A) (A)
                 (A) (A) (A) (A) (A) (A) (A) (A) (A) (A) (A) (A)
                 (A) (A) (A) (A) (A) (A) (A) (A) (A) (A) (A) (A)
                 (A) (A) (A) (A) (A) (A) (A) (A) (A) (A) (A) (A)
                 (A) (A) (A) (A) (A) (A) (A) (A) (A) (A) (A) (A)
                 (A) (A) (A) (A) (A) (A) (A) (A) (A) (A) (A) (A)
                 (A) (A) (A) (A) (A) (A) (A) (A) (A) (A) (A) (A)
                 (A) (A) (A) (A) (A) (A) (A) (A) (A) (A) (A) (A)
                 (A) (A) (A) (A) (A) (A) (A) (A) (A) (A) (A) (A)
                 (A) (A) (A) (A) (A) (A) (A) (A) (A) (A) (A) (A)
                 (A) (A) (A) (A) (A) (A) (A) (A) (A) (A) (A) (A)
                 (A) (A) (A) (A) (A) (A) (A) (A) (A) (A) (A) (A)
                 (A) (A) (A) (A) (A) (A) (A) (A) (A) (A) (A) (A)
                 (A) (A) (A) (A) (A) (A) (A) (A) (A) (A) (A) (A)
                 (A) (A) (A) (A) (A) (A) (A) (A) (A) (A) (A) (A)
                 (A) (A) (A) (A) (A) (A) (A) (A) (A) (A) (A) (A)
                 (A) (A) (A) (A) (A) (A) (A) (A) (A) (A) (A) (A)
                 (A) (A) (A) (A) (A) (A) (A) (A) (A) (A) (A) (A)
 The electronic state is 1-A.
 Alpha  occ. eigenvalues --  -19.20296 -19.16188 -19.16176 -19.15980 -14.40355
 Alpha  occ. eigenvalues --  -10.33514 -10.32153 -10.32101 -10.25689 -10.23580
 Alpha  occ. eigenvalues --  -10.23031 -10.22734 -10.21948 -10.21747 -10.20703
 Alpha  occ. eigenvalues --  -10.20104 -10.19976 -10.19109  -1.10975  -1.08358
 Alpha  occ. eigenvalues --   -1.06981  -1.02905  -0.95787  -0.87256  -0.80661
 Alpha  occ. eigenvalues --   -0.79491  -0.77145  -0.73302  -0.70841  -0.69671
 Alpha  occ. eigenvalues --   -0.65531  -0.62168  -0.61728  -0.57609  -0.55733
 Alpha  occ. eigenvalues --   -0.53100  -0.51565  -0.50953  -0.49586  -0.49170
 Alpha  occ. eigenvalues --   -0.48385  -0.47837  -0.47134  -0.45660  -0.45139
 Alpha  occ. eigenvalues --   -0.44682  -0.43828  -0.43547  -0.43160  -0.42152
 Alpha  occ. eigenvalues --   -0.40818  -0.40774  -0.40502  -0.39348  -0.38707
 Alpha  occ. eigenvalues --   -0.38160  -0.37135  -0.36810  -0.35084  -0.34041
 Alpha  occ. eigenvalues --   -0.32359  -0.31573  -0.30463  -0.29412  -0.28868
 Alpha  occ. eigenvalues --   -0.27407  -0.26393
 Alpha virt. eigenvalues --   -0.03589  -0.01513  -0.01141  -0.00694   0.00120
 Alpha virt. eigenvalues --    0.00800   0.01317   0.01797   0.02242   0.03018
 Alpha virt. eigenvalues --    0.03745   0.04095   0.04530   0.05098   0.05194
 Alpha virt. eigenvalues --    0.06066   0.06168   0.06539   0.07354   0.07557
 Alpha virt. eigenvalues --    0.07731   0.08251   0.08571   0.09279   0.09433
 Alpha virt. eigenvalues --    0.09997   0.10085   0.10804   0.11504   0.12131
 Alpha virt. eigenvalues --    0.12206   0.12705   0.13139   0.13585   0.14182
 Alpha virt. eigenvalues --    0.14290   0.14470   0.15047   0.15328   0.16029
 Alpha virt. eigenvalues --    0.16207   0.16626   0.17215   0.17452   0.17577
 Alpha virt. eigenvalues --    0.18219   0.18639   0.18909   0.19500   0.19698
 Alpha virt. eigenvalues --    0.20216   0.20331   0.20398   0.20940   0.21248
 Alpha virt. eigenvalues --    0.21556   0.21914   0.21986   0.22494   0.23058
 Alpha virt. eigenvalues --    0.23248   0.23536   0.23937   0.24401   0.24660
 Alpha virt. eigenvalues --    0.25359   0.25643   0.26179   0.26328   0.26773
 Alpha virt. eigenvalues --    0.27213   0.27607   0.27681   0.28531   0.29260
 Alpha virt. eigenvalues --    0.29790   0.29994   0.30548   0.30916   0.31350
 Alpha virt. eigenvalues --    0.32233   0.32993   0.33143   0.33239   0.33454
 Alpha virt. eigenvalues --    0.33961   0.34248   0.34688   0.35110   0.35283
 Alpha virt. eigenvalues --    0.35798   0.36875   0.37166   0.37484   0.38178
 Alpha virt. eigenvalues --    0.38373   0.39096   0.39375   0.40991   0.42200
 Alpha virt. eigenvalues --    0.42698   0.43268   0.43608   0.44995   0.45364
 Alpha virt. eigenvalues --    0.47275   0.47620   0.48566   0.49056   0.50377
 Alpha virt. eigenvalues --    0.51006   0.56096   0.61140   0.63836   0.64611
 Alpha virt. eigenvalues --    0.66477   0.67184   0.67777   0.68664   0.69685
 Alpha virt. eigenvalues --    0.70085   0.70557   0.72062   0.72460   0.73395
 Alpha virt. eigenvalues --    0.74676   0.75077   0.75562   0.76613   0.77430
 Alpha virt. eigenvalues --    0.78703   0.79851   0.80312   0.82312   0.82866
 Alpha virt. eigenvalues --    0.83519   0.84068   0.85209   0.86118   0.86821
 Alpha virt. eigenvalues --    0.88325   0.88440   0.89918   0.91629   0.92644
 Alpha virt. eigenvalues --    0.93106   0.94280   0.95080   0.96647   0.97640
 Alpha virt. eigenvalues --    0.97893   0.98859   0.99964   1.00237   1.01541
 Alpha virt. eigenvalues --    1.02157   1.03664   1.05451   1.06564   1.07516
 Alpha virt. eigenvalues --    1.08344   1.08903   1.09247   1.11544   1.11839
 Alpha virt. eigenvalues --    1.12488   1.15329   1.16999   1.17955   1.19145
 Alpha virt. eigenvalues --    1.20599   1.23021   1.24422   1.25008   1.25633
 Alpha virt. eigenvalues --    1.25913   1.26714   1.27347   1.27495   1.30514
 Alpha virt. eigenvalues --    1.31811   1.33219   1.33647   1.34393   1.35309
 Alpha virt. eigenvalues --    1.35774   1.36558   1.37089   1.37511   1.38313
 Alpha virt. eigenvalues --    1.40030   1.40640   1.41513   1.43761   1.43982
 Alpha virt. eigenvalues --    1.46658   1.47658   1.49689   1.52774   1.54194
 Alpha virt. eigenvalues --    1.54874   1.56730   1.58418   1.60874   1.62997
 Alpha virt. eigenvalues --    1.63542   1.65029   1.65196   1.67575   1.68594
 Alpha virt. eigenvalues --    1.69893   1.71296   1.72805   1.73090   1.74907
 Alpha virt. eigenvalues --    1.75938   1.78847   1.79369   1.80023   1.82063
 Alpha virt. eigenvalues --    1.84004   1.84807   1.85208   1.85513   1.86560
 Alpha virt. eigenvalues --    1.87018   1.88014   1.88460   1.90976   1.91426
 Alpha virt. eigenvalues --    1.92220   1.93363   1.94276   1.94878   1.96254
 Alpha virt. eigenvalues --    1.98122   1.98926   1.99484   2.01364   2.02463
 Alpha virt. eigenvalues --    2.02888   2.03053   2.03772   2.05089   2.06623
 Alpha virt. eigenvalues --    2.06975   2.08243   2.09010   2.09271   2.09814
 Alpha virt. eigenvalues --    2.10824   2.11596   2.11801   2.13077   2.13844
 Alpha virt. eigenvalues --    2.15820   2.17787   2.18096   2.19014   2.20718
 Alpha virt. eigenvalues --    2.23347   2.23844   2.25338   2.29509   2.32189
 Alpha virt. eigenvalues --    2.33450   2.34056   2.36119   2.36929   2.37570
 Alpha virt. eigenvalues --    2.39630   2.40034   2.41039   2.43735   2.45234
 Alpha virt. eigenvalues --    2.46667   2.47965   2.48757   2.50213   2.51449
 Alpha virt. eigenvalues --    2.52839   2.53789   2.55083   2.55775   2.58092
 Alpha virt. eigenvalues --    2.60655   2.62486   2.63853   2.64470   2.64966
 Alpha virt. eigenvalues --    2.66418   2.67107   2.68032   2.68804   2.70203
 Alpha virt. eigenvalues --    2.71020   2.72183   2.72408   2.73011   2.75752
 Alpha virt. eigenvalues --    2.76707   2.78637   2.79753   2.82229   2.82681
 Alpha virt. eigenvalues --    2.84440   2.85275   2.86155   2.87402   2.88498
 Alpha virt. eigenvalues --    2.89532   2.91321   2.93931   2.95512   2.96579
 Alpha virt. eigenvalues --    3.01752   3.04938   3.06745   3.09797   3.10465
 Alpha virt. eigenvalues --    3.16121   3.19697   3.20035   3.24536   3.24787
 Alpha virt. eigenvalues --    3.26038   3.27679   3.30277   3.31003   3.34179
 Alpha virt. eigenvalues --    3.36161   3.38769   3.41180   3.42565   3.42700
 Alpha virt. eigenvalues --    3.43129   3.45150   3.46801   3.48080   3.48646
 Alpha virt. eigenvalues --    3.52884   3.67067   4.18260   4.29599   4.34062
 Alpha virt. eigenvalues --    4.37532   4.38975   4.46372   4.49956   4.51012
 Alpha virt. eigenvalues --    4.52069   4.56004   4.57661   4.66577   4.67794
 Alpha virt. eigenvalues --    4.76974   4.77463   4.79786   4.93451   5.15902
          Condensed to atoms (all electrons):
               1          2          3          4          5          6
     1  C    8.342478  -2.701881   0.891253  -1.423084  -0.009098  -0.041605
     2  C   -2.701881  10.745692  -2.733184   1.361474   0.303413   0.026197
     3  C    0.891253  -2.733184  17.240512  -3.558983   0.024587   0.333261
     4  C   -1.423084   1.361474  -3.558983   8.787590  -0.041399   0.002432
     5  H   -0.009098   0.303413   0.024587  -0.041399   0.542735  -0.006626
     6  H   -0.041605   0.026197   0.333261   0.002432  -0.006626   0.541584
     7  C   -0.111530  -0.046714  -0.124147  -0.093430   0.004045   0.004147
     8  H    0.003965  -0.012721  -0.004411  -0.000110  -0.000005  -0.000005
     9  H   -0.001969   0.003506  -0.004392  -0.001338   0.000008   0.000011
    10  H   -0.003631  -0.000107  -0.002624   0.000816   0.000009   0.000012
    11  N    0.242629  -0.500508  -0.673122   0.323850   0.022454   0.023077
    12  O    0.110419  -0.112063  -0.014097   0.341916  -0.000507  -0.001784
    13  O    0.339779   0.071930  -0.088371   0.097897  -0.001960  -0.000504
    14  C    0.754608   0.608995  -7.071158   0.728389  -0.033842  -0.102004
    15  H    0.000730  -0.003712  -0.105745   0.077532  -0.000110   0.000317
    16  C    0.001155  -1.091412   0.660362   0.094090  -0.024443   0.013152
    17  H    0.047926  -0.120134   0.018821   0.007382   0.000935  -0.000120
    18  C    0.184926   0.210562  -1.104241  -0.021005   0.012979  -0.022961
    19  H    0.005660  -0.012166   0.032252  -0.005484  -0.000128   0.000010
    20  C   -0.245159  -0.449576   0.707277  -0.038404  -0.001001   0.033692
    21  H   -0.007201   0.003772   0.007042   0.005205   0.000011  -0.000126
    22  C   -0.544348   0.405358   0.263065   0.034141   0.005629   0.012552
    23  H    0.011318   0.000997  -0.000241  -0.000740   0.002829  -0.000014
    24  H   -0.022979  -0.019736   0.035592   0.001819   0.000393   0.000002
    25  H    0.003843   0.062801  -0.051230   0.008513  -0.000265  -0.000224
    26  C   -0.034257  -0.082543   1.790307  -0.845232   0.026350   0.004061
    27  H   -0.000538   0.019586   0.034079  -0.005883   0.000002   0.004599
    28  H    0.004228  -0.005277   0.019784   0.005009  -0.000268   0.000065
    29  C   -0.003571   0.010631  -0.283224   0.020194   0.000115   0.000469
    30  C   -0.000799  -0.012333   0.048447   0.011400   0.000008  -0.000287
    31  H    0.000011  -0.000061   0.000072  -0.000016   0.000000   0.000000
    32  H   -0.000003  -0.000014   0.000649   0.000097   0.000000   0.000000
    33  H   -0.000003  -0.000183   0.001162   0.000074   0.000000   0.000000
    34  O   -0.000562  -0.002454  -0.034044  -0.002819   0.000003   0.000041
    35  O   -0.006231   0.008685   0.161257  -0.027469   0.000107   0.001273
               7          8          9         10         11         12
     1  C   -0.111530   0.003965  -0.001969  -0.003631   0.242629   0.110419
     2  C   -0.046714  -0.012721   0.003506  -0.000107  -0.500508  -0.112063
     3  C   -0.124147  -0.004411  -0.004392  -0.002624  -0.673122  -0.014097
     4  C   -0.093430  -0.000110  -0.001338   0.000816   0.323850   0.341916
     5  H    0.004045  -0.000005   0.000008   0.000009   0.022454  -0.000507
     6  H    0.004147  -0.000005   0.000011   0.000012   0.023077  -0.001784
     7  C    5.191284   0.407069   0.409881   0.409128   0.224594  -0.040690
     8  H    0.407069   0.524789  -0.027356  -0.027271  -0.042276   0.001323
     9  H    0.409881  -0.027356   0.507137  -0.023841  -0.043715   0.000709
    10  H    0.409128  -0.027271  -0.023841   0.506936  -0.043136   0.003241
    11  N    0.224594  -0.042276  -0.043715  -0.043136   7.476653  -0.095563
    12  O   -0.040690   0.001323   0.000709   0.003241  -0.095563   8.283005
    13  O   -0.039604   0.001187   0.003286   0.000676  -0.104107  -0.001934
    14  C    0.041792   0.001442  -0.001075   0.001460   0.144298   0.018049
    15  H   -0.000002   0.000000   0.000000  -0.000001   0.000457   0.003504
    16  C    0.004926   0.002400   0.000082  -0.000520   0.034001  -0.003898
    17  H   -0.000760   0.000001  -0.000002   0.000000   0.000517   0.000053
    18  C    0.005204  -0.000627  -0.000695   0.000728   0.005760   0.005650
    19  H   -0.000732   0.000001   0.000000   0.000000  -0.001348   0.000015
    20  C   -0.006658   0.001946   0.000677  -0.000906   0.076614   0.010942
    21  H   -0.000230   0.000000   0.000000   0.000000  -0.000911   0.000028
    22  C    0.006279  -0.000145   0.000047   0.000053   0.025324  -0.000386
    23  H    0.000072   0.000000   0.000000   0.000000  -0.000184   0.000000
    24  H    0.000031   0.000000   0.000000   0.000000   0.000355  -0.000002
    25  H    0.000012   0.000000   0.000000   0.000000  -0.000250   0.000014
    26  C    0.009089   0.000041   0.000007  -0.000082   0.020697  -0.009789
    27  H    0.000011   0.000000   0.000000   0.000000   0.000037   0.000038
    28  H    0.000022   0.000000   0.000000   0.000000  -0.000260  -0.000098
    29  C    0.000155  -0.000004  -0.000001   0.000008   0.001144   0.001329
    30  C   -0.000100   0.000000   0.000000   0.000000  -0.000839  -0.000823
    31  H    0.000000   0.000000   0.000000   0.000000   0.000000   0.000002
    32  H    0.000000   0.000000   0.000000   0.000000   0.000000   0.000000
    33  H    0.000000   0.000000   0.000000   0.000000   0.000000   0.000000
    34  O   -0.000068   0.000000   0.000000   0.000000  -0.000037  -0.000964
    35  O    0.000136   0.000000   0.000000   0.000000   0.000805   0.000158
              13         14         15         16         17         18
     1  C    0.339779   0.754608   0.000730   0.001155   0.047926   0.184926
     2  C    0.071930   0.608995  -0.003712  -1.091412  -0.120134   0.210562
     3  C   -0.088371  -7.071158  -0.105745   0.660362   0.018821  -1.104241
     4  C    0.097897   0.728389   0.077532   0.094090   0.007382  -0.021005
     5  H   -0.001960  -0.033842  -0.000110  -0.024443   0.000935   0.012979
     6  H   -0.000504  -0.102004   0.000317   0.013152  -0.000120  -0.022961
     7  C   -0.039604   0.041792  -0.000002   0.004926  -0.000760   0.005204
     8  H    0.001187   0.001442   0.000000   0.002400   0.000001  -0.000627
     9  H    0.003286  -0.001075   0.000000   0.000082  -0.000002  -0.000695
    10  H    0.000676   0.001460  -0.000001  -0.000520   0.000000   0.000728
    11  N   -0.104107   0.144298   0.000457   0.034001   0.000517   0.005760
    12  O   -0.001934   0.018049   0.003504  -0.003898   0.000053   0.005650
    13  O    8.303637  -0.005920   0.000010  -0.069509   0.001810   0.003301
    14  C   -0.005920  15.644444   0.324003  -0.988547   0.015918   1.147590
    15  H    0.000010   0.324003   0.531020   0.010580   0.000004   0.010308
    16  C   -0.069509  -0.988547   0.010580   7.784749   0.334637  -0.216950
    17  H    0.001810   0.015918   0.000004   0.334637   0.566893   0.045663
    18  C    0.003301   1.147590   0.010308  -0.216950   0.045663   6.442226
    19  H    0.000155  -0.001534  -0.000107  -0.073658  -0.006705   0.291802
    20  C    0.004133  -1.906306   0.061109   0.301405   0.002625  -0.342140
    21  H    0.000031  -0.102119  -0.006660   0.017591  -0.000127   0.005952
    22  C   -0.006357  -0.392825  -0.004059  -0.648233  -0.060243  -0.288642
    23  H   -0.000154  -0.003448   0.000001  -0.071146  -0.003480  -0.024968
    24  H    0.000194  -0.043517   0.000001  -0.086433  -0.004349  -0.032885
    25  H   -0.000087   0.158968  -0.000057  -0.234048   0.005212   0.084754
    26  C    0.001664  -2.658506  -0.054657   0.167408  -0.012970  -0.320964
    27  H    0.000000  -0.164929  -0.003836   0.000144   0.000002  -0.007223
    28  H   -0.000008  -0.068723   0.004345   0.032942  -0.000037   0.013849
    29  C   -0.000050   0.150095  -0.010067   0.000732  -0.000139   0.021959
    30  C   -0.000001   0.017205  -0.002857   0.009476   0.000016   0.002122
    31  H    0.000000  -0.002705   0.000020   0.000120   0.000000   0.000704
    32  H    0.000000   0.003997   0.000001  -0.000032   0.000000  -0.000154
    33  H    0.000000  -0.000728  -0.000005   0.000188   0.000000  -0.000077
    34  O    0.000001   0.009538  -0.000928   0.001425   0.000000  -0.006377
    35  O   -0.000005  -0.353744  -0.013985  -0.008215  -0.000051  -0.078566
              19         20         21         22         23         24
     1  C    0.005660  -0.245159  -0.007201  -0.544348   0.011318  -0.022979
     2  C   -0.012166  -0.449576   0.003772   0.405358   0.000997  -0.019736
     3  C    0.032252   0.707277   0.007042   0.263065  -0.000241   0.035592
     4  C   -0.005484  -0.038404   0.005205   0.034141  -0.000740   0.001819
     5  H   -0.000128  -0.001001   0.000011   0.005629   0.002829   0.000393
     6  H    0.000010   0.033692  -0.000126   0.012552  -0.000014   0.000002
     7  C   -0.000732  -0.006658  -0.000230   0.006279   0.000072   0.000031
     8  H    0.000001   0.001946   0.000000  -0.000145   0.000000   0.000000
     9  H    0.000000   0.000677   0.000000   0.000047   0.000000   0.000000
    10  H    0.000000  -0.000906   0.000000   0.000053   0.000000   0.000000
    11  N   -0.001348   0.076614  -0.000911   0.025324  -0.000184   0.000355
    12  O    0.000015   0.010942   0.000028  -0.000386   0.000000  -0.000002
    13  O    0.000155   0.004133   0.000031  -0.006357  -0.000154   0.000194
    14  C   -0.001534  -1.906306  -0.102119  -0.392825  -0.003448  -0.043517
    15  H   -0.000107   0.061109  -0.006660  -0.004059   0.000001   0.000001
    16  C   -0.073658   0.301405   0.017591  -0.648233  -0.071146  -0.086433
    17  H   -0.006705   0.002625  -0.000127  -0.060243  -0.003480  -0.004349
    18  C    0.291802  -0.342140   0.005952  -0.288642  -0.024968  -0.032885
    19  H    0.560444   0.066299  -0.006743   0.006378  -0.000083   0.001198
    20  C    0.066299   7.508430   0.337873   0.165617   0.001034   0.026954
    21  H   -0.006743   0.337873   0.565536   0.004373   0.000004  -0.000007
    22  C    0.006378   0.165617   0.004373   6.139059   0.435451   0.491294
    23  H   -0.000083   0.001034   0.000004   0.435451   0.546176  -0.026793
    24  H    0.001198   0.026954  -0.000007   0.491294  -0.026793   0.541990
    25  H   -0.000103  -0.055540  -0.000080   0.450045  -0.030190  -0.029345
    26  C    0.007158  -0.057417   0.031986   0.028194   0.008610   0.009058
    27  H    0.000005  -0.004360  -0.000136  -0.001363  -0.000005   0.000001
    28  H   -0.000115  -0.014244   0.000012  -0.046142   0.000145   0.000294
    29  C   -0.000397   0.023682   0.004889  -0.004682   0.000199   0.000116
    30  C    0.000167   0.013572  -0.002355   0.000028  -0.000019   0.000011
    31  H    0.000000   0.003096  -0.000010  -0.000017   0.000000   0.000000
    32  H    0.000000  -0.001962   0.000000  -0.000004   0.000000   0.000000
    33  H    0.000000   0.002423  -0.000002  -0.000030   0.000000   0.000000
    34  O   -0.000004   0.040151  -0.000119   0.000859  -0.000001  -0.000001
    35  O    0.000059   0.028394   0.004936   0.018550  -0.000052   0.000170
              25         26         27         28         29         30
     1  C    0.003843  -0.034257  -0.000538   0.004228  -0.003571  -0.000799
     2  C    0.062801  -0.082543   0.019586  -0.005277   0.010631  -0.012333
     3  C   -0.051230   1.790307   0.034079   0.019784  -0.283224   0.048447
     4  C    0.008513  -0.845232  -0.005883   0.005009   0.020194   0.011400
     5  H   -0.000265   0.026350   0.000002  -0.000268   0.000115   0.000008
     6  H   -0.000224   0.004061   0.004599   0.000065   0.000469  -0.000287
     7  C    0.000012   0.009089   0.000011   0.000022   0.000155  -0.000100
     8  H    0.000000   0.000041   0.000000   0.000000  -0.000004   0.000000
     9  H    0.000000   0.000007   0.000000   0.000000  -0.000001   0.000000
    10  H    0.000000  -0.000082   0.000000   0.000000   0.000008   0.000000
    11  N   -0.000250   0.020697   0.000037  -0.000260   0.001144  -0.000839
    12  O    0.000014  -0.009789   0.000038  -0.000098   0.001329  -0.000823
    13  O   -0.000087   0.001664   0.000000  -0.000008  -0.000050  -0.000001
    14  C    0.158968  -2.658506  -0.164929  -0.068723   0.150095   0.017205
    15  H   -0.000057  -0.054657  -0.003836   0.004345  -0.010067  -0.002857
    16  C   -0.234048   0.167408   0.000144   0.032942   0.000732   0.009476
    17  H    0.005212  -0.012970   0.000002  -0.000037  -0.000139   0.000016
    18  C    0.084754  -0.320964  -0.007223   0.013849   0.021959   0.002122
    19  H   -0.000103   0.007158   0.000005  -0.000115  -0.000397   0.000167
    20  C   -0.055540  -0.057417  -0.004360  -0.014244   0.023682   0.013572
    21  H   -0.000080   0.031986  -0.000136   0.000012   0.004889  -0.002355
    22  C    0.450045   0.028194  -0.001363  -0.046142  -0.004682   0.000028
    23  H   -0.030190   0.008610  -0.000005   0.000145   0.000199  -0.000019
    24  H   -0.029345   0.009058   0.000001   0.000294   0.000116   0.000011
    25  H    0.599777  -0.101434   0.000448   0.007957  -0.003820   0.000520
    26  C   -0.101434   7.196430   0.468798   0.433800  -0.134567  -0.112142
    27  H    0.000448   0.468798   0.550050  -0.036249   0.007505   0.004537
    28  H    0.007957   0.433800  -0.036249   0.603622  -0.004355  -0.002789
    29  C   -0.003820  -0.134567   0.007505  -0.004355   5.840298  -0.350851
    30  C    0.000520  -0.112142   0.004537  -0.002789  -0.350851   5.729809
    31  H    0.000000  -0.002210  -0.000007   0.000002  -0.087343   0.440129
    32  H    0.000000  -0.000766   0.000018   0.000011  -0.063278   0.415771
    33  H    0.000000  -0.000696  -0.000006  -0.000068  -0.090341   0.447640
    34  O    0.000007  -0.080623   0.002082  -0.000234   0.448080  -0.003828
    35  O   -0.000711   0.352515  -0.029536  -0.069873   0.011368  -0.142663
              31         32         33         34         35
     1  C    0.000011  -0.000003  -0.000003  -0.000562  -0.006231
     2  C   -0.000061  -0.000014  -0.000183  -0.002454   0.008685
     3  C    0.000072   0.000649   0.001162  -0.034044   0.161257
     4  C   -0.000016   0.000097   0.000074  -0.002819  -0.027469
     5  H    0.000000   0.000000   0.000000   0.000003   0.000107
     6  H    0.000000   0.000000   0.000000   0.000041   0.001273
     7  C    0.000000   0.000000   0.000000  -0.000068   0.000136
     8  H    0.000000   0.000000   0.000000   0.000000   0.000000
     9  H    0.000000   0.000000   0.000000   0.000000   0.000000
    10  H    0.000000   0.000000   0.000000   0.000000   0.000000
    11  N    0.000000   0.000000   0.000000  -0.000037   0.000805
    12  O    0.000002   0.000000   0.000000  -0.000964   0.000158
    13  O    0.000000   0.000000   0.000000   0.000001  -0.000005
    14  C   -0.002705   0.003997  -0.000728   0.009538  -0.353744
    15  H    0.000020   0.000001  -0.000005  -0.000928  -0.013985
    16  C    0.000120  -0.000032   0.000188   0.001425  -0.008215
    17  H    0.000000   0.000000   0.000000   0.000000  -0.000051
    18  C    0.000704  -0.000154  -0.000077  -0.006377  -0.078566
    19  H    0.000000   0.000000   0.000000  -0.000004   0.000059
    20  C    0.003096  -0.001962   0.002423   0.040151   0.028394
    21  H   -0.000010   0.000000  -0.000002  -0.000119   0.004936
    22  C   -0.000017  -0.000004  -0.000030   0.000859   0.018550
    23  H    0.000000   0.000000   0.000000  -0.000001  -0.000052
    24  H    0.000000   0.000000   0.000000  -0.000001   0.000170
    25  H    0.000000   0.000000   0.000000   0.000007  -0.000711
    26  C   -0.002210  -0.000766  -0.000696  -0.080623   0.352515
    27  H   -0.000007   0.000018  -0.000006   0.002082  -0.029536
    28  H    0.000002   0.000011  -0.000068  -0.000234  -0.069873
    29  C   -0.087343  -0.063278  -0.090341   0.448080   0.011368
    30  C    0.440129   0.415771   0.447640  -0.003828  -0.142663
    31  H    0.498541  -0.020096  -0.024962  -0.001028   0.004117
    32  H   -0.020096   0.497587  -0.025055  -0.002030   0.003896
    33  H   -0.024962  -0.025055   0.506965   0.005551  -0.004355
    34  O   -0.001028  -0.002030   0.005551   8.213007  -0.128580
    35  O    0.004117   0.003896  -0.004355  -0.128580   8.528157
 Mulliken charges:
               1
     1  C    0.213525
     2  C    0.063180
     3  C   -0.416565
     4  C    0.155576
     5  H    0.173041
     6  H    0.175304
     7  C   -0.253211
     8  H    0.170767
     9  H    0.179034
    10  H    0.179051
    11  N   -0.117008
    12  O   -0.497796
    13  O   -0.511118
    14  C    0.130839
    15  H    0.182847
    16  C    0.045478
    17  H    0.160702
    18  C   -0.027563
    19  H    0.137707
    20  C   -0.294270
    21  H    0.137584
    22  C   -0.494820
    23  H    0.154682
    24  H    0.156575
    25  H    0.124516
    26  C   -0.047317
    27  H    0.162129
    28  H    0.122657
    29  C    0.493721
    30  C   -0.508172
    31  H    0.191643
    32  H    0.191366
    33  H    0.182505
    34  O   -0.456044
    35  O   -0.260547
 Sum of Mulliken charges =   0.00000
 Mulliken charges with hydrogens summed into heavy atoms:
               1
     1  C    0.213525
     2  C    0.236222
     3  C   -0.241261
     4  C    0.155576
     7  C    0.275642
    11  N   -0.117008
    12  O   -0.497796
    13  O   -0.511118
    14  C    0.313686
    16  C    0.206179
    18  C    0.110144
    20  C   -0.156687
    22  C   -0.059047
    26  C    0.237470
    29  C    0.493721
    30  C    0.057342
    34  O   -0.456044
    35  O   -0.260547
 Electronic spatial extent (au):  <R**2>=           5050.0872
 Charge=              0.0000 electrons
 Dipole moment (field-independent basis, Debye):
    X=              1.5054    Y=              3.2167    Z=              0.4658  Tot=              3.5820
 Quadrupole moment (field-independent basis, Debye-Ang):
   XX=           -107.7537   YY=           -118.0922   ZZ=           -101.4617
   XY=             12.9436   XZ=              5.8312   YZ=             -4.0639
 Traceless Quadrupole moment (field-independent basis, Debye-Ang):
   XX=              1.3489   YY=             -8.9897   ZZ=              7.6409
   XY=             12.9436   XZ=              5.8312   YZ=             -4.0639
 Octapole moment (field-independent basis, Debye-Ang**2):
  XXX=            123.9328  YYY=             35.2490  ZZZ=             -3.0738  XYY=            -24.5623
  XXY=            -40.2306  XXZ=             32.1399  XZZ=              0.8713  YZZ=             -0.6896
  YYZ=              8.4510  XYZ=            -10.3644
 Hexadecapole moment (field-independent basis, Debye-Ang**3):
 XXXX=          -4307.1509 YYYY=          -1688.8269 ZZZZ=           -450.4913 XXXY=            257.7122
 XXXZ=             88.0015 YYYX=             35.4937 YYYZ=             -3.5550 ZZZX=              3.5084
 ZZZY=              2.3664 XXYY=          -1067.7307 XXZZ=           -812.0686 YYZZ=           -336.5232
 XXYZ=            -60.8682 YYXZ=              8.1757 ZZXY=              0.0978
 N-N= 1.384092578067D+03 E-N=-4.773571421190D+03  KE= 8.530431969732D+02
 D1PCM: C-PCM CHGder 1st derivatives, ID1Alg=3 FixD1E=F DoIter=F DoCFld=F I1PDM=0.
 Calling FoFJK, ICntrl=      2127 FMM=F ISym2X=0 I1Cent= 0 IOpClX= 0 NMat=1 NMatS=1 NMatT=0.
 ***** Axes restored to original set *****
 -------------------------------------------------------------------
 Center     Atomic                   Forces (Hartrees/Bohr)
 Number     Number              X              Y              Z
 -------------------------------------------------------------------
      1        6           0.016337255   -0.033269725   -0.002338628
      2        6          -0.005294191    0.002005994   -0.011344304
      3        6          -0.000312209   -0.004563223   -0.011015766
      4        6          -0.029937582    0.021688533   -0.001376499
      5        1          -0.001806942   -0.004423398    0.014925348
      6        1          -0.003542088   -0.000839696    0.015297604
      7        6          -0.001641207   -0.001462702   -0.000227945
      8        1           0.001393479    0.001246171   -0.006558745
      9        1           0.009865211    0.001337626    0.001121444
     10        1           0.002932826    0.009500685    0.001263303
     11        7           0.006923070    0.005549933   -0.003614062
     12        8           0.006374832   -0.009911532    0.001915334
     13        8          -0.008821288    0.008010428    0.002033161
     14        6           0.007109805   -0.011647180   -0.002843862
     15        1          -0.005321996    0.016908690   -0.007485740
     16        6          -0.011795394    0.007434472    0.002810453
     17        1           0.014224569   -0.006846296   -0.006866334
     18        6          -0.005763570    0.001537533    0.004796370
     19        1           0.003749253   -0.002152566    0.000960598
     20        6           0.002815857   -0.005505697    0.005625132
     21        1          -0.002241590    0.004331791    0.001345763
     22        6           0.005901984    0.009897637   -0.004327273
     23        1          -0.001572295   -0.000979581    0.000154203
     24        1          -0.000478001   -0.001492765    0.000131803
     25        1          -0.010806356    0.006565323    0.002485722
     26        6           0.012621945    0.006190868   -0.000306918
     27        1          -0.001920941    0.002017464    0.005939053
     28        1           0.002493180   -0.021940602   -0.000242913
     29        6          -0.024831289    0.023102290   -0.005698510
     30        6           0.023095438    0.001486677    0.014610123
     31        1          -0.002044532    0.000920367   -0.006193381
     32        1          -0.006233028   -0.002202458    0.000708634
     33        1          -0.003678712   -0.006535836   -0.005067374
     34        8           0.006625556   -0.008633472    0.000337704
     35        8           0.005578952   -0.007325753   -0.000953499
 -------------------------------------------------------------------
 Cartesian Forces:  Max     0.033269725 RMS     0.009139559

 GradGradGradGradGradGradGradGradGradGradGradGradGradGradGradGradGradGrad
 Berny optimization.
 FormGI is forming the generalized inverse of G from B-inverse, IUseBI=4.
 GSVD:  received Info=                   1 from GESDD.
 Internal  Forces:  Max     0.023280450 RMS     0.005941498
 Search for a local minimum.
 Step number   1 out of a maximum of  210
 All quantities printed in internal units (Hartrees-Bohrs-Radians)
 Mixed Optimization -- RFO/linear search
 Second derivative matrix not updated -- first step.
 ITU=  0
     Eigenvalues ---    0.00235   0.00298   0.00336   0.00597   0.00633
     Eigenvalues ---    0.00680   0.00713   0.00874   0.00978   0.00983
     Eigenvalues ---    0.01191   0.01206   0.01254   0.01386   0.01880
     Eigenvalues ---    0.01954   0.02879   0.03602   0.03868   0.04348
     Eigenvalues ---    0.04400   0.04762   0.04907   0.04915   0.05327
     Eigenvalues ---    0.05328   0.05462   0.05591   0.05767   0.05795
     Eigenvalues ---    0.06004   0.07034   0.07102   0.07264   0.07312
     Eigenvalues ---    0.07358   0.09701   0.11608   0.13689   0.14130
     Eigenvalues ---    0.14721   0.15999   0.15999   0.16000   0.16000
     Eigenvalues ---    0.16000   0.16000   0.16000   0.16000   0.16000
     Eigenvalues ---    0.16000   0.16000   0.17160   0.18093   0.19475
     Eigenvalues ---    0.22049   0.23568   0.24977   0.24992   0.24998
     Eigenvalues ---    0.24999   0.25000   0.25000   0.25454   0.25765
     Eigenvalues ---    0.27688   0.28126   0.28509   0.28851   0.29197
     Eigenvalues ---    0.30158   0.30905   0.31039   0.31184   0.31412
     Eigenvalues ---    0.31561   0.32188   0.33176   0.33190   0.33202
     Eigenvalues ---    0.33257   0.33299   0.33319   0.33366   0.33382
     Eigenvalues ---    0.33979   0.34159   0.34172   0.34934   0.34974
     Eigenvalues ---    0.34986   0.37734   0.38751   0.40910   0.49064
     Eigenvalues ---    0.55181   0.99699   1.00616   1.01053
 RFO step:  Lambda=-3.25818222D-02 EMin= 2.35274089D-03
 Linear search not attempted -- first point.
 Iteration  1 RMS(Cart)=  0.20577079 RMS(Int)=  0.00772492
 Iteration  2 RMS(Cart)=  0.01539512 RMS(Int)=  0.00055441
 Iteration  3 RMS(Cart)=  0.00010704 RMS(Int)=  0.00055186
 Iteration  4 RMS(Cart)=  0.00000009 RMS(Int)=  0.00055186
 Variable       Old X    -DE/DX   Delta X   Delta X   Delta X     New X
                                 (Linear)    (Quad)   (Total)
    R1        2.89903  -0.00465   0.00000  -0.01166  -0.01168   2.88735
    R2        2.69094  -0.02308   0.00000  -0.05690  -0.05678   2.63416
    R3        2.28393   0.01172   0.00000   0.01128   0.01128   2.29521
    R4        2.93416   0.00505   0.00000   0.02223   0.02225   2.95642
    R5        2.11655  -0.01513   0.00000  -0.04345  -0.04345   2.07310
    R6        2.92861   0.00655   0.00000   0.01894   0.01896   2.94757
    R7        2.90210  -0.00462   0.00000  -0.01183  -0.01188   2.89022
    R8        2.11933  -0.01525   0.00000  -0.04399  -0.04399   2.07534
    R9        2.91550   0.00695   0.00000   0.02037   0.02050   2.93600
   R10        2.69085  -0.02328   0.00000  -0.05745  -0.05734   2.63351
   R11        2.28220   0.01160   0.00000   0.01112   0.01112   2.29332
   R12        2.08699  -0.00657   0.00000  -0.01801  -0.01801   2.06898
   R13        2.08719  -0.00882   0.00000  -0.02419  -0.02419   2.06300
   R14        2.08744  -0.00885   0.00000  -0.02429  -0.02429   2.06315
   R15        2.79017  -0.01694   0.00000  -0.04430  -0.04430   2.74587
   R16        2.12894  -0.01896   0.00000  -0.05550  -0.05550   2.07344
   R17        2.84257   0.00852   0.00000   0.02629   0.02622   2.86879
   R18        2.91040   0.00073   0.00000   0.00229   0.00229   2.91269
   R19        2.12637  -0.01717   0.00000  -0.05006  -0.05006   2.07632
   R20        2.84648   0.00809   0.00000   0.02516   0.02506   2.87153
   R21        2.89595   0.00712   0.00000   0.02192   0.02192   2.91787
   R22        2.05782  -0.00087   0.00000  -0.00227  -0.00227   2.05556
   R23        2.52172   0.00732   0.00000   0.01405   0.01390   2.53561
   R24        2.05698  -0.00144   0.00000  -0.00377  -0.00377   2.05321
   R25        2.07040   0.00038   0.00000   0.00103   0.00103   2.07143
   R26        2.07365  -0.00120   0.00000  -0.00321  -0.00321   2.07043
   R27        2.08414  -0.01252   0.00000  -0.03419  -0.03419   2.04995
   R28        2.08603  -0.00639   0.00000  -0.01750  -0.01750   2.06852
   R29        2.10502  -0.02176   0.00000  -0.06139  -0.06139   2.04363
   R30        2.74754  -0.00240   0.00000  -0.00585  -0.00585   2.74168
   R31        2.80362   0.01020   0.00000   0.02727   0.02727   2.83089
   R32        2.28760   0.00519   0.00000   0.00504   0.00504   2.29263
   R33        2.60822  -0.01073   0.00000  -0.02050  -0.02050   2.58772
   R34        2.08529  -0.00540   0.00000  -0.01476  -0.01476   2.07053
   R35        2.08495  -0.00538   0.00000  -0.01471  -0.01471   2.07024
   R36        2.08386  -0.00805   0.00000  -0.02196  -0.02196   2.06190
    A1        1.88691   0.00452   0.00000   0.01747   0.01741   1.90432
    A2        2.23783  -0.00522   0.00000  -0.01917  -0.01923   2.21859
    A3        2.15840   0.00071   0.00000   0.00188   0.00182   2.16022
    A4        1.83952  -0.00632   0.00000  -0.01904  -0.01906   1.82046
    A5        1.88117  -0.00050   0.00000  -0.02954  -0.02915   1.85202
    A6        1.90529   0.00081   0.00000  -0.01364  -0.01377   1.89152
    A7        1.90052   0.00323   0.00000   0.03504   0.03432   1.93483
    A8        2.03762   0.00473   0.00000   0.02291   0.02330   2.06092
    A9        1.89397  -0.00232   0.00000  -0.00070  -0.00214   1.89183
   A10        1.84287  -0.00649   0.00000  -0.01919  -0.01915   1.82372
   A11        1.89960   0.00277   0.00000   0.03173   0.03091   1.93051
   A12        2.03189   0.00602   0.00000   0.03251   0.03286   2.06475
[...]
 2904,-0.00002069,0.00001138,-0.00000759,0.00002338,-0.00001875,-0.0000
 0319,0.00001851,0.00003169,-0.00000340,-0.00000642,-0.00000590,0.00000
 570,-0.00000665,-0.00000071,0.00000208,0.00000369,-0.00000284,0.000000
 77,-0.00012699,0.00001538,0.00003713,-0.00007459,-0.00003657,0.0000203
 5,-0.00010552,0.00003677,0.00002195,-0.00099866,0.00001482,-0.00067048
 ,0.00023537,0.00017029,-0.00019277,0.00001709,0.00000032,-0.00000172,-
 0.00000893,0.00001075,-0.00000304,0.00000017,-0.00000624,0.00005031,-0
 .00001612,0.00001383,0.00001167,0.00000493,0.00003564,-0.00012797,0.00
 002155,0.00001720,-0.00000877,-0.00001765,-0.00001262,-0.00000601,-0.0
 0000427,0.00000927,-0.00001178,0.00000218,0.00000473,0.00000568,0.0000
 0726,-0.00000739,0.00000337,0.00095025,-0.00104806,0.00498223,0.000440
 06,-0.00051564,0.00005084,0.00028889,0.00019650,0.00030677,-0.04728797
 ,-0.00541205,-0.11788692,-0.02805636,-0.00742725,0.51975401,-0.0000013
 9,-0.00001433,-0.00000234,-0.00000090,-0.00001594,-0.00000687,-0.00005
 911,-0.00002107,0.00005915,0.00001415,0.00001328,-0.00003318,-0.000002
 37,0.00000413,0.00000251,0.00001540,-0.00000269,0.00000553,-0.00000153
 ,0.00000272,-0.00000093,-0.00000198,-0.00000106,0.00000085,-0.00000081
 ,-0.00000078,0.00000074,0.00000052,0.00000033,-0.00000009,-0.00001880,
 0.00000606,0.00000879,-0.00001086,-0.00000090,0.00001303,-0.00000542,0
 .00000813,0.00000476,-0.00014045,0.00003171,-0.00016900,0.00007020,0.0
 0002453,-0.00005639,-0.00001025,-0.00002415,-0.00001087,0.00000341,0.0
 0000068,0.00000525,0.00001938,0.00002881,0.00006431,-0.00000374,0.0000
 0960,0.00000159,0.00000288,0.00002388,-0.00014174,-0.00006148,-0.00000
 508,0.00008682,0.00001463,0.00000321,0.00000837,-0.00000060,-0.0000044
 8,0.00000574,-0.00000141,0.00000463,-0.00000198,-0.00000168,-0.0000027
 1,0.00000068,0.00001461,-0.00032299,0.00089906,0.00007621,-0.00009255,
 0.00004780,0.00007236,0.00004697,0.00006984,0.01141394,-0.00700942,-0.
 02898996,-0.06242354,0.02218768,0.06102607,0.06548524,-0.00000677,0.00
 002663,-0.00000516,-0.00000530,0.00000022,0.00000204,-0.00000013,0.000
 00832,-0.00000809,-0.00002279,0.00002312,0.00000161,0.00000142,-0.0000
 0032,0.00000099,-0.00000127,-0.00000171,0.00000237,0.00000075,-0.00000
 096,-0.00000167,-0.00000114,0.00000105,0.00000064,0.00000039,-0.000000
 11,0.00000058,-0.00000117,-0.00000020,-0.00000087,0.00001534,-0.000020
 94,-0.00000031,0.00001258,-0.00001877,0.00001306,0.00000973,-0.0000119
 2,-0.00000051,0.00000153,0.00000754,-0.00000180,0.00001839,-0.00000025
 ,-0.00003024,0.00000346,0.00000225,-0.00000281,0.00000198,-0.00000222,
 0.00000202,0.00000154,-0.00001547,0.00001328,0.00000630,-0.00000041,-0
 .00000657,-0.00004503,-0.00000409,-0.00000279,0.00000500,0.00003846,0.
 00000148,0.00000550,0.00000360,0.00000110,-0.00000247,-0.00000335,0.00
 000119,0.00000338,-0.00000536,-0.00000339,-0.00000022,0.00000497,0.000
 00413,-0.00034098,-0.00001996,0.00000828,0.00009535,-0.00005910,0.0000
 4552,0.00001726,0.00001332,0.00003715,0.00094302,-0.00487784,-0.007298
 91,0.02268858,-0.06351574,-0.07117318,-0.02080786,0.06637633,0.0000012
 3,-0.00001854,-0.00000110,-0.00000199,-0.00000859,-0.00000679,-0.00002
 955,0.00000589,0.00004153,0.00001984,-0.00001096,-0.00001710,-0.000002
 64,0.00000255,0.00000163,0.00000941,-0.00000186,0.00000421,-0.00000073
 ,0.00000192,-0.00000084,-0.00000076,-0.00000077,0.00000050,-0.00000053
 ,-0.00000059,0.00000024,0.00000067,0.00000030,-0.00000005,-0.00001786,
 0.00001387,0.00000445,-0.00001335,0.00001367,0.00000714,-0.00000796,0.
 00000988,0.00000463,-0.00012433,0.00001129,-0.00011083,0.00004029,0.00
 004010,-0.00004379,-0.00000838,-0.00001593,-0.00000952,0.00000153,0.00
 000164,0.00000275,0.00000719,0.00002377,0.00003005,-0.00000698,0.00000
 342,0.00000626,-0.00000318,-0.00001227,-0.00009062,-0.00003238,-0.0000
 0097,0.00005006,0.00000545,0.00000094,0.00000603,0.00000268,-0.0000017
 5,0.00000317,-0.00000317,0.00000598,0.00000106,-0.00000170,-0.00000309
 ,-0.00000379,-0.00049708,-0.00003707,0.00055102,0.00017143,-0.00002996
 ,0.00011196,0.00002246,0.00001855,0.00002749,0.00643966,-0.00561400,-0
 .01567967,0.06219510,-0.07002454,-0.27828084,-0.06728107,0.07792256,0.
 29959809,0.00006017,0.00002030,-0.00001990,-0.00000240,-0.00003576,0.0
 0000017,-0.00006813,-0.00009133,0.00012096,0.00001982,0.00016891,-0.00
 007526,-0.00000372,0.00000379,-0.00000184,0.00003059,0.00001285,0.0000
 1348,0.00000886,0.00001894,-0.00000330,-0.00000541,-0.00000280,0.00000
 371,-0.00000442,-0.00000164,0.00000208,-0.00000038,-0.00000231,-0.0000
 0027,-0.00005256,-0.00004698,0.00002868,-0.00000374,-0.00010403,0.0000
 2179,-0.00005289,0.00000152,0.00001241,-0.00003727,0.00005388,-0.00015
 651,0.00000007,-0.00000137,0.00003364,0.00001718,0.00000681,-0.0000020
 7,-0.00000666,0.00000346,0.00000075,-0.00000120,-0.00000557,0.00003432
 ,-0.00000373,0.00001693,0.00000322,-0.00002628,-0.00006753,-0.00006285
 ,0.00001712,0.00001529,-0.00000483,0.00001267,0.00000018,-0.00002230,-
 0.00001077,0.00000956,-0.00000270,-0.00000774,0.00000618,0.00000905,-0
 .00001186,-0.00001797,0.00001380,0.00082897,0.00117785,0.00007983,-0.0
 0017471,-0.00002885,-0.00012445,-0.00045243,-0.00003675,-0.00025200,-0
 .01393374,0.02448161,0.00248182,-0.14196823,0.12845929,-0.00623672,-0.
 00421945,0.00435186,-0.00060103,0.15238908,-0.00001452,-0.00000005,0.0
 0000322,0.00000559,0.00000486,-0.00000109,0.00001092,0.00000317,-0.000
 01377,-0.00001260,-0.00001091,0.00000780,0.00000125,-0.00000072,0.0000
 0116,-0.00000196,0.00000082,0.00000040,-0.00000379,-0.00000400,0.00000
 079,0.00000047,0.00000062,-0.00000072,0.00000088,-0.00000041,-0.000000
 02,-0.00000055,0.00000066,-0.00000015,0.00001199,0.00000134,-0.0000031
 4,0.00000654,0.00000514,-0.00000038,0.00001373,-0.00000138,-0.00000189
 ,0.00008933,0.00000506,0.00002862,0.00000367,-0.00001331,0.00000378,-0
 .00000193,-0.00000606,-0.00000237,0.00000163,-0.00000028,0.00000061,0.
 00000173,0.00001229,0.00000296,-0.00000270,-0.00000044,0.00000177,0.00
 000094,0.00000657,-0.00001094,-0.00000551,-0.00000764,0.00000885,0.000
 00186,0.00000365,0.00000170,0.00000195,-0.00000040,0.00000246,-0.00000
 368,0.00000295,0.00000117,-0.00000151,-0.00000444,-0.00000254,-0.00047
 403,0.00048723,-0.00041533,0.00007449,-0.00000413,0.00003325,-0.000117
 43,0.00001708,-0.00005193,-0.00654819,0.00474599,-0.00068267,0.1351310
 9,-0.23579399,0.00862672,0.00282170,-0.00523396,0.00113676,-0.14328199
 ,0.24960148,0.00002834,-0.00000818,-0.00000668,0.00000360,-0.00001991,
 -0.00000144,-0.00007060,-0.00008438,0.00009813,0.00000681,0.00007736,-
 0.00004926,-0.00000248,0.00000366,-0.00000010,0.00001822,0.00000755,0.
 00000900,0.00000207,0.00001018,0.00000068,-0.00000236,-0.00000233,0.00
 000125,-0.00000253,-0.00000083,0.00000105,0.00000067,-0.00000101,0.000
 00069,-0.00003699,-0.00001387,0.00001673,-0.00000452,-0.00004163,0.000
 00379,-0.00002860,0.00000800,0.00000556,-0.00014989,0.00003953,-0.0002
 1468,-0.00000130,-0.00000536,0.00001997,0.00000319,-0.00000479,-0.0000
 0387,-0.00000199,0.00000177,0.00000219,0.00000366,0.00001223,0.0000264
 4,-0.00000566,0.00000867,0.00000378,-0.00000332,-0.00002476,-0.0000748
 1,-0.00001596,-0.00000356,0.00002238,0.00001075,0.00000034,-0.00000781
 ,-0.00000480,0.00000353,0.00000042,-0.00000501,0.00000519,0.00000416,-
 0.00000590,-0.00000967,0.00000592,-0.00022459,0.00053299,0.00075423,0.
 00001493,-0.00000225,-0.00000766,-0.00020074,0.00000109,-0.00010332,-0
 .00874841,0.01579501,-0.00185376,-0.00404763,0.00520252,-0.04785504,0.
 01720774,-0.02418518,0.00384762,0.00843930,-0.00726920,0.04759414,0.00
 001109,-0.00002027,0.00000094,-0.00000031,-0.00000423,-0.00000283,0.00
 003788,0.00003071,-0.00001016,0.00004578,-0.00002862,-0.00000187,-0.00
 000392,0.00000100,-0.00000128,0.00000415,0.00000093,-0.00000313,0.0000
 0165,0.00000240,-0.00000161,-0.00000016,-0.00000074,0.00000046,-0.0000
 0072,-0.00000020,0.00000003,0.00000097,0.00000005,0.00000013,-0.000020
 13,0.00002165,0.00000039,-0.00002439,0.00001934,0.00000035,-0.00001457
 ,0.00001112,0.00000313,0.00019591,-0.00001831,0.00008361,0.00002913,0.
 00001920,-0.00000771,0.00000604,-0.00000703,-0.00000173,-0.00000140,0.
 00000394,-0.00000226,0.00000467,0.00002045,0.00001689,-0.00000736,0.00
 000460,0.00000566,-0.00000218,-0.00001531,-0.00002272,0.00001032,-0.00
 001504,-0.00000408,-0.00000946,0.00000085,-0.00000079,0.00000197,0.000
 00416,-0.00000213,-0.00000366,0.00000461,0.00000475,-0.00000005,-0.000
 00973,-0.00000441,0.00021826,0.00025795,-0.00049526,0.00001132,0.00002
 682,0.00008229,-0.00008092,-0.00001797,-0.00006956,-0.01124600,-0.0218
 2285,0.01656051,-0.11363226,-0.09946150,0.05634423,-0.00384508,-0.0054
 1380,0.00294947,0.01163264,0.01384067,-0.00909246,0.11855038,0.0000000
 1,-0.00000304,0.00000133,0.00000016,0.00000793,0.00000202,0.00003358,0
 .00002805,-0.00003719,0.00000950,-0.00003387,0.00002093,0.00000063,-0.
 00000021,-0.00000017,-0.00000435,-0.00000225,0.00000171,0.00000056,-0.
 00000154,-0.00000001,0.00000109,0.00000025,-0.00000037,0.00000011,0.00
 000064,-0.00000027,0.00000065,-0.00000010,0.00000034,0.00000257,0.0000
 0826,-0.00000540,-0.00000604,0.00001787,-0.00000692,0.00000093,0.00000
 013,-0.00000209,0.00014362,-0.00001693,0.00010805,-0.00000089,0.000000
 33,-0.00000125,-0.00000075,0.00000131,-0.00000017,0.00000014,-0.000001
 13,-0.00000019,0.00000008,-0.00001193,0.00000018,0.00000288,-0.0000013
 3,-0.00000243,-0.00001302,0.00001339,0.00002051,-0.00000127,0.00000027
 ,-0.00000108,0.00000089,0.00000077,0.00000049,-0.00000163,-0.00000054,
 -0.00000034,0.00000141,-0.00000221,-0.00000143,0.00000053,0.00000269,0
 .00000199,-0.00028649,0.00018238,-0.00069117,-0.00002256,0.00002769,0.
 00005002,-0.00002319,-0.00000114,0.00001802,-0.00250351,-0.00736259,0.
 00061357,-0.10041422,-0.20285595,0.09157929,0.00552943,0.00769761,-0.0
 0399519,-0.01361331,-0.01580951,0.01021239,0.11135008,0.21680607,-0.00
 000299,0.00001341,-0.00000209,-0.00000266,-0.00000226,0.00000224,0.000
 01882,0.00001045,-0.00000853,-0.00000488,0.00001066,-0.00000028,-0.000
 00014,0.00000046,0.00000036,0.00000154,0.00000177,-0.00000209,0.000000
 16,-0.00000040,-0.00000015,-0.00000068,0.00000033,0.00000009,0.0000001
 5,0.00000008,0.00000046,-0.00000054,-0.00000013,-0.00000025,0.00000720
 ,-0.00000874,0.00000029,0.00000226,-0.00001057,0.00000456,0.00000406,-
 0.00000588,-0.00000110,0.00007934,0.00000495,0.00004462,0.00000661,-0.
 00000606,-0.00000961,0.00000135,-0.00000204,-0.00000125,0.00000090,-0.
 00000023,0.00000047,0.00000213,0.,0.00001512,0.00000299,0.00000279,-0.
 00000398,-0.00002032,-0.00001249,-0.00002131,-0.00000758,0.00001261,0.
 00000414,0.00000220,0.00000333,0.00000155,-0.00000290,-0.00000112,0.00
 000039,0.00000208,-0.00000310,-0.00000200,0.00000037,0.00000046,0.0000
 0275,0.00024630,-0.00001453,-0.00022184,-0.00001530,-0.00000462,0.0000
 1865,-0.00001875,-0.00000054,-0.00001769,-0.00949298,-0.01558546,0.009
 99656,0.05617301,0.09073748,-0.09111837,0.01496595,0.02377399,-0.01176
 624,-0.00057337,-0.00075679,-0.00095047,-0.05998075,-0.09733723,0.0990
 4520,0.00042772,-0.00017949,-0.00010028,-0.00017782,-0.00022390,-0.000
 13599,0.00010511,0.00066167,0.00017374,0.00091950,-0.00003118,-0.00018
 696,-0.00008379,0.00006071,-0.00001936,0.00006783,-0.00004845,0.000048
 03,0.00007383,0.00011703,-0.00004091,-0.00001692,-0.00002412,0.0000206
 6,-0.00002751,-0.00000279,0.00000816,0.00001942,-0.00001009,0.00000530
 ,-0.00052145,0.00017782,0.00009693,-0.00046532,0.00000325,0.00002087,-
 0.00046998,0.00015541,0.00010167,-0.00030289,-0.00196540,0.00075495,-0
 .00001758,0.00170338,-0.00091693,0.00005007,-0.00005201,-0.00002227,-0
 .00003544,0.00003555,-0.00000517,0.00008739,0.00009871,0.00046875,-0.0
 0013675,0.00008916,0.00007369,-0.00029644,0.00032385,-0.00084940,0.000
 04566,-0.00009093,0.00012005,-0.00000185,-0.00004188,-0.00006794,-0.00
 003306,0.00004340,-0.00003069,-0.00001084,0.00003653,0.00003867,-0.000
 01973,-0.00004936,0.00003218,0.00029852,0.00008537,0.00070490,-0.00083
 334,0.00150816,0.00154552,0.00067245,0.00109433,0.00173931,-0.15026647
 ,-0.13537994,-0.07811400,0.00032295,-0.03131951,-0.02226790,-0.0052487
 9,-0.00289784,-0.00272253,0.00254220,-0.00044603,0.00156491,-0.0021521
 9,-0.00186958,-0.00197360,0.12925084,-0.00053911,-0.00055370,0.0002275
 4,0.00003492,0.00033649,-0.00009492,0.00090196,0.00134190,-0.00134467,
 0.00035952,-0.00237130,0.00084547,0.00002156,-0.00002052,0.00002910,-0
 .00030513,-0.00015132,-0.00001217,-0.00007837,-0.00016944,-0.00001545,
 0.00005788,0.00002154,-0.00002939,0.00003606,0.00001117,-0.00002049,0.
 00001997,0.00002685,0.00000313,0.00023338,0.00083790,-0.00028112,-0.00
 031353,0.00151528,-0.00018577,0.00039253,0.00015419,-0.00008212,0.0007
 8656,-0.00080701,0.00239484,0.00113340,0.00019712,-0.00088715,-0.00024
 640,-0.00023687,-0.00003284,0.00007870,-0.00001130,0.00001691,0.000063
 95,0.00042184,-0.00024613,-0.00002506,-0.00014838,0.00002504,0.0002752
 2,0.00080601,0.00035645,-0.00008164,-0.00031000,0.00024491,-0.00007723
 ,0.00006212,0.00024836,0.00012435,-0.00009685,0.00005300,0.00002786,0.
 00000527,-0.00005802,0.00006036,0.00010384,-0.00016103,-0.01797448,-0.
 00244050,-0.00976398,0.00334397,-0.00053071,0.00268910,0.00134496,0.00
 055622,0.00103091,-0.15158543,-0.55472584,-0.21412508,-0.01055972,-0.0
 1557419,-0.01743529,-0.00280442,-0.00006565,0.00021631,-0.00083715,0.0
 0127885,0.00019926,-0.00036555,0.00120872,-0.00096728,0.14116733,0.674
 45960,-0.00008860,-0.00010381,0.00003939,0.00004524,0.00008634,0.00008
 434,0.00044307,0.00011556,-0.00050353,0.00010842,-0.00048220,0.0001848
 7,0.00004138,-0.00002848,0.00000599,0.00003933,-0.00002234,0.00008308,
 -0.00000900,-0.00003909,-0.00002753,0.00001012,0.00000783,-0.00000036,
 0.00000777,-0.00000065,-0.00000504,0.00000105,0.00000655,-0.00000501,0
 .00004522,0.00016331,-0.00006383,-0.00005996,0.00030476,0.00008190,0.0
 0007692,0.00002778,-0.00000793,0.00136765,0.00069700,0.00095500,0.0003
 0866,-0.00049298,-0.00029401,-0.00006510,-0.00004003,-0.00001385,0.000
 01295,-0.00001081,0.00000894,0.00001020,0.00000998,-0.00000720,0.00002
 577,0.00000764,-0.00000546,-0.00032698,0.00005425,0.00023715,-0.000073
 94,0.00002162,0.00009167,0.00004616,0.00000741,0.00001729,0.00002087,-
 0.00002509,0.00002045,-0.00001054,0.00001075,0.00000284,-0.00002108,0.
 00001972,-0.00001957,-0.00237154,0.00130061,-0.00746823,0.00038198,0.0
 0149662,0.00160748,0.00078354,0.00083157,0.00168255,-0.08208019,-0.206
 87116,-0.17821868,-0.01676034,-0.02934046,0.00808211,0.00102621,0.0001
 0262,0.00034919,0.00109887,0.00023682,0.00037209,-0.00480910,-0.001237
 22,-0.00462681,0.09421345,0.25326373,0.15137126,0.00175940,-0.00021877
 ,-0.00046400,0.00001836,-0.00148719,0.00001371,-0.00473547,-0.00587207
 ,0.00774457,0.00032335,0.00563501,-0.00360459,-0.00017741,0.00018860,-
 0.00005709,0.00137383,0.00043223,0.00034230,0.00024551,0.00069847,-0.0
 0000060,-0.00018345,-0.00012536,0.00011217,-0.00015294,-0.00005321,0.0
 0006571,0.00002780,-0.00006336,0.00000521,-0.00225803,-0.00109577,0.00
 110131,-0.00013228,-0.00289232,0.00068119,-0.00181849,0.00039871,0.000
 40258,-0.03912080,-0.00220841,-0.02017073,0.00191910,0.00044555,-0.000
 17246,0.00035190,0.00002672,-0.00021559,-0.00013503,0.00018232,0.00007
 598,-0.00026725,0.00014963,0.00043758,-0.00025935,0.00021040,0.0002202
 8,0.00032046,-0.00148707,-0.00226745,-0.00045480,0.00062322,0.00020292
 ,0.00010221,0.00001715,-0.00017143,-0.00019939,0.00018077,-0.00010132,
 -0.00012305,0.00019003,0.00016747,-0.00007814,-0.00049238,0.00016719,-
 0.13050737,-0.02224056,-0.04815316,-0.01000316,-0.00554290,-0.01053503
 ,-0.02312782,-0.00092658,-0.01495859,-0.15921226,0.06128255,-0.0344347
 7,-0.03141851,0.03313794,-0.01413514,-0.00114329,0.00136340,-0.0005092
 6,-0.00651165,-0.00110399,-0.00464845,0.00028259,0.00168196,0.00057999
 ,0.02623476,0.03532893,0.00656163,0.37906071,-0.00067948,-0.00041725,0
 .00021251,-0.00039955,-0.00012745,-0.00002982,-0.00127755,0.00124832,-
 0.00007496,-0.00016436,-0.00142521,0.00062147,-0.00004809,0.00000418,-
 0.00000791,-0.00011272,-0.00013553,0.00047328,-0.00010114,-0.00012103,
 0.00000415,0.00004529,0.00001932,-0.00002800,0.00002461,0.00000360,-0.
 00001413,0.00001519,0.00002500,-0.00000007,0.00018823,0.00059752,-0.00
 020495,-0.00006468,0.00116707,-0.00010979,0.00034463,0.00013726,-0.000
 05290,-0.00955565,0.00014298,-0.00501299,0.00174863,0.00084369,-0.0020
 2720,-0.00035500,-0.00029767,0.00007079,0.00009773,0.00004343,-0.00000
 736,-0.00008098,0.00061847,-0.00029238,-0.00002721,-0.00018339,0.00001
 910,0.00133977,0.00079060,0.00032172,0.00005555,-0.00030517,0.00030482
 ,-0.00037659,-0.00007546,0.00038448,0.00020640,-0.00013303,0.00001522,
 0.00016430,-0.00006029,-0.00014551,0.00024012,0.00030656,-0.00029701,-
 0.00483785,-0.09251234,-0.01423710,-0.01785165,0.00069567,-0.00752073,
 0.03171120,0.00718260,0.01831648,0.06042716,-0.17744643,0.00028077,0.0
 0708677,0.00306299,0.00240455,0.00038293,-0.00034508,0.00034668,-0.000
 63389,0.00071388,-0.00044435,0.00158065,0.00009989,0.00014671,0.027270
 84,-0.10513133,-0.02007817,-0.09636358,0.36101362,0.00025619,0.0000670
 0,-0.00006595,0.00005957,-0.00021766,0.00019299,0.00251929,0.00092262,
 -0.00069660,0.00070821,0.00041376,0.00024863,0.00008945,-0.00001461,0.
 00002940,0.00069305,0.00031030,0.00026739,0.00003843,0.00004657,-0.000
 08801,-0.00000494,-0.00000524,0.00001404,-0.00001452,-0.00000920,0.000
 00288,-0.00000171,-0.00000567,-0.00000084,-0.00017244,-0.00003741,0.00
 000989,-0.00016612,-0.00027188,0.00006093,-0.00023289,0.00003073,0.000
 05726,0.00624242,-0.00171290,0.01174834,-0.00086518,-0.00065887,0.0009
 7752,-0.00016921,-0.00028582,0.00005336,-0.00001179,0.00001594,0.00005
 759,0.00023295,0.00085177,0.00046916,0.00004647,0.00017723,-0.00003290
 ,0.00130512,-0.00122642,-0.00122453,0.00020310,0.00012135,0.00122842,0
 .00032229,0.00008305,-0.00009143,-0.00010683,-0.00000932,0.00006781,-0
 .00008634,0.00007288,0.00006838,-0.00011733,-0.00020008,0.00007382,-0.
 04156119,-0.02192082,-0.09674135,-0.03346688,-0.00303666,-0.01648657,-
 0.01597851,-0.00270460,-0.00768642,-0.03549069,0.00188271,-0.08060915,
 -0.02109616,0.01616958,0.00276715,0.00118363,0.00078687,0.00136205,-0.
 00425848,-0.00088591,-0.00166133,-0.00153901,0.00068930,-0.00038337,0.
 00572219,-0.01610116,0.02598942,0.13571787,0.02666259,0.16002200\\-0.0
 0000075,-0.00000264,0.00000371,-0.00000163,-0.00000555,0.00000090,-0.0
 0000217,0.00000025,-0.00000009,0.00000177,-0.00000261,0.00000229,-0.00
 000403,-0.00000149,0.00000368,-0.00000133,0.00000018,0.00000087,0.0000
 0358,-0.00000502,0.00000498,0.00000537,-0.00000606,0.00000455,0.000003
 42,-0.00000643,0.00000566,0.00000507,-0.00000503,0.00000411,0.00000224
 ,-0.00000441,0.00000257,0.00000440,-0.00000206,0.00000032,-0.00000076,
 -0.00000532,0.00000630,-0.00000003,-0.00000011,0.00000100,0.00000205,0
 .00000159,-0.00000254,-0.00000094,0.00000141,0.00000498,-0.00000185,-0
 .00000393,0.00000409,-0.00000083,-0.00000159,0.00000002,0.00000102,-0.
 00000142,0.00000162,0.00000112,0.00000017,-0.00000051,0.00000274,0.000
 00078,-0.00000159,-0.00000548,-0.00000156,0.00000199,-0.00000655,-0.00
 000134,0.00000367,-0.00000497,-0.00000057,0.00000236,-0.00000519,0.000
 00098,0.00000086,0.00000120,0.00000413,-0.00000391,-0.00000246,0.00000
 330,-0.00000297,-0.00000344,0.00000223,-0.00000150,0.00000120,0.000004
 36,-0.00000619,0.00000231,0.00000576,-0.00000605,0.00000280,0.00000621
 ,-0.00000766,0.00000313,0.00000786,-0.00000916,-0.00000018,0.00000788,
 -0.00000812,0.00000202,0.00000521,-0.00000584,-0.00000282,0.00000479,-
 0.00000441\\\@


 ADVERTISING--  HE WHO HAS SOMETHING TO SELL AND GOES AND WHISPERS
                IN A WELL, IS NOT SO APT TO GET THE DOLLARS AS HE
                WHO CLIMBS A TREE AND HOLLERS.

                   -- FROM THE BACK OF A SUGAR PACKET
 Job cpu time:       0 days  3 hours 32 minutes 20.8 seconds.
 File lengths (MBytes):  RWF=    658 Int=      0 D2E=      0 Chk=     24 Scr=      1
 Normal termination of Gaussian 09 at Thu Aug 27 19:43:32 2020.
