 Entering Gaussian System, Link 0=g09
 Input=b3lyp_diene_pm6_cpcmtoluene.com
 Output=b3lyp_diene_pm6_cpcmtoluene.log
 Initial command:
 /apps/applications/gaussian/G09.D01/2/default/g09/l1.exe "/local/713525.1.40core-192G.q/Gau-345292.inp" -scrdir="/local/713525.1.40core-192G.q/"
 Entering Link 1 = /apps/applications/gaussian/G09.D01/2/default/g09/l1.exe PID=    345293.
  
 Copyright (c) 1988,1990,1992,1993,1995,1998,2003,2009,2013,
            Gaussian, Inc.  All Rights Reserved.
  
 This is part of the Gaussian(R) 09 program.  It is based on
 the Gaussian(R) 03 system (copyright 2003, Gaussian, Inc.),
 the Gaussian(R) 98 system (copyright 1998, Gaussian, Inc.),
 the Gaussian(R) 94 system (copyright 1995, Gaussian, Inc.),
 the Gaussian 92(TM) system (copyright 1992, Gaussian, Inc.),
 the Gaussian 90(TM) system (copyright 1990, Gaussian, Inc.),
 the Gaussian 88(TM) system (copyright 1988, Gaussian, Inc.),
 the Gaussian 86(TM) system (copyright 1986, Carnegie Mellon
 University), and the Gaussian 82(TM) system (copyright 1983,
 Carnegie Mellon University). Gaussian is a federally registered
 trademark of Gaussian, Inc.
  
 This software contains proprietary and confidential information,
 including trade secrets, belonging to Gaussian, Inc.
  
 This software is provided under written license and may be
 used, copied, transmitted, or stored only in accord with that
 written license.
  
 The following legend is applicable only to US Government
 contracts under FAR:
  
                    RESTRICTED RIGHTS LEGEND
  
 Use, reproduction and disclosure by the US Government is
 subject to restrictions as set forth in subparagraphs (a)
 and (c) of the Commercial Computer Software - Restricted
 Rights clause in FAR 52.227-19.
  
 Gaussian, Inc.
 340 Quinnipiac St., Bldg. 40, Wallingford CT 06492
  
  
 ---------------------------------------------------------------
 Warning -- This program may not be used in any manner that
 competes with the business of Gaussian, Inc. or will provide
 assistance to any competitor of Gaussian, Inc.  The licensee
 of this program is prohibited from giving any competitor of
 Gaussian, Inc. access to this program.  By using this program,
 the user acknowledges that Gaussian, Inc. is engaged in the
 business of creating and licensing software in the field of
 computational chemistry and represents and warrants to the
 licensee that it is not a competitor of Gaussian, Inc. and that
 it will not use this program in any manner prohibited above.
 ---------------------------------------------------------------
  

 Cite this work as:
 Gaussian 09, Revision D.01,
 M. J. Frisch, G. W. Trucks, H. B. Schlegel, G. E. Scuseria, 
 M. A. Robb, J. R. Cheeseman, G. Scalmani, V. Barone, B. Mennucci, 
 G. A. Petersson, H. Nakatsuji, M. Caricato, X. Li, H. P. Hratchian, 
 A. F. Izmaylov, J. Bloino, G. Zheng, J. L. Sonnenberg, M. Hada, 
 M. Ehara, K. Toyota, R. Fukuda, J. Hasegawa, M. Ishida, T. Nakajima, 
 Y. Honda, O. Kitao, H. Nakai, T. Vreven, J. A. Montgomery, Jr., 
 J. E. Peralta, F. Ogliaro, M. Bearpark, J. J. Heyd, E. Brothers, 
 K. N. Kudin, V. N. Staroverov, T. Keith, R. Kobayashi, J. Normand, 
 K. Raghavachari, A. Rendell, J. C. Burant, S. S. Iyengar, J. Tomasi, 
 M. Cossi, N. Rega, J. M. Millam, M. Klene, J. E. Knox, J. B. Cross, 
 V. Bakken, C. Adamo, J. Jaramillo, R. Gomperts, R. E. Stratmann, 
 O. Yazyev, A. J. Austin, R. Cammi, C. Pomelli, J. W. Ochterski, 
 R. L. Martin, K. Morokuma, V. G. Zakrzewski, G. A. Voth, 
 P. Salvador, J. J. Dannenberg, S. Dapprich, A. D. Daniels, 
 O. Farkas, J. B. Foresman, J. V. Ortiz, J. Cioslowski, 
 and D. J. Fox, Gaussian, Inc., Wallingford CT, 2013.
 
 ******************************************
 Gaussian 09:  ES64L-G09RevD.01 24-Apr-2013
                27-Aug-2020 
 ******************************************
 %nprocshared=4
 Will use up to    4 processors via shared memory.
 %chk=b3lyp_diene_pm6_cpcmtoluene.chk
 ----------------------------------------------------------------------
 # opt freq b3lyp/6-31+g(d,p) scrf=(cpcm,solvent=toluene) geom=connecti
 vity empiricaldispersion=gd3
 ----------------------------------------------------------------------
 1/14=-1,18=20,19=15,26=3,38=1,57=2/1,3;
 2/9=110,12=2,17=6,18=5,40=1/2;
 3/5=1,6=6,7=111,11=2,16=1,25=1,30=1,70=2101,71=1,72=13,74=-5,124=31/1,2,3;
 4//1;
 5/5=2,38=5,53=13/2;
 6/7=2,8=2,9=2,10=2,28=1/1;
 7//1,2,3,16;
 1/14=-1,18=20,19=15,26=3/3(2);
 2/9=110/2;
 99//99;
 2/9=110/2;
 3/5=1,6=6,7=111,11=2,16=1,25=1,30=1,70=2105,71=1,72=13,74=-5,124=31/1,2,3;
 4/5=5,16=3,69=1/1;
 5/5=2,38=5,53=13/2;
 7//1,2,3,16;
 1/14=-1,18=20,19=15,26=3/3(-5);
 2/9=110/2;
 6/7=2,8=2,9=2,10=2,19=2,28=1/1;
 99/9=1/99;
 -------------------
 Title Card Required
 -------------------
 Symbolic Z-matrix:
 Charge =  0 Multiplicity = 1
 C                     2.55892  -0.59435  -0.3305 
 H                     2.84627  -1.45295  -0.94318 
 C                     1.11455  -0.37387  -0.23877 
 H                     0.50812  -1.28837  -0.21303 
 C                     3.47704   0.15928   0.29073 
 H                     3.19364   1.00753   0.91818 
 C                     4.94268  -0.08744   0.20052 
 H                     5.37097  -0.29748   1.1922 
 H                     5.20223  -0.93583  -0.44703 
 H                     5.46936   0.7933   -0.1962 
 C                     0.53462   0.83221  -0.20262 
 H                     1.11011   1.75967  -0.24124 
 C                    -0.94111   1.05523  -0.1182 
 H                    -1.33409   1.53716  -1.03367 
 H                    -1.21538   1.6421    0.77892 
 C                    -2.92793  -0.40278   0.08946 
 C                    -3.78848   0.80822   0.06925 
 H                    -3.68734   1.38379  -0.86421 
 H                    -4.85551   0.53619   0.1534 
 H                    -3.57541   1.49326   0.90467 
 O                    -1.55755  -0.26628  -0.00029 
 O                    -3.29928  -1.55338   0.17928 
 

 GradGradGradGradGradGradGradGradGradGradGradGradGradGradGradGradGradGrad
 Berny optimization.
 Initialization pass.
                           ----------------------------
                           !    Initial Parameters    !
                           ! (Angstroms and Degrees)  !
 --------------------------                            --------------------------
 ! Name  Definition              Value          Derivative Info.                !
 --------------------------------------------------------------------------------
 ! R1    R(1,2)                  1.0932         estimate D2E/DX2                !
 ! R2    R(1,3)                  1.464          estimate D2E/DX2                !
 ! R3    R(1,5)                  1.3404         estimate D2E/DX2                !
 ! R4    R(3,4)                  1.0976         estimate D2E/DX2                !
 ! R5    R(3,11)                 1.3388         estimate D2E/DX2                !
 ! R6    R(5,6)                  1.0925         estimate D2E/DX2                !
 ! R7    R(5,7)                  1.489          estimate D2E/DX2                !
 ! R8    R(7,8)                  1.1004         estimate D2E/DX2                !
 ! R9    R(7,9)                  1.0984         estimate D2E/DX2                !
 ! R10   R(7,10)                 1.1002         estimate D2E/DX2                !
 ! R11   R(11,12)                1.0922         estimate D2E/DX2                !
 ! R12   R(11,13)                1.4949         estimate D2E/DX2                !
 ! R13   R(13,14)                1.1067         estimate D2E/DX2                !
 ! R14   R(13,15)                1.1066         estimate D2E/DX2                !
 ! R15   R(13,21)                1.463          estimate D2E/DX2                !
 ! R16   R(16,17)                1.4858         estimate D2E/DX2                !
 ! R17   R(16,21)                1.3801         estimate D2E/DX2                !
 ! R18   R(16,22)                1.2124         estimate D2E/DX2                !
 ! R19   R(17,18)                1.1013         estimate D2E/DX2                !
 ! R20   R(17,19)                1.1044         estimate D2E/DX2                !
 ! R21   R(17,20)                1.1012         estimate D2E/DX2                !
 ! A1    A(2,1,3)              114.3759         estimate D2E/DX2                !
 ! A2    A(2,1,5)              121.4166         estimate D2E/DX2                !
 ! A3    A(3,1,5)              124.1974         estimate D2E/DX2                !
 ! A4    A(1,3,4)              114.9044         estimate D2E/DX2                !
 ! A5    A(1,3,11)             124.3854         estimate D2E/DX2                !
 ! A6    A(4,3,11)             120.7057         estimate D2E/DX2                !
 ! A7    A(1,5,6)              121.6698         estimate D2E/DX2                !
 ! A8    A(1,5,7)              123.5697         estimate D2E/DX2                !
 ! A9    A(6,5,7)              114.7579         estimate D2E/DX2                !
 ! A10   A(5,7,8)              111.108          estimate D2E/DX2                !
 ! A11   A(5,7,9)              113.3467         estimate D2E/DX2                !
 ! A12   A(5,7,10)             111.1248         estimate D2E/DX2                !
 ! A13   A(8,7,9)              106.9711         estimate D2E/DX2                !
 ! A14   A(8,7,10)             106.9429         estimate D2E/DX2                !
 ! A15   A(9,7,10)             107.0144         estimate D2E/DX2                !
 ! A16   A(3,11,12)            122.399          estimate D2E/DX2                !
 ! A17   A(3,11,13)            124.3034         estimate D2E/DX2                !
 ! A18   A(12,11,13)           113.2958         estimate D2E/DX2                !
 ! A19   A(11,13,14)           111.6417         estimate D2E/DX2                !
 ! A20   A(11,13,15)           111.6902         estimate D2E/DX2                !
 ! A21   A(11,13,21)           106.6035         estimate D2E/DX2                !
 ! A22   A(14,13,15)           110.5901         estimate D2E/DX2                !
 ! A23   A(14,13,21)           108.0843         estimate D2E/DX2                !
 ! A24   A(15,13,21)           108.0168         estimate D2E/DX2                !
 ! A25   A(17,16,21)           119.5793         estimate D2E/DX2                !
 ! A26   A(17,16,22)           126.6652         estimate D2E/DX2                !
 ! A27   A(21,16,22)           113.7555         estimate D2E/DX2                !
 ! A28   A(16,17,18)           112.6011         estimate D2E/DX2                !
 ! A29   A(16,17,19)           110.9658         estimate D2E/DX2                !
 ! A30   A(16,17,20)           112.6231         estimate D2E/DX2                !
 ! A31   A(18,17,19)           106.3826         estimate D2E/DX2                !
 ! A32   A(18,17,20)           107.4664         estimate D2E/DX2                !
 ! A33   A(19,17,20)           106.4019         estimate D2E/DX2                !
 ! A34   A(13,21,16)           120.8624         estimate D2E/DX2                !
 ! D1    D(2,1,3,4)             35.832          estimate D2E/DX2                !
 ! D2    D(2,1,3,11)          -143.3984         estimate D2E/DX2                !
 ! D3    D(5,1,3,4)           -143.0227         estimate D2E/DX2                !
 ! D4    D(5,1,3,11)            37.7469         estimate D2E/DX2                !
 ! D5    D(2,1,5,6)           -178.9044         estimate D2E/DX2                !
 ! D6    D(2,1,5,7)              0.4741         estimate D2E/DX2                !
 ! D7    D(3,1,5,6)             -0.1268         estimate D2E/DX2                !
 ! D8    D(3,1,5,7)            179.2517         estimate D2E/DX2                !
 ! D9    D(1,3,11,12)            0.0899         estimate D2E/DX2                !
 ! D10   D(1,3,11,13)          179.5687         estimate D2E/DX2                !
 ! D11   D(4,3,11,12)         -179.0982         estimate D2E/DX2                !
 ! D12   D(4,3,11,13)            0.3806         estimate D2E/DX2                !
 ! D13   D(1,5,7,8)           -119.0783         estimate D2E/DX2                !
 ! D14   D(1,5,7,9)              1.413          estimate D2E/DX2                !
 ! D15   D(1,5,7,10)           121.9728         estimate D2E/DX2                !
 ! D16   D(6,5,7,8)             60.3393         estimate D2E/DX2                !
 ! D17   D(6,5,7,9)           -179.1694         estimate D2E/DX2                !
 ! D18   D(6,5,7,10)           -58.6097         estimate D2E/DX2                !
 ! D19   D(3,11,13,14)        -114.2983         estimate D2E/DX2                !
 ! D20   D(3,11,13,15)         121.2998         estimate D2E/DX2                !
 ! D21   D(3,11,13,21)           3.5282         estimate D2E/DX2                !
 ! D22   D(12,11,13,14)         65.2226         estimate D2E/DX2                !
 ! D23   D(12,11,13,15)        -59.1794         estimate D2E/DX2                !
 ! D24   D(12,11,13,21)       -176.9509         estimate D2E/DX2                !
 ! D25   D(11,13,21,16)       -179.58           estimate D2E/DX2                !
 ! D26   D(14,13,21,16)        -59.4333         estimate D2E/DX2                !
 ! D27   D(15,13,21,16)         60.2521         estimate D2E/DX2                !
 ! D28   D(21,16,17,18)         61.1254         estimate D2E/DX2                !
 ! D29   D(21,16,17,19)       -179.7517         estimate D2E/DX2                !
 ! D30   D(21,16,17,20)        -60.5895         estimate D2E/DX2                !
 ! D31   D(22,16,17,18)       -118.8598         estimate D2E/DX2                !
 ! D32   D(22,16,17,19)          0.2631         estimate D2E/DX2                !
 ! D33   D(22,16,17,20)        119.4253         estimate D2E/DX2                !
 ! D34   D(17,16,21,13)         -0.1428         estimate D2E/DX2                !
 ! D35   D(22,16,21,13)        179.8443         estimate D2E/DX2                !
 --------------------------------------------------------------------------------
 Trust Radius=3.00D-01 FncErr=1.00D-07 GrdErr=1.00D-06
 Number of steps in this run=    100 maximum allowed number of steps=    132.
 GradGradGradGradGradGradGradGradGradGradGradGradGradGradGradGradGradGrad

                          Input orientation:                          
 ---------------------------------------------------------------------
 Center     Atomic      Atomic             Coordinates (Angstroms)
 Number     Number       Type             X           Y           Z
 ---------------------------------------------------------------------
      1          6           0        2.558923   -0.594345   -0.330502
      2          1           0        2.846274   -1.452949   -0.943183
      3          6           0        1.114552   -0.373872   -0.238765
      4          1           0        0.508115   -1.288366   -0.213032
      5          6           0        3.477035    0.159280    0.290725
      6          1           0        3.193636    1.007526    0.918175
      7          6           0        4.942676   -0.087443    0.200520
      8          1           0        5.370969   -0.297480    1.192203
      9          1           0        5.202225   -0.935827   -0.447031
     10          1           0        5.469363    0.793301   -0.196199
     11          6           0        0.534615    0.832205   -0.202615
     12          1           0        1.110106    1.759665   -0.241237
     13          6           0       -0.941113    1.055226   -0.118200
     14          1           0       -1.334093    1.537162   -1.033671
     15          1           0       -1.215378    1.642096    0.778922
     16          6           0       -2.927929   -0.402781    0.089459
     17          6           0       -3.788479    0.808220    0.069252
     18          1           0       -3.687338    1.383788   -0.864214
     19          1           0       -4.855514    0.536191    0.153403
     20          1           0       -3.575412    1.493264    0.904674
     21          8           0       -1.557545   -0.266283   -0.000287
     22          8           0       -3.299284   -1.553381    0.179280
 ---------------------------------------------------------------------
                    Distance matrix (angstroms):
                    1          2          3          4          5
     1  C    0.000000
     2  H    1.093229   0.000000
     3  C    1.463978   2.158581   0.000000
     4  H    2.168243   2.455035   1.097601   0.000000
     5  C    1.340449   2.125952   2.479100   3.341248   0.000000
     6  H    2.127920   3.104714   2.751247   3.709821   1.092488
     7  C    2.494236   2.750921   3.863877   4.612870   1.488997
     8  H    3.211598   3.502723   4.491168   5.157896   2.146690
     9  H    2.667815   2.462537   4.131372   4.713142   2.172516
    10  H    3.227113   3.533302   4.508712   5.380298   2.146730
    11  C    2.479763   3.333787   1.338751   2.120762   3.058439
    12  H    2.765574   3.718588   2.133543   3.107037   2.906298
    13  C    3.875101   4.616908   2.506515   2.757114   4.526585
    14  H    4.493700   5.140469   3.206211   3.471424   5.176827
    15  H    4.525245   5.389060   3.244748   3.541470   4.945283
    16  C    5.506234   5.959079   4.055887   3.561202   6.432728
    17  C    6.512795   7.082221   5.052913   4.789162   7.297799
    18  H    6.573708   7.123300   5.151573   5.016600   7.359453
    19  H    7.515727   8.029740   6.051752   5.677306   8.342199
    20  H    6.596502   7.302931   5.175849   5.065760   7.203711
    21  O    4.142701   4.657344   2.684874   2.314490   5.060908
    22  O    5.958038   6.248031   4.587805   3.836721   6.990288
                    6          7          8          9         10
     6  H    0.000000
     7  C    2.184749   0.000000
     8  H    2.553216   1.100448   0.000000
     9  H    3.110440   1.098382   1.767215   0.000000
    10  H    2.542962   1.100225   1.768373   1.767530   0.000000
    11  C    2.890900   4.520981   5.158684   4.997225   4.934906
    12  H    2.500209   4.277330   4.943840   4.904433   4.465312
    13  C    4.262921   6.002187   6.587059   6.466299   6.416299
    14  H    4.958886   6.600030   7.299197   7.013079   6.895049
    15  H    4.456621   6.422420   6.878424   7.023836   6.808603
    16  C    6.336347   7.877702   8.372505   8.165253   8.486856
    17  C    7.036357   8.777956   9.294035   9.172841   9.261659
    18  H    7.118025   8.819032   9.439727   9.196683   9.200005
    19  H    8.099126   9.818129  10.312859  10.182606  10.333993
    20  H    6.786467   8.692082   9.128372   9.207307   9.138371
    21  O    5.003987   6.505781   7.030456   6.807522   7.109046
    22  O    7.018705   8.371340   8.819104   8.546888   9.084992
                   11         12         13         14         15
    11  C    0.000000
    12  H    1.092183   0.000000
    13  C    1.494870   2.172296   0.000000
    14  H    2.163259   2.579063   1.106699   0.000000
    15  H    2.163750   2.542130   1.106556   1.819505   0.000000
    16  C    3.687778   4.592522   2.473124   2.750475   2.754943
    17  C    4.331700   4.999779   2.864200   2.787796   2.796396
    18  H    4.308926   4.852304   2.864654   2.364318   2.979464
    19  H    5.409978   6.102561   3.957992   3.848570   3.855501
    20  H    4.307599   4.830959   2.859664   2.963548   2.368064
    21  O    2.371655   3.358405   1.462969   2.090509   2.089535
    22  O    4.531627   5.531350   3.529064   3.858067   3.861775
                   16         17         18         19         20
    16  C    0.000000
    17  C    1.485758   0.000000
    18  H    2.162874   1.101302   0.000000
    19  H    2.145074   1.104375   1.765956   0.000000
    20  H    2.163053   1.101187   1.775803   1.766085   0.000000
    21  O    1.380086   2.477188   2.829332   3.397673   2.826083
    22  O    1.212375   2.414245   3.141087   2.605539   3.143961
                   21         22
    21  O    0.000000
    22  O    2.173136   0.000000
 Stoichiometry    C8H12O2
 Framework group  C1[X(C8H12O2)]
 Deg. of freedom    60
 Full point group                 C1      NOp   1
 Largest Abelian subgroup         C1      NOp   1
 Largest concise Abelian subgroup C1      NOp   1
                         Standard orientation:                         
 ---------------------------------------------------------------------
 Center     Atomic      Atomic             Coordinates (Angstroms)
 Number     Number       Type             X           Y           Z
 ---------------------------------------------------------------------
      1          6           0       -2.558923    0.594345   -0.330502
      2          1           0       -2.846274    1.452949   -0.943183
      3          6           0       -1.114552    0.373872   -0.238765
      4          1           0       -0.508115    1.288366   -0.213032
      5          6           0       -3.477035   -0.159280    0.290725
      6          1           0       -3.193636   -1.007526    0.918175
      7          6           0       -4.942676    0.087443    0.200520
      8          1           0       -5.370969    0.297480    1.192203
      9          1           0       -5.202225    0.935827   -0.447031
     10          1           0       -5.469363   -0.793301   -0.196199
     11          6           0       -0.534615   -0.832205   -0.202615
     12          1           0       -1.110106   -1.759665   -0.241237
     13          6           0        0.941113   -1.055226   -0.118200
     14          1           0        1.334093   -1.537162   -1.033671
     15          1           0        1.215378   -1.642096    0.778922
     16          6           0        2.927929    0.402781    0.089459
     17          6           0        3.788479   -0.808220    0.069252
     18          1           0        3.687338   -1.383788   -0.864214
     19          1           0        4.855514   -0.536191    0.153403
     20          1           0        3.575412   -1.493264    0.904674
     21          8           0        1.557545    0.266283   -0.000287
     22          8           0        3.299284    1.553381    0.179280
 ---------------------------------------------------------------------
 Rotational constants (GHZ):      4.6936959      0.4193357      0.3918593
 Standard basis: 6-31+G(d,p) (6D, 7F)
 There are   250 symmetry adapted cartesian basis functions of A   symmetry.
 There are   250 symmetry adapted basis functions of A   symmetry.
   250 basis functions,   404 primitive gaussians,   250 cartesian basis functions
    38 alpha electrons       38 beta electrons
       nuclear repulsion energy       485.9655774709 Hartrees.
 NAtoms=   22 NActive=   22 NUniq=   22 SFac= 1.00D+00 NAtFMM=   60 NAOKFM=F Big=F
 Integral buffers will be    131072 words long.
 Raffenetti 2 integral format.
 Two-electron integral symmetry is turned on.
 Nuclear repulsion after empirical dispersion term =      485.9508125827 Hartrees.
 ------------------------------------------------------------------------------
 Polarizable Continuum Model (PCM)
 =================================
 Model                : C-PCM.
 Atomic radii         : UFF (Universal Force Field).
 Polarization charges : Total charges.
 Charge compensation  : None.
 Solution method      : On-the-fly selection.
 Cavity type          : Scaled VdW (van der Waals Surface) (Alpha=1.100).
 Cavity algorithm     : GePol (No added spheres)
                        Default sphere list used, NSphG=   22.
                        Lebedev-Laikov grids with approx.  5.0 points / Ang**2.
                        Smoothing algorithm: Karplus/York (Gamma=1.0000).
                        Polarization charges: spherical gaussians, with
                                              point-specific exponents (IZeta= 3).
                        Self-potential: point-specific (ISelfS= 7).
                        Self-field    : sphere-specific E.n sum rule (ISelfD= 2).
 1st derivatives      : Analytical E(r).r(x)/FMM algorithm (CHGder, D1EAlg=3).
                        Cavity 1st derivative terms included.
 Solvent              : Toluene, Eps=   2.374100 Eps(inf)=   2.238315
 ------------------------------------------------------------------------------
 One-electron integrals computed using PRISM.
 NBasis=   250 RedAO= T EigKep=  5.10D-06  NBF=   250
 NBsUse=   250 1.00D-06 EigRej= -1.00D+00 NBFU=   250
 ExpMin= 4.38D-02 ExpMax= 5.48D+03 ExpMxC= 8.25D+02 IAcc=2 IRadAn=         4 AccDes= 0.00D+00
 Harris functional with IExCor=  402 and IRadAn=       4 diagonalized for initial guess.
 HarFok:  IExCor=  402 AccDes= 0.00D+00 IRadAn=         4 IDoV= 1 UseB2=F ITyADJ=14
 ICtDFT=  3500011 ScaDFX=  1.000000  1.000000  1.000000  1.000000
 FoFCou: FMM=F IPFlag=           0 FMFlag=      100000 FMFlg1=           0
         NFxFlg=           0 DoJE=T BraDBF=F KetDBF=T FulRan=T
         wScrn=  0.000000 ICntrl=     500 IOpCl=  0 I1Cent=   200000004 NGrid=           0
         NMat0=    1 NMatS0=      1 NMatT0=    0 NMatD0=    1 NMtDS0=    0 NMtDT0=    0
 Petite list used in FoFCou.
 Requested convergence on RMS density matrix=1.00D-08 within 128 cycles.
 Requested convergence on MAX density matrix=1.00D-06.
 Requested convergence on             energy=1.00D-06.
 No special actions if energy rises.
 Inv3:  Mode=1 IEnd=     9623043.
 Iteration    1 A*A^-1 deviation from unit magnitude is 6.00D-15 for   1787.
 Iteration    1 A*A^-1 deviation from orthogonality  is 4.58D-15 for   1787   1340.
 Iteration    1 A^-1*A deviation from unit magnitude is 6.00D-15 for   1787.
 Iteration    1 A^-1*A deviation from orthogonality  is 1.91D-15 for   1786   1322.
 Error on total polarization charges =  0.01002
 SCF Done:  E(RB3LYP) =  -462.541908739     A.U. after   14 cycles
            NFock= 14  Conv=0.39D-08     -V/T= 2.0098

 **********************************************************************

            Population analysis using the SCF density.

 **********************************************************************

 Orbital symmetries:
       Occupied  (A) (A) (A) (A) (A) (A) (A) (A) (A) (A) (A) (A)
                 (A) (A) (A) (A) (A) (A) (A) (A) (A) (A) (A) (A)
                 (A) (A) (A) (A) (A) (A) (A) (A) (A) (A) (A) (A)
                 (A) (A)
       Virtual   (A) (A) (A) (A) (A) (A) (A) (A) (A) (A) (A) (A)
                 (A) (A) (A) (A) (A) (A) (A) (A) (A) (A) (A) (A)
                 (A) (A) (A) (A) (A) (A) (A) (A) (A) (A) (A) (A)
                 (A) (A) (A) (A) (A) (A) (A) (A) (A) (A) (A) (A)
                 (A) (A) (A) (A) (A) (A) (A) (A) (A) (A) (A) (A)
                 (A) (A) (A) (A) (A) (A) (A) (A) (A) (A) (A) (A)
                 (A) (A) (A) (A) (A) (A) (A) (A) (A) (A) (A) (A)
                 (A) (A) (A) (A) (A) (A) (A) (A) (A) (A) (A) (A)
                 (A) (A) (A) (A) (A) (A) (A) (A) (A) (A) (A) (A)
                 (A) (A) (A) (A) (A) (A) (A) (A) (A) (A) (A) (A)
                 (A) (A) (A) (A) (A) (A) (A) (A) (A) (A) (A) (A)
                 (A) (A) (A) (A) (A) (A) (A) (A) (A) (A) (A) (A)
                 (A) (A) (A) (A) (A) (A) (A) (A) (A) (A) (A) (A)
                 (A) (A) (A) (A) (A) (A) (A) (A) (A) (A) (A) (A)
                 (A) (A) (A) (A) (A) (A) (A) (A) (A) (A) (A) (A)
                 (A) (A) (A) (A) (A) (A) (A) (A) (A) (A) (A) (A)
                 (A) (A) (A) (A) (A) (A) (A) (A) (A) (A) (A) (A)
                 (A) (A) (A) (A) (A) (A) (A) (A)
 The electronic state is 1-A.
 Alpha  occ. eigenvalues --  -19.19903 -19.15005 -10.33303 -10.26343 -10.21436
 Alpha  occ. eigenvalues --  -10.20056 -10.19694 -10.19607 -10.19214 -10.18548
 Alpha  occ. eigenvalues --   -1.10321  -1.02236  -0.82330  -0.78531  -0.76469
 Alpha  occ. eigenvalues --   -0.72707  -0.66315  -0.60424  -0.57629  -0.53040
 Alpha  occ. eigenvalues --   -0.51399  -0.50056  -0.48693  -0.46301  -0.44739
 Alpha  occ. eigenvalues --   -0.44639  -0.41892  -0.41372  -0.41066  -0.39437
 Alpha  occ. eigenvalues --   -0.39284  -0.36293  -0.35475  -0.34790  -0.30913
 Alpha  occ. eigenvalues --   -0.29871  -0.28731  -0.23062
 Alpha virt. eigenvalues --   -0.03004  -0.01106  -0.00026   0.01448   0.01712
 Alpha virt. eigenvalues --    0.02971   0.03227   0.03697   0.04293   0.04959
 Alpha virt. eigenvalues --    0.05314   0.06470   0.06523   0.07479   0.07542
 Alpha virt. eigenvalues --    0.07879   0.08820   0.09285   0.09720   0.09998
 Alpha virt. eigenvalues --    0.11079   0.11481   0.12130   0.13451   0.14226
 Alpha virt. eigenvalues --    0.14699   0.16054   0.16325   0.17395   0.17613
 Alpha virt. eigenvalues --    0.18058   0.19540   0.20110   0.20587   0.21335
 Alpha virt. eigenvalues --    0.22119   0.22847   0.23644   0.24109   0.24221
 Alpha virt. eigenvalues --    0.24933   0.25278   0.25611   0.26318   0.27236
 Alpha virt. eigenvalues --    0.27936   0.28244   0.29069   0.29649   0.29954
 Alpha virt. eigenvalues --    0.30853   0.31410   0.32549   0.33838   0.34807
 Alpha virt. eigenvalues --    0.35705   0.37640   0.39162   0.41632   0.43022
 Alpha virt. eigenvalues --    0.44155   0.47135   0.49256   0.51499   0.60860
 Alpha virt. eigenvalues --    0.61513   0.64061   0.64392   0.66379   0.66581
 Alpha virt. eigenvalues --    0.67980   0.68874   0.70791   0.73004   0.73697
 Alpha virt. eigenvalues --    0.75157   0.75612   0.76575   0.77010   0.79960
 Alpha virt. eigenvalues --    0.80479   0.82399   0.83828   0.87219   0.89779
 Alpha virt. eigenvalues --    0.90202   0.92087   0.94320   0.94847   0.95261
 Alpha virt. eigenvalues --    0.96697   0.97599   0.97878   1.02077   1.03974
 Alpha virt. eigenvalues --    1.05678   1.06742   1.10391   1.10922   1.12520
 Alpha virt. eigenvalues --    1.16221   1.18247   1.19699   1.21595   1.23892
 Alpha virt. eigenvalues --    1.24140   1.26092   1.28165   1.29124   1.32494
 Alpha virt. eigenvalues --    1.33510   1.34389   1.38458   1.39545   1.40527
 Alpha virt. eigenvalues --    1.43789   1.44534   1.46130   1.48994   1.53532
 Alpha virt. eigenvalues --    1.57179   1.57819   1.64809   1.68840   1.70494
 Alpha virt. eigenvalues --    1.72975   1.77135   1.79248   1.80297   1.82275
 Alpha virt. eigenvalues --    1.83570   1.84443   1.87086   1.90459   1.93689
 Alpha virt. eigenvalues --    1.94048   1.95610   1.97244   1.98382   2.01419
 Alpha virt. eigenvalues --    2.02468   2.04512   2.05876   2.06485   2.07375
 Alpha virt. eigenvalues --    2.09073   2.10620   2.11921   2.13022   2.14937
 Alpha virt. eigenvalues --    2.16529   2.17955   2.21595   2.22245   2.25821
 Alpha virt. eigenvalues --    2.26689   2.32946   2.38530   2.39548   2.40467
 Alpha virt. eigenvalues --    2.42637   2.47089   2.51083   2.52647   2.53466
 Alpha virt. eigenvalues --    2.55107   2.55452   2.57768   2.59278   2.60621
 Alpha virt. eigenvalues --    2.63114   2.64567   2.66470   2.70360   2.71083
 Alpha virt. eigenvalues --    2.76159   2.76983   2.77568   2.78934   2.82530
 Alpha virt. eigenvalues --    2.85667   2.86122   2.87016   2.87600   2.93845
 Alpha virt. eigenvalues --    2.97519   3.03905   3.09800   3.14824   3.21429
 Alpha virt. eigenvalues --    3.22644   3.24874   3.30891   3.38673   3.39217
 Alpha virt. eigenvalues --    3.42797   3.43205   3.44770   3.46729   3.47046
 Alpha virt. eigenvalues --    3.49111   3.66866   4.25944   4.31663   4.35220
 Alpha virt. eigenvalues --    4.36720   4.40637   4.49152   4.50729   4.60287
 Alpha virt. eigenvalues --    4.64723   4.72759
          Condensed to atoms (all electrons):
               1          2          3          4          5          6
     1  C    9.326962   0.221240  -3.309073   0.128990  -0.302271  -0.009901
     2  H    0.221240   0.569633   0.071143  -0.004646   0.020398   0.004586
     3  C   -3.309073   0.071143   8.166131   0.213701   0.668429  -0.034912
     4  H    0.128990  -0.004646   0.213701   0.542891  -0.000068   0.000069
     5  C   -0.302271   0.020398   0.668429  -0.000068   6.378226   0.329035
     6  H   -0.009901   0.004586  -0.034912   0.000069   0.329035   0.565018
     7  C    0.781440  -0.050326  -0.646071   0.012067  -0.903454   0.002606
     8  H    0.022780   0.000118  -0.019267   0.000008  -0.103831  -0.001833
     9  H    0.024434   0.002988  -0.017256  -0.000003  -0.150302   0.003698
    10  H    0.010601   0.000108  -0.004685   0.000000  -0.130537  -0.002341
    11  C   -0.467781   0.026028   0.674859  -0.013346   0.084127  -0.006815
    12  H    0.049380   0.000063  -0.039738   0.004562  -0.002096   0.000842
    13  C   -0.020224   0.007166   0.004877  -0.030857  -0.069787   0.018368
    14  H    0.000115   0.000008  -0.010501   0.000067   0.004341   0.000001
    15  H    0.006029   0.000000   0.013001  -0.000038  -0.004827   0.000003
    16  C   -0.042283   0.000330  -0.059014  -0.007101   0.002046  -0.000101
    17  C   -0.006006  -0.000089   0.017535   0.000027  -0.000893   0.000024
    18  H   -0.000176   0.000000   0.000944  -0.000001  -0.000096   0.000000
    19  H   -0.000113   0.000000  -0.000671   0.000000  -0.000002   0.000000
    20  H    0.000097   0.000000   0.001500  -0.000001   0.000147   0.000000
    21  O    0.172482   0.000573   0.044603  -0.005243  -0.001758   0.000001
    22  O   -0.012824   0.000002  -0.016754   0.001218   0.000159   0.000000
               7          8          9         10         11         12
     1  C    0.781440   0.022780   0.024434   0.010601  -0.467781   0.049380
     2  H   -0.050326   0.000118   0.002988   0.000108   0.026028   0.000063
     3  C   -0.646071  -0.019267  -0.017256  -0.004685   0.674859  -0.039738
     4  H    0.012067   0.000008  -0.000003   0.000000  -0.013346   0.004562
     5  C   -0.903454  -0.103831  -0.150302  -0.130537   0.084127  -0.002096
     6  H    0.002606  -0.001833   0.003698  -0.002341  -0.006815   0.000842
     7  C    6.191936   0.445205   0.496640   0.480777  -0.039749   0.009181
     8  H    0.445205   0.552525  -0.027667  -0.032202   0.004561   0.000003
     9  H    0.496640  -0.027667   0.539102  -0.027681   0.001002  -0.000001
    10  H    0.480777  -0.032202  -0.027681   0.554445  -0.005512   0.000003
    11  C   -0.039749   0.004561   0.001002  -0.005512   6.276756   0.237506
    12  H    0.009181   0.000003  -0.000001   0.000003   0.237506   0.557538
    13  C    0.001754   0.000621   0.000695  -0.000299  -0.718173   0.048281
    14  H    0.000189   0.000000   0.000000   0.000000   0.065702  -0.000231
    15  H   -0.000277   0.000000   0.000000   0.000000  -0.108581  -0.001270
    16  C   -0.000923  -0.000004  -0.000001   0.000000   0.187364  -0.005561
    17  C   -0.000261   0.000000   0.000000   0.000000  -0.017969   0.003075
    18  H   -0.000005   0.000000   0.000000   0.000000  -0.003538  -0.000003
    19  H    0.000000   0.000000   0.000000   0.000000  -0.006909   0.000000
    20  H    0.000007   0.000000   0.000000   0.000000   0.020709  -0.000002
    21  O    0.001259   0.000000   0.000001   0.000000  -0.165107   0.002116
    22  O   -0.000003   0.000000   0.000000   0.000000   0.027554   0.000051
              13         14         15         16         17         18
     1  C   -0.020224   0.000115   0.006029  -0.042283  -0.006006  -0.000176
     2  H    0.007166   0.000008   0.000000   0.000330  -0.000089   0.000000
     3  C    0.004877  -0.010501   0.013001  -0.059014   0.017535   0.000944
     4  H   -0.030857   0.000067  -0.000038  -0.007101   0.000027  -0.000001
     5  C   -0.069787   0.004341  -0.004827   0.002046  -0.000893  -0.000096
     6  H    0.018368   0.000001   0.000003  -0.000101   0.000024   0.000000
     7  C    0.001754   0.000189  -0.000277  -0.000923  -0.000261  -0.000005
     8  H    0.000621   0.000000   0.000000  -0.000004   0.000000   0.000000
     9  H    0.000695   0.000000   0.000000  -0.000001   0.000000   0.000000
    10  H   -0.000299   0.000000   0.000000   0.000000   0.000000   0.000000
    11  C   -0.718173   0.065702  -0.108581   0.187364  -0.017969  -0.003538
    12  H    0.048281  -0.000231  -0.001270  -0.005561   0.003075  -0.000003
    13  C    6.345078   0.293883   0.448003  -0.148001  -0.013335   0.016105
    14  H    0.293883   0.581063  -0.045147   0.005818  -0.009631   0.001054
    15  H    0.448003  -0.045147   0.583716  -0.007810   0.005813  -0.000843
    16  C   -0.148001   0.005818  -0.007810   5.124618   0.030290  -0.044611
    17  C   -0.013335  -0.009631   0.005813   0.030290   5.528004   0.381129
    18  H    0.016105   0.001054  -0.000843  -0.044611   0.381129   0.507805
    19  H   -0.002597   0.000035   0.000029  -0.037429   0.409293  -0.023290
    20  H   -0.006236  -0.000862   0.001099  -0.039454   0.372343  -0.024250
    21  O    0.016050  -0.040164  -0.040386   0.080006  -0.200787   0.000432
    22  O    0.001478  -0.000186  -0.000261   0.466292  -0.083218   0.002608
              19         20         21         22
     1  C   -0.000113   0.000097   0.172482  -0.012824
     2  H    0.000000   0.000000   0.000573   0.000002
     3  C   -0.000671   0.001500   0.044603  -0.016754
     4  H    0.000000  -0.000001  -0.005243   0.001218
     5  C   -0.000002   0.000147  -0.001758   0.000159
     6  H    0.000000   0.000000   0.000001   0.000000
     7  C    0.000000   0.000007   0.001259  -0.000003
     8  H    0.000000   0.000000   0.000000   0.000000
     9  H    0.000000   0.000000   0.000001   0.000000
    10  H    0.000000   0.000000   0.000000   0.000000
    11  C   -0.006909   0.020709  -0.165107   0.027554
    12  H    0.000000  -0.000002   0.002116   0.000051
    13  C   -0.002597  -0.006236   0.016050   0.001478
    14  H    0.000035  -0.000862  -0.040164  -0.000186
    15  H    0.000029   0.001099  -0.040386  -0.000261
    16  C   -0.037429  -0.039454   0.080006   0.466292
    17  C    0.409293   0.372343  -0.200787  -0.083218
    18  H   -0.023290  -0.024250   0.000432   0.002608
    19  H    0.491603  -0.023316   0.006755  -0.006347
    20  H   -0.023316   0.507906   0.001069   0.002661
    21  O    0.006755   0.001069   8.633326  -0.134567
    22  O   -0.006347   0.002661  -0.134567   8.223924
 Mulliken charges:
               1
     1  C   -0.573895
     2  H    0.130677
     3  C    0.281216
     4  H    0.157705
     5  C    0.183016
     6  H    0.131650
     7  C   -0.781989
     8  H    0.158984
     9  H    0.154350
    10  H    0.157322
    11  C   -0.052689
    12  H    0.136299
    13  C   -0.192851
    14  H    0.154446
    15  H    0.151748
    16  C    0.495528
    17  C   -0.415345
    18  H    0.186736
    19  H    0.192959
    20  H    0.186583
    21  O   -0.370661
    22  O   -0.471788
 Sum of Mulliken charges =   0.00000
 Mulliken charges with hydrogens summed into heavy atoms:
               1
     1  C   -0.443219
     3  C    0.438921
     5  C    0.314666
     7  C   -0.311333
    11  C    0.083610
    13  C    0.113343
    16  C    0.495528
    17  C    0.150932
    21  O   -0.370661
    22  O   -0.471788
 Electronic spatial extent (au):  <R**2>=           2787.1634
 Charge=              0.0000 electrons
 Dipole moment (field-independent basis, Debye):
    X=             -1.0296    Y=             -5.3942    Z=             -0.2579  Tot=              5.4977
 Quadrupole moment (field-independent basis, Debye-Ang):
   XX=            -57.0093   YY=            -62.9526   ZZ=            -61.7486
   XY=            -14.7532   XZ=             -1.3711   YZ=             -2.0886
 Traceless Quadrupole moment (field-independent basis, Debye-Ang):
   XX=              3.5608   YY=             -2.3824   ZZ=             -1.1784
   XY=            -14.7532   XZ=             -1.3711   YZ=             -2.0886
 Octapole moment (field-independent basis, Debye-Ang**2):
  XXX=              1.5034  YYY=            -10.1441  ZZZ=              2.2048  XYY=            -11.3034
  XXY=            -47.9966  XXZ=             -0.5553  XZZ=             12.2851  YZZ=             -0.5870
  YYZ=             -2.3422  XYZ=              1.9851
 Hexadecapole moment (field-independent basis, Debye-Ang**3):
 XXXX=          -3202.7801 YYYY=           -343.1487 ZZZZ=           -111.0450 XXXY=           -149.9291
 XXXZ=            -18.3677 YYYX=            -23.6367 YYYZ=             -5.0385 ZZZX=             -3.6753
 ZZZY=             -1.1478 XXYY=           -660.5432 XXZZ=           -569.8447 YYZZ=            -70.4731
 XXYZ=            -19.0907 YYXZ=              1.7767 ZZXY=             -3.4860
 N-N= 4.859508125827D+02 E-N=-2.047755391685D+03  KE= 4.580531586505D+02
 D1PCM: C-PCM CHGder 1st derivatives, ID1Alg=3 FixD1E=F DoIter=F DoCFld=F I1PDM=0.
 Calling FoFJK, ICntrl=      2127 FMM=F ISym2X=0 I1Cent= 0 IOpClX= 0 NMat=1 NMatS=1 NMatT=0.
 ***** Axes restored to original set *****
 -------------------------------------------------------------------
 Center     Atomic                   Forces (Hartrees/Bohr)
 Number     Number              X              Y              Z
 -------------------------------------------------------------------
      1        6          -0.006007155    0.002576998    0.001340897
      2        1           0.004304186    0.001390054    0.003776604
      3        6           0.001231374   -0.006332202   -0.001244601
      4        1           0.000432456    0.008432638   -0.001875681
      5        6           0.006013009   -0.002435017   -0.002436080
      6        1          -0.004443917   -0.003346528   -0.000933733
      7        6           0.012452573   -0.001402448   -0.001121796
      8        1          -0.000136314    0.001898935   -0.000855324
      9        1          -0.003234835    0.001093769    0.000570225
     10        1          -0.000044530   -0.000308595    0.001789706
     11        6          -0.005182296    0.007181863    0.000522256
     12        1           0.002218757   -0.004072518   -0.001710573
     13        6          -0.009669721   -0.014242505    0.002854173
     14        1           0.003557383    0.001535731    0.006701885
     15        1           0.002597568    0.000962891   -0.007047434
     16        6           0.030362018   -0.017345298   -0.000966394
     17        6          -0.021417692    0.015557444    0.000398510
     18        1           0.003913880   -0.002906782    0.003402217
     19        1           0.009657032   -0.003350418   -0.000406021
     20        1           0.003479914   -0.003284288   -0.003477189
     21        8          -0.015101691    0.018373489   -0.000211490
     22        8          -0.014981999    0.000022786    0.000929843
 -------------------------------------------------------------------
 Cartesian Forces:  Max     0.030362018 RMS     0.007657891

 GradGradGradGradGradGradGradGradGradGradGradGradGradGradGradGradGradGrad
 Berny optimization.
 FormGI is forming the generalized inverse of G from B-inverse, IUseBI=4.
 Internal  Forces:  Max     0.021367766 RMS     0.005051018
 Search for a local minimum.
 Step number   1 out of a maximum of  100
 All quantities printed in internal units (Hartrees-Bohrs-Radians)
 Mixed Optimization -- RFO/linear search
 Second derivative matrix not updated -- first step.
 ITU=  0
     Eigenvalues ---    0.00834   0.00859   0.00911   0.00954   0.01158
     Eigenvalues ---    0.01242   0.01745   0.01760   0.01955   0.02113
     Eigenvalues ---    0.02115   0.02877   0.02899   0.06797   0.07000
     Eigenvalues ---    0.07010   0.07219   0.07269   0.07289   0.11176
     Eigenvalues ---    0.13643   0.15998   0.15999   0.15999   0.16000
     Eigenvalues ---    0.16000   0.16000   0.16000   0.16000   0.16000
     Eigenvalues ---    0.16000   0.22000   0.22000   0.22000   0.22001
     Eigenvalues ---    0.22082   0.25000   0.25000   0.25000   0.32921
     Eigenvalues ---    0.32952   0.32967   0.33203   0.33539   0.33551
     Eigenvalues ---    0.33560   0.33633   0.33657   0.33862   0.33919
     Eigenvalues ---    0.33949   0.34442   0.34527   0.34562   0.36471
     Eigenvalues ---    0.36595   0.49086   0.57104   0.57486   0.98843
 RFO step:  Lambda=-1.00920240D-02 EMin= 8.33802762D-03
 Linear search not attempted -- first point.
 Iteration  1 RMS(Cart)=  0.11191695 RMS(Int)=  0.00339830
 Iteration  2 RMS(Cart)=  0.00560872 RMS(Int)=  0.00037022
 Iteration  3 RMS(Cart)=  0.00001336 RMS(Int)=  0.00037016
 Iteration  4 RMS(Cart)=  0.00000000 RMS(Int)=  0.00037016
 Variable       Old X    -DE/DX   Delta X   Delta X   Delta X     New X
                                 (Linear)    (Quad)   (Total)
    R1        2.06590  -0.00208   0.00000  -0.00586  -0.00586   2.06004
    R2        2.76652   0.00873   0.00000   0.02329   0.02329   2.78981
    R3        2.53308   0.00336   0.00000   0.00578   0.00578   2.53886
    R4        2.07416  -0.00731   0.00000  -0.02091  -0.02091   2.05326
    R5        2.52987   0.00318   0.00000   0.00544   0.00544   2.53531
    R6        2.06450  -0.00198   0.00000  -0.00557  -0.00557   2.05893
    R7        2.81380   0.00866   0.00000   0.02505   0.02505   2.83884
    R8        2.07955  -0.00119   0.00000  -0.00342  -0.00342   2.07612
    R9        2.07564  -0.00195   0.00000  -0.00558  -0.00558   2.07006
   R10        2.07912  -0.00091   0.00000  -0.00263  -0.00263   2.07649
   R11        2.06393  -0.00223   0.00000  -0.00627  -0.00627   2.05766
   R12        2.82490   0.00693   0.00000   0.02043   0.02043   2.84532
   R13        2.09136  -0.00614   0.00000  -0.01807  -0.01807   2.07329
   R14        2.09109  -0.00585   0.00000  -0.01721  -0.01721   2.07388
   R15        2.76461  -0.00468   0.00000  -0.01244  -0.01244   2.75217
   R16        2.80768   0.00743   0.00000   0.02127   0.02127   2.82895
   R17        2.60799  -0.00982   0.00000  -0.01961  -0.01961   2.58837
   R18        2.29106   0.00464   0.00000   0.00464   0.00464   2.29570
   R19        2.08116  -0.00404   0.00000  -0.01170  -0.01170   2.06946
   R20        2.08697  -0.00854   0.00000  -0.02495  -0.02495   2.06202
   R21        2.08094  -0.00401   0.00000  -0.01160  -0.01160   2.06934
    A1        1.99624   0.00214   0.00000   0.01740   0.01739   2.01363
    A2        2.11912  -0.00848   0.00000  -0.04507  -0.04508   2.07404
    A3        2.16765   0.00634   0.00000   0.02752   0.02751   2.19517
    A4        2.00546   0.00302   0.00000   0.01980   0.01980   2.02526
    A5        2.17093   0.00270   0.00000   0.01174   0.01174   2.18267
    A6        2.10671  -0.00572   0.00000  -0.03156  -0.03156   2.07515
    A7        2.12354  -0.00820   0.00000  -0.04368  -0.04369   2.07985
    A8        2.15670   0.00593   0.00000   0.02578   0.02578   2.18247
    A9        2.00290   0.00227   0.00000   0.01787   0.01787   2.02078
   A10        1.93920   0.00055   0.00000   0.00259   0.00259   1.94179
   A11        1.97827  -0.00384   0.00000  -0.02124  -0.02122   1.95705
   A12        1.93949   0.00088   0.00000   0.00448   0.00449   1.94398
   A13        1.86700   0.00204   0.00000   0.01325   0.01326   1.88026
   A14        1.86651  -0.00127   0.00000  -0.01006  -0.01006   1.85644
   A15        1.86775   0.00184   0.00000   0.01200   0.01202   1.87977
   A16        2.13627  -0.00868   0.00000  -0.04426  -0.04426   2.09201
   A17        2.16950   0.00885   0.00000   0.03847   0.03847   2.20798
   A18        1.97738  -0.00017   0.00000   0.00577   0.00577   1.98315
   A19        1.94852  -0.00475   0.00000  -0.02864  -0.03010   1.91841
   A20        1.94936  -0.00458   0.00000  -0.02657  -0.02815   1.92121
   A21        1.86058   0.01491   0.00000   0.07621   0.07576   1.93634
   A22        1.93016  -0.00134   0.00000  -0.04105  -0.04255   1.88761
   A23        1.88643  -0.00183   0.00000   0.01245   0.01258   1.89901
   A24        1.88525  -0.00163   0.00000   0.01514   0.01514   1.90038
   A25        2.08705  -0.01003   0.00000  -0.03856  -0.03856   2.04849
   A26        2.21073  -0.01134   0.00000  -0.04360  -0.04360   2.16713
   A27        1.98541   0.02137   0.00000   0.08215   0.08215   2.06756
   A28        1.96526  -0.00310   0.00000  -0.02073  -0.02106   1.94420
   A29        1.93672  -0.00571   0.00000  -0.02870  -0.02886   1.90786
   A30        1.96564  -0.00304   0.00000  -0.02029  -0.02062   1.94502
   A31        1.85673   0.00559   0.00000   0.03730   0.03715   1.89387
   A32        1.87564   0.00178   0.00000   0.00198   0.00151   1.87715
   A33        1.85706   0.00559   0.00000   0.03742   0.03727   1.89433
   A34        2.10945   0.00084   0.00000   0.00324   0.00324   2.11269
    D1        0.62539  -0.00062   0.00000  -0.02370  -0.02378   0.60160
    D2       -2.50277  -0.00051   0.00000  -0.02104  -0.02109  -2.52386
    D3       -2.49622  -0.00030   0.00000  -0.01483  -0.01478  -2.51099
    D4        0.65881  -0.00019   0.00000  -0.01217  -0.01208   0.64672
    D5       -3.12247   0.00126   0.00000   0.03502   0.03491  -3.08756
    D6        0.00827   0.00119   0.00000   0.03118   0.03114   0.03942
    D7       -0.00221   0.00105   0.00000   0.02631   0.02634   0.02413
    D8        3.12853   0.00098   0.00000   0.02247   0.02257  -3.13208
    D9        0.00157   0.00124   0.00000   0.03179   0.03179   0.03336
   D10        3.13406   0.00122   0.00000   0.02982   0.02985  -3.11928
   D11       -3.12585   0.00129   0.00000   0.03420   0.03417  -3.09168
   D12        0.00664   0.00126   0.00000   0.03223   0.03222   0.03887
   D13       -2.07831  -0.00031   0.00000  -0.00417  -0.00414  -2.08245
   D14        0.02466   0.00003   0.00000  -0.00003   0.00000   0.02466
   D15        2.12883   0.00035   0.00000   0.00385   0.00387   2.13269
   D16        1.05312  -0.00044   0.00000  -0.00813  -0.00815   1.04497
   D17       -3.12710  -0.00010   0.00000  -0.00398  -0.00401  -3.13110
   D18       -1.02293   0.00022   0.00000  -0.00011  -0.00014  -1.02307
   D19       -1.99488  -0.00434   0.00000  -0.04819  -0.04730  -2.04218
   D20        2.11708   0.00445   0.00000   0.04734   0.04650   2.16358
   D21        0.06158  -0.00012   0.00000  -0.00264  -0.00266   0.05892
   D22        1.13835  -0.00441   0.00000  -0.05026  -0.04939   1.08896
   D23       -1.03287   0.00438   0.00000   0.04527   0.04441  -0.98847
   D24       -3.08838  -0.00019   0.00000  -0.00471  -0.00475  -3.09313
   D25       -3.13426   0.00021   0.00000   0.00704   0.00711  -3.12715
   D26       -1.03731   0.00183   0.00000   0.02187   0.02273  -1.01457
   D27        1.05160  -0.00171   0.00000  -0.01159  -0.01251   1.03908
   D28        1.06684  -0.00110   0.00000  -0.01324  -0.01313   1.05371
   D29       -3.13726   0.00000   0.00000   0.00057   0.00057  -3.13669
   D30       -1.05749   0.00114   0.00000   0.01480   0.01467  -1.04282
   D31       -2.07450  -0.00112   0.00000  -0.01403  -0.01391  -2.08840
   D32        0.00459  -0.00001   0.00000  -0.00022  -0.00021   0.00438
   D33        2.08436   0.00113   0.00000   0.01401   0.01389   2.09825
   D34       -0.00249   0.00007   0.00000   0.00205   0.00203  -0.00046
   D35        3.13887   0.00008   0.00000   0.00273   0.00275  -3.14156
         Item               Value     Threshold  Converged?
 Maximum Force            0.021368     0.000450     NO 
 RMS     Force            0.005051     0.000300     NO 
 Maximum Displacement     0.518991     0.001800     NO 
 RMS     Displacement     0.111941     0.001200     NO 
 Predicted change in Energy=-5.332002D-03
 GradGradGradGradGradGradGradGradGradGradGradGradGradGradGradGradGradGrad

                          Input orientation:                          
 ---------------------------------------------------------------------
 Center     Atomic      Atomic             Coordinates (Angstroms)
 Number     Number       Type             X           Y           Z
 ---------------------------------------------------------------------
      1          6           0        2.610663   -0.608026   -0.334044
      2          1           0        2.958742   -1.446394   -0.937665
      3          6           0        1.145049   -0.446241   -0.261441
      4          1           0        0.563051   -1.363743   -0.266968
      5          6           0        3.517513    0.157995    0.295120
      6          1           0        3.174036    0.965861    0.940466
      7          6           0        5.006838   -0.014313    0.200360
      8          1           0        5.447077   -0.223243    1.185012
      9          1           0        5.285545   -0.834244   -0.470456
     10          1           0        5.493157    0.899325   -0.168682
     11          6           0        0.501209    0.729620   -0.208622
     12          1           0        1.066303    1.659480   -0.249357
     13          6           0       -0.987341    0.932067   -0.107118
     14          1           0       -1.355244    1.453994   -0.999277
     15          1           0       -1.225012    1.546339    0.770706
     16          6           0       -3.045203   -0.401419    0.097490
     17          6           0       -3.791770    0.895866    0.070264
     18          1           0       -3.610243    1.441756   -0.861570
     19          1           0       -4.861697    0.698304    0.153231
     20          1           0       -3.492794    1.547223    0.898199
     21          8           0       -1.679553   -0.344015    0.009130
     22          8           0       -3.573922   -1.490992    0.192899
 ---------------------------------------------------------------------
                    Distance matrix (angstroms):
                    1          2          3          4          5
     1  C    0.000000
     2  H    1.090127   0.000000
     3  C    1.476303   2.178776   0.000000
     4  H    2.183650   2.489177   1.086537   0.000000
     5  C    1.343507   2.099059   2.510666   3.370531   0.000000
     6  H    2.102114   3.064752   2.748709   3.701648   1.089539
     7  C    2.525814   2.746026   3.913213   4.667612   1.502252
     8  H    3.240499   3.491944   4.544161   5.221370   2.158812
     9  H    2.687894   2.450924   4.163886   4.756441   2.167161
    10  H    3.257027   3.537936   4.552494   5.425596   2.160522
    11  C    2.500965   3.362441   1.341629   2.095089   3.111045
    12  H    2.744778   3.701560   2.107228   3.064874   2.925635
    13  C    3.920334   4.681715   2.543745   2.774890   4.588539
    14  H    4.519168   5.198703   3.225951   3.486513   5.205654
    15  H    4.535875   5.420219   3.263877   3.569666   4.964395
    16  C    5.676067   6.181494   4.205835   3.752118   6.589479
    17  C    6.589106   7.216059   5.126740   4.917726   7.349873
    18  H    6.571116   7.176263   5.151455   5.063670   7.334226
    19  H    7.601323   8.182240   6.128861   5.818634   8.397811
    20  H    6.589060   7.345369   5.179599   5.126520   7.172033
    21  O    4.312010   4.860600   2.839372   2.478981   5.229082
    22  O    6.269482   6.629922   4.854546   4.164399   7.281350
                    6          7          8          9         10
     6  H    0.000000
     7  C    2.206278   0.000000
     8  H    2.576914   1.098636   0.000000
     9  H    3.112805   1.095427   1.772002   0.000000
    10  H    2.571568   1.098833   1.759196   1.771845   0.000000
    11  C    2.918941   4.584910   5.226067   5.040249   4.994992
    12  H    2.517802   4.304840   4.979282   4.906073   4.492370
    13  C    4.291344   6.076213   6.663789   6.526943   6.480874
    14  H    4.951288   6.638610   7.338652   7.043846   6.920849
    15  H    4.440427   6.449565   6.915189   7.042373   6.814314
    16  C    6.423316   8.061997   8.563485   8.361296   8.640971
    17  C    7.020300   8.846517   9.372906   9.256529   9.288003
    18  H    7.035641   8.803517   9.433756   9.190658   9.145831
    19  H    8.078635   9.894344  10.401185  10.281256  10.361808
    20  H    6.692263   8.670012   9.118009   9.198035   9.072228
    21  O    5.112777   6.697246   7.223998   6.998780   7.281846
    22  O    7.220106   8.706899   9.163510   8.908509   9.383831
                   11         12         13         14         15
    11  C    0.000000
    12  H    1.088867   0.000000
    13  C    1.505679   2.183304   0.000000
    14  H    2.143891   2.543323   1.097136   0.000000
    15  H    2.146148   2.510668   1.097448   1.777168   0.000000
    16  C    3.734968   4.612167   2.460659   2.738871   2.749559
    17  C    4.305239   4.928097   2.810267   2.718839   2.738975
    18  H    4.223448   4.721471   2.776435   2.259233   2.892160
    19  H    5.375191   6.018897   3.890124   3.767567   3.784960
    20  H    4.224403   4.702643   2.768821   2.859759   2.271363
    21  O    2.440457   3.408890   1.456385   2.086839   2.088072
    22  O    4.658222   5.626078   3.556913   3.875147   3.882862
                   16         17         18         19         20
    16  C    0.000000
    17  C    1.497014   0.000000
    18  H    2.153220   1.095109   0.000000
    19  H    2.124182   1.091173   1.774452   0.000000
    20  H    2.153759   1.095048   1.766835   1.774694   0.000000
    21  O    1.369709   2.450001   2.770318   3.351602   2.766779
    22  O    1.214832   2.399914   3.116767   2.540267   3.120061
                   21         22
    21  O    0.000000
    22  O    2.222153   0.000000
 Stoichiometry    C8H12O2
 Framework group  C1[X(C8H12O2)]
 Deg. of freedom    60
 Full point group                 C1      NOp   1
 Largest Abelian subgroup         C1      NOp   1
 Largest concise Abelian subgroup C1      NOp   1
                         Standard orientation:                         
 ---------------------------------------------------------------------
 Center     Atomic      Atomic             Coordinates (Angstroms)
 Number     Number       Type             X           Y           Z
 ---------------------------------------------------------------------
      1          6           0       -2.646493    0.611197   -0.321707
      2          1           0       -2.992627    1.459635   -0.912232
      3          6           0       -1.181348    0.443028   -0.254324
      4          1           0       -0.596001    1.358389   -0.247450
      5          6           0       -3.554962   -0.160715    0.297847
      6          1           0       -3.213240   -0.979253    0.930552
      7          6           0       -5.043821    0.018389    0.208512
      8          1           0       -5.481443    0.214376    1.196984
      9          1           0       -5.320779    0.849132   -0.449608
     10          1           0       -5.534178   -0.887933   -0.173018
     11          6           0       -0.541725   -0.735818   -0.220085
     12          1           0       -1.110299   -1.662915   -0.273431
     13          6           0        0.946261   -0.945155   -0.124449
     14          1           0        1.310574   -1.455203   -1.024912
     15          1           0        1.183324   -1.573165    0.743765
     16          6           0        3.009378    0.377674    0.095820
     17          6           0        3.751132   -0.921775    0.048035
     18          1           0        3.565857   -1.453201   -0.891391
     19          1           0        4.821930   -0.729352    0.131841
     20          1           0        3.451323   -1.584178    0.866855
     21          8           0        1.643363    0.326549    0.009259
     22          8           0        3.542266    1.463792    0.206259
 ---------------------------------------------------------------------
 Rotational constants (GHZ):      4.9195715      0.3988816      0.3754662
 Standard basis: 6-31+G(d,p) (6D, 7F)
 There are   250 symmetry adapted cartesian basis functions of A   symmetry.
 There are   250 symmetry adapted basis functions of A   symmetry.
   250 basis functions,   404 primitive gaussians,   250 cartesian basis functions
    38 alpha electrons       38 beta electrons
       nuclear repulsion energy       481.9033202558 Hartrees.
 NAtoms=   22 NActive=   22 NUniq=   22 SFac= 1.00D+00 NAtFMM=   60 NAOKFM=F Big=F
 Integral buffers will be    131072 words long.
 Raffenetti 2 integral format.
 Two-electron integral symmetry is turned on.
 Nuclear repulsion after empirical dispersion term =      481.8885871669 Hartrees.
 ------------------------------------------------------------------------------
 Polarizable Continuum Model (PCM)
 =================================
 Model                : C-PCM.
 Atomic radii         : UFF (Universal Force Field).
 Polarization charges : Total charges.
 Charge compensation  : None.
 Solution method      : On-the-fly selection.
 Cavity type          : Scaled VdW (van der Waals Surface) (Alpha=1.100).
 Cavity algorithm     : GePol (No added spheres)
                        Default sphere list used, NSphG=   22.
                        Lebedev-Laikov grids with approx.  5.0 points / Ang**2.
                        Smoothing algorithm: Karplus/York (Gamma=1.0000).
                        Polarization charges: spherical gaussians, with
                                              point-specific exponents (IZeta= 3).
                        Self-potential: point-specific (ISelfS= 7).
                        Self-field    : sphere-specific E.n sum rule (ISelfD= 2).
 1st derivatives      : Analytical E(r).r(x)/FMM algorithm (CHGder, D1EAlg=3).
                        Cavity 1st derivative terms included.
 Solvent              : Toluene, Eps=   2.374100 Eps(inf)=   2.238315
 ------------------------------------------------------------------------------
 One-electron integrals computed using PRISM.
 NBasis=   250 RedAO= T EigKep=  5.29D-06  NBF=   250
 NBsUse=   250 1.00D-06 EigRej= -1.00D+00 NBFU=   250
 Initial guess from the checkpoint file:  "b3lyp_diene_pm6_cpcmtoluene.chk"
 B after Tr=     0.000000    0.000000    0.000000
         Rot=    0.999924   -0.011585   -0.000695    0.004238 Ang=  -1.42 deg.
 ExpMin= 4.38D-02 ExpMax= 5.48D+03 ExpMxC= 8.25D+02 IAcc=2 IRadAn=         4 AccDes= 0.00D+00
 Harris functional with IExCor=  402 and IRadAn=       4 diagonalized for initial guess.
 HarFok:  IExCor=  402 AccDes= 0.00D+00 IRadAn=         4 IDoV= 1 UseB2=F ITyADJ=14
 ICtDFT=  3500011 ScaDFX=  1.000000  1.000000  1.000000  1.000000
 FoFCou: FMM=F IPFlag=           0 FMFlag=      100000 FMFlg1=           0
         NFxFlg=           0 DoJE=T BraDBF=F KetDBF=T FulRan=T
         wScrn=  0.000000 ICntrl=     500 IOpCl=  0 I1Cent=   200000004 NGrid=           0
         NMat0=    1 NMatS0=      1 NMatT0=    0 NMatD0=    1 NMtDS0=    0 NMtDT0=    0
 Petite list used in FoFCou.
 Requested convergence on RMS density matrix=1.00D-08 within 128 cycles.
 Requested convergence on MAX density matrix=1.00D-06.
 Requested convergence on             energy=1.00D-06.
 No special actions if energy rises.
 Inv3:  Mode=1 IEnd=     9828300.
 Iteration    1 A*A^-1 deviation from unit magnitude is 7.44D-15 for   1782.
 Iteration    1 A*A^-1 deviation from orthogonality  is 1.70D-15 for   1803   1328.
 Iteration    1 A^-1*A deviation from unit magnitude is 7.44D-15 for   1782.
 Iteration    1 A^-1*A deviation from orthogonality  is 1.86D-15 for   1730    425.
 Error on total polarization charges =  0.01005
 SCF Done:  E(RB3LYP) =  -462.546408316     A.U. after   12 cycles
            NFock= 12  Conv=0.38D-08     -V/T= 2.0099
 D1PCM: C-PCM CHGder 1st derivatives, ID1Alg=3 FixD1E=F DoIter=F DoCFld=F I1PDM=0.
 Calling FoFJK, ICntrl=      2127 FMM=F ISym2X=0 I1Cent= 0 IOpClX= 0 NMat=1 NMatS=1 NMatT=0.
 ***** Axes restored to original set *****
 -------------------------------------------------------------------
 Center     Atomic                   Forces (Hartrees/Bohr)
 Number     Number              X              Y              Z
 -------------------------------------------------------------------
      1        6          -0.004166416    0.001050558    0.000243005
      2        1           0.000735479   -0.000749105    0.000378697
      3        6           0.003416683    0.000350925    0.000226701
      4        1          -0.001565866   -0.000605063   -0.000559172
      5        6           0.002185731    0.000140389   -0.000801169
      6        1          -0.001228489    0.000136141    0.000515089
      7        6           0.001696496   -0.000759472   -0.000435623
      8        1          -0.000719223    0.000515439   -0.000047181
      9        1          -0.001008796   -0.000003691   -0.000048798
     10        1          -0.001019147   -0.000036080    0.000308673
     11        6          -0.004202148   -0.001726674    0.001153834
     12        1          -0.000304530    0.000614130   -0.000224208
     13        6          -0.001515653   -0.006150299    0.000224469
     14        1           0.000783415    0.001124276    0.000223753
     15        1           0.001139795    0.000801283   -0.000345945
     16        6           0.010349164   -0.003795451   -0.000428045
     17        6          -0.008621790    0.006885075    0.000166724
     18        1           0.000714977   -0.000372585    0.000331348
     19        1           0.001228105   -0.001215256    0.000002858
     20        1           0.000688807   -0.000417641   -0.000437465
     21        8          -0.001247590    0.002216546   -0.000132836
     22        8           0.002660997    0.001996554   -0.000314709
 -------------------------------------------------------------------
 Cartesian Forces:  Max     0.010349164 RMS     0.002402387

 GradGradGradGradGradGradGradGradGradGradGradGradGradGradGradGradGradGrad
 Berny optimization.
 Using GEDIIS/GDIIS optimizer.
 FormGI is forming the generalized inverse of G from B-inverse, IUseBI=4.
 Internal  Forces:  Max     0.007645161 RMS     0.002220002
 Search for a local minimum.
 Step number   2 out of a maximum of  100
 All quantities printed in internal units (Hartrees-Bohrs-Radians)
 Mixed Optimization -- RFO/linear search
 Update second derivatives using D2CorX and points    1    2
 DE= -4.50D-03 DEPred=-5.33D-03 R= 8.44D-01
 TightC=F SS=  1.41D+00  RLast= 2.45D-01 DXNew= 5.0454D-01 7.3636D-01
 Trust test= 8.44D-01 RLast= 2.45D-01 DXMaxT set to 5.05D-01
 ITU=  1  0
 Use linear search instead of GDIIS.
     Eigenvalues ---    0.00834   0.00859   0.00911   0.00954   0.01182
     Eigenvalues ---    0.01237   0.01715   0.01727   0.01955   0.02087
     Eigenvalues ---    0.02093   0.02876   0.02909   0.06185   0.07114
     Eigenvalues ---    0.07234   0.07293   0.07378   0.07499   0.11229
     Eigenvalues ---    0.13986   0.14621   0.15997   0.15999   0.15999
     Eigenvalues ---    0.16000   0.16000   0.16000   0.16000   0.16000
     Eigenvalues ---    0.16079   0.21701   0.22000   0.22001   0.22006
     Eigenvalues ---    0.23183   0.24018   0.25000   0.28813   0.32006
     Eigenvalues ---    0.32959   0.33045   0.33301   0.33392   0.33543
     Eigenvalues ---    0.33559   0.33634   0.33659   0.33839   0.33874
     Eigenvalues ---    0.34418   0.34503   0.34553   0.35228   0.36263
     Eigenvalues ---    0.41286   0.48807   0.57137   0.57583   0.99219
 RFO step:  Lambda=-1.31762816D-03 EMin= 8.33605218D-03
 Quartic linear search produced a step of -0.08356.
 Iteration  1 RMS(Cart)=  0.04730415 RMS(Int)=  0.00071712
 Iteration  2 RMS(Cart)=  0.00121985 RMS(Int)=  0.00005689
 Iteration  3 RMS(Cart)=  0.00000070 RMS(Int)=  0.00005689
 Variable       Old X    -DE/DX   Delta X   Delta X   Delta X     New X
                                 (Linear)    (Quad)   (Total)
    R1        2.06004   0.00060   0.00049   0.00036   0.00084   2.06089
    R2        2.78981  -0.00354  -0.00195  -0.00392  -0.00587   2.78394
    R3        2.53886  -0.00031  -0.00048   0.00072   0.00024   2.53910
    R4        2.05326   0.00135   0.00175  -0.00078   0.00097   2.05423
    R5        2.53531  -0.00081  -0.00045  -0.00014  -0.00059   2.53472
    R6        2.05893   0.00079   0.00047   0.00092   0.00138   2.06031
    R7        2.83884  -0.00099  -0.00209   0.00258   0.00049   2.83933
    R8        2.07612  -0.00043   0.00029  -0.00188  -0.00159   2.07453
    R9        2.07006  -0.00022   0.00047  -0.00178  -0.00131   2.06875
   R10        2.07649  -0.00059   0.00022  -0.00215  -0.00193   2.07457
   R11        2.05766   0.00037   0.00052  -0.00033   0.00019   2.05785
   R12        2.84532  -0.00601  -0.00171  -0.01233  -0.01404   2.83128
   R13        2.07329   0.00009   0.00151  -0.00356  -0.00205   2.07124
   R14        2.07388  -0.00008   0.00144  -0.00384  -0.00240   2.07147
   R15        2.75217  -0.00747   0.00104  -0.02122  -0.02019   2.73198
   R16        2.82895   0.00723  -0.00178   0.02389   0.02211   2.85106
   R17        2.58837  -0.00717   0.00164  -0.01747  -0.01583   2.57254
   R18        2.29570  -0.00298  -0.00039  -0.00177  -0.00216   2.29355
   R19        2.06946  -0.00035   0.00098  -0.00341  -0.00243   2.06703
   R20        2.06202  -0.00099   0.00208  -0.00796  -0.00588   2.05614
   R21        2.06934  -0.00039   0.00097  -0.00351  -0.00254   2.06680
    A1        2.01363   0.00092  -0.00145   0.00837   0.00691   2.02054
    A2        2.07404  -0.00031   0.00377  -0.01173  -0.00796   2.06608
    A3        2.19517  -0.00060  -0.00230   0.00329   0.00099   2.19616
    A4        2.02526   0.00108  -0.00165   0.01013   0.00847   2.03373
    A5        2.18267  -0.00017  -0.00098   0.00177   0.00079   2.18346
    A6        2.07515  -0.00091   0.00264  -0.01191  -0.00927   2.06587
    A7        2.07985  -0.00092   0.00365  -0.01463  -0.01098   2.06887
    A8        2.18247  -0.00026  -0.00215   0.00434   0.00219   2.18466
    A9        2.02078   0.00119  -0.00149   0.01026   0.00877   2.02955
   A10        1.94179  -0.00052  -0.00022  -0.00237  -0.00260   1.93920
   A11        1.95705  -0.00095   0.00177  -0.00931  -0.00755   1.94950
   A12        1.94398  -0.00094  -0.00038  -0.00496  -0.00536   1.93863
   A13        1.88026   0.00100  -0.00111   0.00945   0.00834   1.88860
   A14        1.85644   0.00058   0.00084   0.00017   0.00100   1.85744
   A15        1.87977   0.00102  -0.00100   0.00825   0.00722   1.88699
   A16        2.09201   0.00187   0.00370  -0.00071   0.00299   2.09500
   A17        2.20798  -0.00257  -0.00321  -0.00253  -0.00575   2.20223
   A18        1.98315   0.00071  -0.00048   0.00322   0.00274   1.98590
   A19        1.91841   0.00116   0.00252  -0.00483  -0.00213   1.91628
   A20        1.92121   0.00070   0.00235  -0.00820  -0.00567   1.91554
   A21        1.93634  -0.00765  -0.00633  -0.01654  -0.02281   1.91353
   A22        1.88761  -0.00066   0.00356  -0.00784  -0.00432   1.88330
   A23        1.89901   0.00324  -0.00105   0.01871   0.01757   1.91657
   A24        1.90038   0.00343  -0.00126   0.01941   0.01803   1.91841
   A25        2.04849   0.00700   0.00322   0.01734   0.02057   2.06906
   A26        2.16713  -0.00175   0.00364  -0.01556  -0.01192   2.15521
   A27        2.06756  -0.00525  -0.00687  -0.00178  -0.00865   2.05891
   A28        1.94420  -0.00048   0.00176  -0.00755  -0.00579   1.93840
   A29        1.90786  -0.00164   0.00241  -0.01479  -0.01239   1.89546
   A30        1.94502  -0.00046   0.00172  -0.00728  -0.00556   1.93947
   A31        1.89387   0.00122  -0.00310   0.01518   0.01207   1.90594
   A32        1.87715   0.00027  -0.00013   0.00063   0.00051   1.87766
   A33        1.89433   0.00122  -0.00311   0.01534   0.01221   1.90654
   A34        2.11269   0.00496  -0.00027   0.01874   0.01847   2.13116
    D1        0.60160  -0.00052   0.00199  -0.03807  -0.03608   0.56552
    D2       -2.52386  -0.00050   0.00176  -0.03698  -0.03521  -2.55908
    D3       -2.51099  -0.00048   0.00123  -0.03505  -0.03382  -2.54481
    D4        0.64672  -0.00046   0.00101  -0.03395  -0.03294   0.61378
    D5       -3.08756   0.00018  -0.00292   0.01312   0.01020  -3.07736
    D6        0.03942   0.00016  -0.00260   0.01099   0.00839   0.04781
    D7        0.02413   0.00016  -0.00220   0.01031   0.00811   0.03224
    D8       -3.13208   0.00014  -0.00189   0.00819   0.00630  -3.12578
    D9        0.03336   0.00006  -0.00266   0.00828   0.00563   0.03898
   D10       -3.11928   0.00003  -0.00249   0.00667   0.00418  -3.11510
   D11       -3.09168   0.00007  -0.00286   0.00921   0.00636  -3.08532
   D12        0.03887   0.00003  -0.00269   0.00760   0.00491   0.04378
   D13       -2.08245  -0.00022   0.00035  -0.00861  -0.00826  -2.09071
   D14        0.02466   0.00003   0.00000  -0.00462  -0.00462   0.02004
   D15        2.13269   0.00002  -0.00032  -0.00402  -0.00434   2.12835
   D16        1.04497  -0.00025   0.00068  -0.01086  -0.01018   1.03479
   D17       -3.13110   0.00000   0.00033  -0.00687  -0.00654  -3.13764
   D18       -1.02307  -0.00002   0.00001  -0.00627  -0.00626  -1.02933
   D19       -2.04218   0.00005   0.00395  -0.01873  -0.01487  -2.05705
   D20        2.16358  -0.00028  -0.00389  -0.00103  -0.00481   2.15877
   D21        0.05892  -0.00006   0.00022  -0.00917  -0.00896   0.04996
   D22        1.08896   0.00003   0.00413  -0.02027  -0.01623   1.07273
   D23       -0.98847  -0.00030  -0.00371  -0.00257  -0.00618  -0.99464
   D24       -3.09313  -0.00008   0.00040  -0.01071  -0.01033  -3.10345
   D25       -3.12715  -0.00009  -0.00059   0.00627   0.00566  -3.12149
   D26       -1.01457  -0.00134  -0.00190   0.00208  -0.00009  -1.01466
   D27        1.03908   0.00163   0.00105   0.01421   0.01554   1.05462
   D28        1.05371  -0.00014   0.00110  -0.00365  -0.00256   1.05115
   D29       -3.13669   0.00000  -0.00005   0.00082   0.00078  -3.13591
   D30       -1.04282   0.00016  -0.00123   0.00565   0.00443  -1.03839
   D31       -2.08840  -0.00011   0.00116  -0.00187  -0.00072  -2.08912
   D32        0.00438   0.00003   0.00002   0.00261   0.00262   0.00700
   D33        2.09825   0.00019  -0.00116   0.00743   0.00627   2.10453
   D34       -0.00046   0.00008  -0.00017   0.00412   0.00396   0.00350
   D35       -3.14156   0.00005  -0.00023   0.00245   0.00221  -3.13935
         Item               Value     Threshold  Converged?
 Maximum Force            0.007645     0.000450     NO 
 RMS     Force            0.002220     0.000300     NO 
 Maximum Displacement     0.176377     0.001800     NO 
 RMS     Displacement     0.047718     0.001200     NO 
 Predicted change in Energy=-7.133556D-04
 GradGradGradGradGradGradGradGradGradGradGradGradGradGradGradGradGradGrad

                          Input orientation:                          
 ---------------------------------------------------------------------
 Center     Atomic      Atomic             Coordinates (Angstroms)
 Number     Number       Type             X           Y           Z
 ---------------------------------------------------------------------
      1          6           0        2.592389   -0.613799   -0.320226
      2          1           0        2.933976   -1.474438   -0.896395
      3          6           0        1.132661   -0.426934   -0.252515
      4          1           0        0.526671   -1.329330   -0.264197
      5          6           0        3.512700    0.154648    0.286294
      6          1           0        3.171749    0.979394    0.912580
      7          6           0        4.999770   -0.038136    0.191454
      8          1           0        5.438801   -0.219667    1.181125
      9          1           0        5.258030   -0.881319   -0.457227
     10          1           0        5.489823    0.860496   -0.205412
     11          6           0        0.508607    0.759084   -0.197338
     12          1           0        1.086291    1.681328   -0.237299
     13          6           0       -0.970329    0.976419   -0.095997
     14          1           0       -1.327424    1.517391   -0.979832
     15          1           0       -1.195496    1.586597    0.786378
     16          6           0       -2.998560   -0.398109    0.083669
     17          6           0       -3.816308    0.869626    0.064654
     18          1           0       -3.653863    1.428341   -0.861574
     19          1           0       -4.868777    0.604969    0.143044
     20          1           0       -3.546584    1.525168    0.897544
     21          8           0       -1.643236   -0.299325    0.002667
     22          8           0       -3.484486   -1.507207    0.166283
 ---------------------------------------------------------------------
                    Distance matrix (angstroms):
                    1          2          3          4          5
     1  C    0.000000
     2  H    1.090574   0.000000
     3  C    1.473197   2.180959   0.000000
     4  H    2.186850   2.493160   1.087051   0.000000
     5  C    1.343633   2.094659   2.508613   3.379585   0.000000
     6  H    2.096123   3.057813   2.737350   3.702897   1.090270
     7  C    2.527585   2.741147   3.911880   4.677971   1.502510
     8  H    3.242138   3.487792   4.543251   5.239210   2.156548
     9  H    2.682532   2.438419   4.155363   4.756441   2.161534
    10  H    3.252976   3.530118   4.543628   5.425097   2.156157
    11  C    2.498411   3.370418   1.341316   2.089562   3.102228
    12  H    2.746419   3.715805   2.108827   3.062345   2.914166
    13  C    3.907945   4.678775   2.533074   2.754229   4.573730
    14  H    4.510209   5.207450   3.218914   3.471833   5.185262
    15  H    4.518228   5.408715   3.248680   3.545729   4.946481
    16  C    5.609667   6.108518   4.144978   3.662709   6.537821
    17  C    6.589391   7.210034   5.125813   4.879039   7.367135
    18  H    6.593865   7.199095   5.169508   5.043657   7.368821
    19  H    7.574233   8.141703   6.102340   5.746148   8.394788
    20  H    6.614010   7.362983   5.198911   5.107760   7.217025
    21  O    4.259539   4.810413   2.790521   2.416738   5.183648
    22  O    6.161435   6.505922   4.760297   4.038111   7.192829
                    6          7          8          9         10
     6  H    0.000000
     7  C    2.212928   0.000000
     8  H    2.578641   1.097793   0.000000
     9  H    3.113068   1.094734   1.776136   0.000000
    10  H    2.576337   1.097814   1.758363   1.775122   0.000000
    11  C    2.893575   4.577911   5.211999   5.031450   4.982255
    12  H    2.482754   4.296010   4.956819   4.900911   4.479495
    13  C    4.263103   6.062511   6.643690   6.509542   6.462119
    14  H    4.910521   6.620042   7.312244   7.028167   6.892467
    15  H    4.411060   6.432341   6.887112   7.020339   6.797379
    16  C    6.376309   8.007152   8.510306   8.288386   8.586053
    17  C    7.040168   8.863596   9.385633   9.256445   9.310054
    18  H    7.066693   8.839954   9.463883   9.215197   9.184770
    19  H    8.085940   9.889598  10.392488  10.252882  10.367609
    20  H    6.740482   8.716803   9.157620   9.227557   9.127703
    21  O    5.064301   6.650819   7.179858   6.941015   7.229731
    22  O    7.144621   8.610541   9.072636   8.787041   9.288833
                   11         12         13         14         15
    11  C    0.000000
    12  H    1.088967   0.000000
    13  C    1.498251   2.178658   0.000000
    14  H    2.135026   2.530662   1.096053   0.000000
    15  H    2.134582   2.502687   1.096177   1.772482   0.000000
    16  C    3.703820   4.594898   2.456690   2.755516   2.771984
    17  C    4.334253   4.978505   2.852509   2.775805   2.811332
    18  H    4.267935   4.787774   2.826959   2.331144   2.963842
    19  H    5.390349   6.063501   3.923392   3.825512   3.856224
    20  H    4.269687   4.772398   2.815198   2.906763   2.354516
    21  O    2.406379   3.380959   1.445704   2.089377   2.090783
    22  O    4.605767   5.587633   3.543751   3.887761   3.898155
                   16         17         18         19         20
    16  C    0.000000
    17  C    1.508716   0.000000
    18  H    2.158431   1.093824   0.000000
    19  H    2.123064   1.088062   1.778543   0.000000
    20  H    2.159100   1.093705   1.765044   1.778828   0.000000
    21  O    1.361332   2.468305   2.788255   3.352845   2.784298
    22  O    1.213692   2.402034   3.114903   2.525488   3.119919
                   21         22
    21  O    0.000000
    22  O    2.208156   0.000000
 Stoichiometry    C8H12O2
 Framework group  C1[X(C8H12O2)]
 Deg. of freedom    60
 Full point group                 C1      NOp   1
 Largest Abelian subgroup         C1      NOp   1
 Largest concise Abelian subgroup C1      NOp   1
[...]
 26520,0.00029663,0.00065588,0.00014148,0.00039034,0.00015152,0.0000252
 2,-0.00001844,-0.00000973,-0.00012792,0.00001760,0.00001302,0.00005761
 ,-0.00003064,-0.00000847,-0.12210519,-0.25155766,0.00653258,0.13215586
 ,0.26956242,-0.00329561,-0.00043768,-0.00748333,0.00040110,-0.00028397
 ,0.00017694,0.00257446,-0.00274449,0.00626160,0.00027801,-0.00114400,0
 .01045477,-0.00020617,0.00198268,0.00040196,-0.00081107,-0.00027923,0.
 00003420,-0.00000772,-0.00048488,0.00007600,0.00002534,0.00003373,0.00
 001129,0.00010020,0.00002589,-0.00004542,-0.00012761,-0.00001665,-0.00
 000276,0.00566239,0.00785048,-0.03666845,-0.00596322,-0.00643071,0.023
 75720,0.00348016,0.00026073,0.00149756,0.00021217,0.00006393,-0.000607
 48,-0.01913314,0.01075658,0.00231349,-0.00048095,-0.00214234,-0.000306
 20,-0.00033136,-0.00084580,0.00010181,-0.00002518,-0.00022954,-0.00007
 258,0.00007536,0.00024580,-0.00009531,0.00012411,-0.00006838,0.0000353
 6,0.00009836,-0.00008079,-0.00006675,0.00020756,-0.00004103,-0.0000833
 9,-0.21453199,0.03247711,0.00882773,-0.00990978,0.00296708,0.00054524,
 0.49537807,-0.00175461,-0.00406850,-0.00016270,0.00149998,-0.00026800,
 -0.00014807,0.03093972,0.00021411,-0.00169808,0.00047311,-0.00116740,-
 0.00012902,0.00009776,-0.00027891,-0.00022123,0.00007462,0.00012218,0.
 00039569,0.00023218,0.00077673,-0.00009835,0.00017367,-0.00008372,0.00
 005602,-0.00003085,-0.00005810,-0.00003032,0.00039736,-0.00006411,-0.0
 0008598,0.01811453,-0.09111378,-0.00155605,-0.02544205,0.00388275,0.00
 177159,-0.05654965,0.47960110,0.00187094,0.00128717,0.01298806,-0.0015
 2394,0.00016489,-0.00016222,0.00068761,-0.00129200,0.00394588,-0.00018
 672,0.00074260,-0.00650635,0.00075541,-0.00125438,-0.00054714,0.000212
 65,-0.00004183,0.00023569,0.00010894,0.00088868,-0.00057322,-0.0000586
 2,-0.00013166,-0.00004027,0.00000399,-0.00009721,0.00002389,0.00034562
 ,0.00001064,0.00000356,0.00952525,-0.00291531,-0.07173549,0.00003730,-
 0.00033178,0.00136204,0.00676225,0.00279196,0.56679665,-0.00015436,0.0
 0064794,0.00226627,-0.00068776,0.00003846,0.00013089,-0.00240471,-0.00
 234444,-0.00061998,0.00004851,0.00011648,-0.00104252,0.00026424,0.0002
 8146,0.00000961,0.00006167,-0.00006660,0.00001254,-0.00008327,-0.00009
 602,-0.00014983,-0.00011645,0.00001925,-0.00002374,-0.00001379,0.00001
 810,0.00002556,-0.00011172,0.00003155,0.00005181,-0.01368810,0.0196356
 6,-0.02345341,0.00028744,-0.00068208,0.00079286,-0.07551704,0.04504499
 ,-0.07322540,0.08798014,0.00027890,-0.00010756,-0.00035557,0.00003545,
 0.00000903,-0.00000609,-0.00018307,0.00132737,0.00008387,-0.00028246,0
 .00002927,0.00053841,-0.00012422,-0.00000667,-0.00003180,-0.00003509,-
 0.00003425,0.00002026,0.00000637,-0.00005053,-0.00000116,-0.00001965,0
 .00000904,-0.00000616,0.00000110,0.00001064,0.00000309,-0.00003434,0.0
 0000516,0.00001050,0.00656402,-0.00155969,0.00382892,0.00040281,0.0002
 3382,-0.00010712,0.03862219,-0.10763084,0.09627388,-0.04210598,0.12898
 702,-0.00021006,-0.00007954,-0.00048914,0.00006823,-0.00005805,0.00003
 869,0.00080071,-0.00072213,-0.00009964,0.00003898,-0.00005867,0.000113
 40,0.00007180,0.00011124,0.00001379,0.00000088,-0.00000961,0.00001220,
 -0.00001394,-0.00003560,-0.00000372,-0.00000990,0.00001121,0.00000031,
 -0.00000391,0.00000669,0.00000137,-0.00002079,-0.00000091,0.00000792,0
 .00059430,-0.00279800,0.00594462,-0.00084498,0.00017651,0.00011177,-0.
 06638434,0.10038719,-0.21167389,0.07292220,-0.11225906,0.22229484,-0.0
 0074955,-0.00009309,-0.00295185,-0.00002518,0.00004272,0.00014126,-0.0
 0206160,-0.00192668,0.00089618,0.00014930,-0.00008178,0.00095924,-0.00
 008555,0.00071658,0.00026391,-0.00001081,0.00004310,-0.00015900,-0.000
 15341,-0.00050802,0.00015743,-0.00008892,0.00008025,-0.00001307,-0.000
 02042,0.00004564,0.00001799,-0.00025671,0.00003950,0.00005846,-0.01000
 478,0.01977079,0.02623012,0.00028763,-0.00067276,-0.00082113,-0.059495
 04,0.03007392,0.05204323,0.00387221,-0.00402763,-0.00980108,0.07064369
 ,0.00067369,-0.00007347,0.00030870,-0.00000822,0.00002969,-0.00003029,
 -0.00044635,0.00154476,0.00011705,-0.00029958,0.00012871,-0.00037358,-
 0.00011865,-0.00023173,-0.00007647,0.00000216,0.00003177,-0.00001808,0
 .00001048,-0.00001526,0.00001943,-0.00000529,0.00000070,-0.00000566,-0
 .00000720,0.00000427,0.00000564,-0.00001984,0.00000400,0.00000844,0.00
 603211,-0.00183371,-0.00498508,0.00022012,0.00020358,0.00012110,0.0243
 8526,-0.10504939,-0.09914218,-0.00236804,0.00989472,0.01286435,-0.0252
 9437,0.12605580,0.00034044,0.00009022,0.00000064,0.00006220,-0.0000278
 0,0.00000253,-0.00059322,0.00128536,-0.00017250,-0.00004205,0.00001911
 ,0.00004615,-0.00007481,-0.00019660,-0.00008341,-0.00001115,-0.0000376
 6,0.00003601,0.00002939,0.00006297,-0.00002333,0.00001504,-0.00000952,
 0.00000918,0.00000638,-0.00000390,-0.00000719,0.00003827,-0.00001223,-
 0.00001391,0.00172122,-0.00016319,0.00220833,0.00083289,-0.00008135,0.
 00014704,0.04533918,-0.10375934,-0.22943969,0.00628612,-0.01210509,-0.
 02215174,-0.05146808,0.11536309,0.24115361,-0.00054130,0.00111879,0.00
 063216,0.00063065,-0.00024969,-0.00023190,0.00056573,-0.00112149,-0.00
 026380,-0.00117803,0.00122625,0.00006993,0.00037736,-0.00059943,-0.000
 04742,-0.00011064,-0.00005144,-0.00010762,0.00015627,0.00052100,0.0001
 5582,0.00035405,-0.00012301,0.00009663,0.00008852,-0.00013522,-0.00009
 142,0.00041599,-0.00002510,-0.00014756,-0.00021329,0.00458694,-0.00000
 425,0.00277476,0.00011752,-0.00019187,-0.02987221,-0.03390564,0.001104
 09,0.00382748,0.00791875,-0.00270720,0.00395612,0.00793105,0.00223575,
 0.56356106,-0.00021146,0.00068288,0.00026073,0.00028201,-0.00010199,-0
 .00010908,0.00168903,-0.00033763,-0.00023941,-0.00055680,0.00119857,0.
 00008850,0.00027926,-0.00028025,-0.00003528,-0.00002667,0.00000080,-0.
 00003671,0.00006652,0.00020405,0.00008447,0.00013385,-0.00003304,0.000
 03064,0.00003061,-0.00005098,-0.00004122,0.00013779,-0.00001839,-0.000
 04300,-0.00110148,-0.00509725,0.00001243,-0.00062005,0.00056488,0.0000
 2244,-0.03609339,-0.00760468,0.00144866,-0.00055889,0.00001166,0.00088
 522,-0.00065597,0.00002813,-0.00083864,0.13393011,0.92262908,0.0000175
 0,-0.00000609,0.00004720,-0.00003020,0.00000078,0.00001868,-0.00000042
 ,0.00004445,-0.00008306,-0.00000880,-0.00002651,-0.00013012,-0.0000026
 0,0.00003901,-0.00000199,0.00000716,-0.00001783,0.00000851,-0.00001011
 ,-0.00002359,-0.00001154,-0.00002464,0.00000719,-0.00000564,-0.0000014
 7,0.00000232,0.00000371,-0.00001678,0.00000550,0.00000844,0.00008349,-
 0.00004038,-0.00040925,-0.00000740,-0.00001380,0.00074734,0.00123626,0
 .00124313,-0.01151051,0.00170778,0.00129742,0.00085910,-0.00218776,-0.
 00207119,0.00088326,-0.01570559,-0.01624767,0.22342559,0.00002866,-0.0
 0017788,-0.00005757,-0.00008931,0.00003166,0.00002770,-0.00045880,0.00
 009570,0.00006186,0.00008403,-0.00028067,-0.00002349,-0.00005719,0.000
 09119,0.00003214,0.00001612,0.00000210,0.00000644,-0.00002189,-0.00006
 270,-0.00003940,-0.00004688,0.00001514,-0.00000889,-0.00000878,0.00001
 491,0.00000963,-0.00005234,0.00000356,0.00001777,0.00002953,0.00067347
 ,-0.00002222,-0.00016382,-0.00004829,0.00002853,-0.00280315,0.00474951
 ,0.00012329,-0.00135263,-0.00021862,-0.00058895,-0.00112635,-0.0003282
 8,0.00060779,-0.12230280,0.05210012,0.00016091,0.57795067,-0.00001251,
 -0.00001466,0.00000485,-0.00000646,0.00000144,0.00000432,-0.00016959,0
 .00012401,0.00001717,-0.00002197,-0.00005710,-0.00001155,-0.00001881,-
 0.00000192,-0.00000565,-0.00000168,-0.00000194,0.00000412,-0.00000119,
 0.00000165,-0.00000279,-0.00000015,-0.00000245,0.00000189,-0.00000048,
 -0.00000025,0.00000033,0.00000461,0.00000151,-0.00000241,0.00029384,0.
 00007758,-0.00004073,0.00002466,0.00000020,0.00000326,0.00066950,-0.00
 066007,-0.00003897,-0.00088045,0.00035611,-0.00027688,-0.00085241,0.00
 034301,0.00031056,0.04870938,-0.14782435,-0.00119645,0.06364024,0.5057
 5055,0.00000440,-0.00000160,0.00005389,-0.00000175,-0.00000284,0.00000
 170,0.00004697,-0.00000665,-0.00006869,0.00000969,-0.00000019,0.000035
 23,0.00000675,-0.00000405,-0.00000177,0.00000014,-0.00000194,0.0000012
 3,-0.00000202,0.00000457,-0.00000287,0.00000101,-0.00000157,-0.0000001
 3,0.00000098,-0.00000233,0.00000066,0.00000379,0.00000114,0.00000056,-
 0.00010654,-0.00007467,-0.00068415,-0.00000662,0.00000289,-0.00003392,
 0.00021594,-0.00011595,0.00037542,0.00070012,0.00036152,-0.00008706,-0
 .00049392,-0.00031808,-0.00023903,0.00051739,-0.00169774,-0.09407338,-
 0.00364565,-0.00073268,0.53737958,0.00000145,0.00000400,0.00000427,0.0
 0002667,-0.00000607,-0.00000951,0.00008539,-0.00001452,-0.00001458,0.0
 0002077,-0.00000432,0.00001498,-0.00000269,-0.00002094,-0.00000342,-0.
 00000332,0.00000061,-0.00000307,0.00000520,0.00001653,0.00000699,0.000
 01114,-0.00000398,0.00000276,0.00000286,-0.00000450,-0.00000326,0.0000
 1311,-0.00000149,-0.00000540,-0.00017790,-0.00029001,0.00008327,-0.000
 00823,0.00000929,-0.00001332,-0.00139293,0.00168221,-0.00116808,-0.001
 82548,-0.00016147,0.00035600,0.00019434,-0.00016954,0.00003965,0.00497
 277,0.00510732,-0.01981396,-0.05426726,-0.01857321,0.03471441,0.054750
 65,0.00000213,0.00000105,0.00002807,-0.00000663,-0.00000082,0.00000293
 ,-0.00005307,-0.00001699,-0.00000197,-0.00002453,-0.00000157,-0.000017
 89,0.00000584,0.00000475,0.00000300,0.00000026,-0.00000193,-0.00000089
 ,-0.00000086,-0.00000221,-0.00000600,-0.00000289,0.00000078,-0.0000007
 7,0.00000003,-0.00000018,0.00000066,-0.00000265,0.00000094,0.00000191,
 0.00000265,0.00014222,-0.00014655,0.00001637,-0.00000360,0.00001737,-0
 .00000642,0.00042127,0.00023176,0.00014717,0.00048590,-0.00003719,0.00
 012521,0.00003635,-0.00017081,-0.00819931,-0.01418640,0.02562100,-0.01
 968964,-0.11627699,0.12229160,0.02193114,0.12622790,-0.00001377,-0.000
 02750,-0.00002432,0.00003001,-0.00000719,-0.00000670,0.00014530,0.0000
 4903,0.00000438,0.00000414,-0.00001926,0.00000720,-0.00000040,-0.00001
 417,-0.00000121,-0.00000341,0.00000105,-0.00000308,0.00000409,0.000012
 44,0.00000302,0.00000784,-0.00000207,0.00000236,0.00000215,-0.00000296
 ,-0.00000236,0.00000932,-0.00000137,-0.00000320,-0.00004518,-0.0003882
 6,0.00026413,-0.00001143,0.00001717,-0.00001155,0.00092252,0.00022738,
 -0.00015933,-0.00003533,-0.00012952,0.00064826,0.00003189,0.00015227,-
 0.00038638,-0.00014451,-0.00087265,0.00306001,0.03515090,0.11935906,-0
 .23332027,-0.03896435,-0.13016666,0.25174983,0.00002427,-0.00005357,-0
 .00001899,-0.00002128,0.00000804,0.00000735,-0.00010564,0.00006993,0.0
 0001160,0.00002239,-0.00007373,-0.00000507,-0.00001824,0.00002249,0.00
 000420,0.00000337,0.00000032,0.00000307,-0.00000553,-0.00001750,-0.000
 00774,-0.00001227,0.00000400,-0.00000308,-0.00000242,0.00000421,0.0000
 0287,-0.00001356,0.00000067,0.00000470,0.00013827,-0.00003294,0.000007
 05,-0.00005639,-0.00000388,0.00000778,0.00105746,0.00131551,-0.0000662
 2,0.00009501,-0.00005185,-0.00001974,0.00011223,-0.00004141,0.00001946
 ,-0.01847289,-0.00781921,0.00119464,-0.31138883,-0.06609618,0.01874641
 ,-0.00155716,-0.00019992,0.00002634,0.33407588,0.00000123,0.00006408,0
 .00000059,-0.00000919,0.00000019,0.00000081,-0.00006840,-0.00009545,-0
 .00000591,-0.00002961,0.00008039,0.00000929,0.00001578,0.00000221,-0.0
 0000320,0.00000063,0.00000059,-0.00000154,-0.00000073,-0.00000426,0.00
 000858,0.00000161,0.00000027,-0.00000060,-0.00000029,0.00000033,0.0000
 0009,-0.00000227,0.00000068,0.00000055,0.00011051,0.00043751,-0.000029
 34,0.00005878,-0.00001219,-0.00000631,-0.00175888,-0.00190735,0.000148
 62,-0.00004920,0.00018143,-0.00042494,0.00004914,0.00015753,0.00038699
 ,0.02978720,0.00736149,-0.00226927,-0.07334970,-0.06476040,0.00492492,
 -0.01521970,-0.00379734,-0.00084642,0.07177652,0.06986814,-0.00000602,
 -0.00000233,-0.00007190,0.00000851,0.00000011,-0.00000044,-0.00000098,
 0.00001092,0.00002997,0.00000147,-0.00000369,0.00004193,-0.00000574,0.
 00000368,-0.00000018,-0.00000030,0.00000212,-0.00000282,-0.00000013,-0
 .00000557,0.00000782,0.00000174,0.,-0.00000006,0.00000006,-0.00000012,
 -0.00000021,-0.00000131,0.00000020,-0.00000065,0.00004188,0.00000427,0
 .00031228,-0.00000079,-0.00000057,-0.00002095,-0.00007765,-0.00002672,
 -0.00073528,-0.00014219,-0.00019833,0.00021300,0.00015458,0.00016102,0
 .00024463,-0.00010381,0.00033196,-0.00239822,0.01893657,0.00444327,-0.
 04895351,0.02643104,0.00530418,-0.00040144,-0.02040130,-0.00524266,0.0
 4707772,0.00000787,0.00001781,0.00004411,0.00002120,-0.00000759,-0.000
 00972,0.00006679,-0.00001559,-0.00001688,0.00001366,0.00000349,-0.0000
 1132,-0.00000227,-0.00002528,-0.00000757,-0.00000338,-0.00000251,0.000
 00010,0.00000717,0.00002314,0.00000002,0.00001046,-0.00000437,0.000002
 86,0.00000327,-0.00000474,-0.00000323,0.00001626,-0.00000298,-0.000004
 74,-0.00017780,-0.00024665,-0.00005880,0.00000288,0.00001068,0.0000082
 7,-0.00150810,0.00174582,0.00145437,0.00012328,-0.00015134,-0.00012575
 ,-0.00187092,-0.00020210,-0.00037644,0.00739403,0.00636608,0.01881970,
 -0.06621112,-0.03751986,-0.05329633,0.00044974,0.00285075,0.00415800,-
 0.00463269,-0.01667323,-0.02467270,0.06788019,-0.00000138,-0.00000663,
 -0.00005114,-0.00000228,0.00000240,0.00000197,-0.00008061,-0.00000528,
 0.00002007,-0.00002005,-0.00000928,0.00002664,-0.00000203,0.00000676,0
 .00000546,0.00000059,0.00000370,-0.00000452,-0.00000114,-0.00000992,0.
 00000150,-0.00000082,0.00000125,-0.00000040,-0.00000077,0.00000141,0.0
 0000075,-0.00000656,0.00000076,0.00000122,0.00005878,0.00019778,0.0002
 2335,0.00001141,-0.00000656,-0.00002290,-0.00005036,0.00039264,-0.0003
 7779,0.00013874,0.00002219,0.00014584,0.00017224,0.00058423,0.00023177
 ,-0.01150161,-0.01548675,-0.02299979,-0.03846079,-0.13402923,-0.125434
 33,0.00438189,0.01125318,0.01375736,-0.00078771,-0.00400417,-0.0047967
 7,0.04231859,0.14529985,0.00001011,0.00002202,-0.00004932,-0.00002358,
 0.00000845,0.00000726,-0.00016630,-0.00003840,0.00003099,-0.00000618,0
 .00001902,0.00001292,-0.00000531,0.00002149,-0.00000066,0.00000281,0.0
 0000133,0.00000095,-0.00000485,-0.00002110,0.00000355,-0.00000771,0.00
 000309,-0.00000216,-0.00000264,0.00000403,0.00000237,-0.00001278,0.000
 00189,0.00000302,0.00011102,0.00043806,0.00018847,0.00001389,-0.000019
 54,-0.00001084,-0.00090745,-0.00041313,0.00005368,-0.00013877,-0.00013
 982,-0.00049663,0.00008730,0.00014043,0.00068063,0.00015989,0.00152949
 ,0.00213881,-0.05321188,-0.12292377,-0.20494269,-0.00692297,-0.0164460
 1,-0.02014246,0.00055704,0.00327105,0.00303294,0.05933592,0.13340906,0
 .22064327,0.00044336,-0.00212795,-0.00072344,-0.00046303,0.00024035,0.
 00022518,-0.00004969,0.00130345,0.00034273,-0.00286684,-0.00073734,0.0
 0018749,-0.00052937,0.00064044,-0.00001412,0.00015406,0.00008741,0.000
 32041,-0.00010475,-0.00035682,-0.00022020,-0.00037521,0.00011659,-0.00
 008860,-0.00011987,0.00014105,0.00009688,-0.00036203,0.00001355,0.0001
 3646,-0.02504101,-0.04884362,0.00147331,-0.00856012,0.00244382,0.00088
 010,-0.08601183,-0.03038689,0.00103105,0.00078489,-0.00398904,0.005070
 51,-0.00181248,-0.00755762,-0.00434052,-0.24424770,0.05912140,0.007288
 12,-0.03134282,0.00055259,0.00193593,-0.00128573,0.00004569,-0.0007546
 8,-0.00228511,0.00591578,0.00001298,-0.00134013,0.00023088,0.00094126,
 0.47380093,0.00029064,0.00064519,-0.00009817,-0.00023766,0.00003668,0.
 00008171,0.00245544,-0.00155617,-0.00038435,0.00231259,0.00091891,-0.0
 0005600,0.00005590,0.00003121,-0.00011841,0.00001972,0.00003286,0.0000
 7902,-0.00000360,-0.00008350,0.00006633,-0.00004369,0.00001765,-0.0000
 1747,-0.00003592,0.00003328,0.00002183,-0.00007543,0.00001576,0.000022
 61,-0.00972111,-0.00169058,0.00049568,0.00118139,0.00092233,0.00001142
 ,-0.01662700,-0.17750419,0.00189451,-0.01591319,-0.03076037,0.00204684
 ,-0.01588925,-0.03037452,-0.00034449,0.00852680,-0.10640197,0.00040289
 ,0.02451504,0.00848954,-0.00102773,-0.00123891,0.00004838,0.00056707,0
 .00293974,-0.00484844,0.00009299,-0.00141131,0.00028214,-0.00043493,0.
 09740104,0.35935539,0.00015816,0.00007821,0.00026489,0.00005337,-0.000
 00111,-0.00003574,-0.00013002,-0.00009462,0.00022710,0.00034760,0.0001
 6631,-0.00075263,0.00005844,-0.00012481,-0.00001820,-0.00000552,0.0000
 2866,-0.00004634,0.00001824,0.00003108,-0.00000535,0.00001686,-0.00000
 185,0.00000629,-0.00000197,0.00000053,-0.00000299,0.00001060,-0.000002
 89,-0.00000787,0.00178851,0.00282377,0.00257071,0.00045825,-0.00018443
 ,0.00093116,0.00059372,0.00208166,-0.05977667,0.01447559,0.02369979,0.
 00501927,-0.01388984,-0.02330991,0.00742563,0.00783612,-0.00174735,-0.
 04796342,0.00142209,0.00004748,0.01704027,0.00278535,-0.00241396,-0.00
 025679,0.00014629,-0.00000331,0.00200403,-0.00250917,0.00224589,-0.000
 16963,-0.01821116,-0.00701199,0.06051983,0.00018146,-0.00032455,-0.000
 22922,-0.00023154,0.00009403,0.00008269,0.00005590,0.00029287,0.000041
 54,0.00040864,-0.00022910,-0.00002781,-0.00010660,0.00022241,0.0000126
 7,0.00004395,0.00002178,0.00005342,-0.00005365,-0.00018618,-0.00004749
 ,-0.00012937,0.00004587,-0.00003648,-0.00003447,0.00005122,0.00003368,
 -0.00015411,0.00000824,0.00005475,0.00022795,-0.00392083,-0.00003948,-
 0.00146684,0.00029776,0.00013344,0.00037945,0.01145478,0.00016298,-0.0
 0138956,-0.00244480,0.00080703,-0.00145376,-0.00238839,-0.00066749,-0.
 17213595,-0.21160016,0.00729416,0.01358497,0.01026010,0.00064889,-0.00
 001338,0.00305868,-0.00051945,0.00304312,-0.00055597,-0.00017591,-0.00
 025040,0.00360297,0.00019118,-0.06838551,-0.07850124,0.00457850,0.2278
 7969,0.00019958,-0.00032172,-0.00029669,-0.00029722,0.00010784,0.00011
 293,-0.00043971,0.00009858,0.00009715,0.00036609,-0.00044780,-0.000018
 78,-0.00015888,0.00026539,-0.00000978,0.00004315,0.00001994,0.00006885
 ,-0.00005948,-0.00021061,-0.00003397,-0.00013164,0.00003823,-0.0000367
 3,-0.00004120,0.00005605,0.00004364,-0.00015585,0.00001868,0.00005078,
 0.00070543,-0.00249274,-0.00007787,-0.00111481,0.00014310,0.00011796,0
 .00404541,0.01204825,-0.00026025,-0.00105491,-0.00141347,0.00012548,-0
 .00115713,-0.00146918,0.00000055,-0.18846185,-0.63525789,0.01624888,-0
 .01331607,-0.05151623,0.00183572,0.00257566,-0.00433470,-0.00166481,-0
 .00096353,0.00127475,-0.00007795,0.00293119,-0.00449048,0.00156731,-0.
 07425476,-0.01760959,0.00369286,0.27074052,0.70549360,-0.00000985,0.00
 001162,0.00003932,0.00000335,0.00000288,-0.00001466,0.00000387,-0.0000
 4050,0.00004712,-0.00002374,0.00002136,-0.00005409,0.00000871,-0.00002
 993,0.00001011,-0.00000120,0.00000929,-0.00000506,0.00000542,0.0000198
 0,-0.00000351,0.00001238,-0.00000205,0.00000472,0.00000046,0.00000048,
 -0.00000269,0.00000936,-0.00000365,-0.00000401,-0.00001122,0.00015555,
 0.00024016,0.00005227,-0.00000634,-0.00019611,0.00021009,-0.00050967,0
 .00707519,-0.00055020,-0.00077791,-0.00027673,0.00074412,0.00106901,-0
 .00032045,0.00693920,0.01721419,-0.07461354,0.00101242,0.00103555,0.02
 751893,0.00248318,-0.00409381,-0.00102009,-0.00021665,0.00008201,-0.00
 037865,-0.00273069,0.00361676,-0.00098447,0.00441033,0.00371064,0.0130
 2645,-0.01235160,-0.02148527,0.02991206\\-0.00000106,-0.00000178,0.000
 00068,-0.00000150,-0.00000673,0.00000863,0.00000020,-0.00000319,0.0000
 0529,-0.00000167,-0.00000169,0.00000920,-0.00000015,-0.00000040,0.0000
 0032,0.00000039,0.00000111,-0.00000347,0.00000090,-0.00000370,0.000001
 38,0.00000010,0.00000407,-0.00000036,-0.00000142,-0.00000670,0.0000053
 0,-0.00000021,-0.00000613,-0.00000710,0.00000021,0.00000088,-0.0000028
 3,0.00000181,-0.00000204,-0.00000879,-0.00000076,-0.00000344,-0.000004
 78,0.00000063,-0.00000231,-0.00000694,0.00000091,0.00000594,-0.0000061
 4,-0.00000809,-0.00000435,0.00000593,-0.00000046,0.00000754,-0.0000013
 5,0.00000096,-0.00000202,-0.00000507,0.00000004,0.00000436,0.00000011,
 0.00000145,0.00000759,-0.00000535,0.00000586,0.00000446,0.00000371,0.0
 0000184,0.00000853,0.00001163\\\@


 SUPPORT THE RIGHT TO ARM BEARS!
 (ADD A CLAWS TO THE BILL OF RIGHTS)
 Job cpu time:       0 days  0 hours 18 minutes 22.9 seconds.
 File lengths (MBytes):  RWF=    172 Int=      0 D2E=      0 Chk=     12 Scr=      1
 Normal termination of Gaussian 09 at Thu Aug 27 16:47:32 2020.
