 Entering Gaussian System, Link 0=g09
 Input=b3lyp_TS2_scan2_diene_dienophile_pm6_cpcmtoluene_2.com
 Output=b3lyp_TS2_scan2_diene_dienophile_pm6_cpcmtoluene_2.log
 Initial command:
 /apps/applications/gaussian/G09.D01/2/default/g09/l1.exe "/local/713538.1.40core-192G.q/Gau-71068.inp" -scrdir="/local/713538.1.40core-192G.q/"
 Entering Link 1 = /apps/applications/gaussian/G09.D01/2/default/g09/l1.exe PID=     71069.
  
 Copyright (c) 1988,1990,1992,1993,1995,1998,2003,2009,2013,
            Gaussian, Inc.  All Rights Reserved.
  
 This is part of the Gaussian(R) 09 program.  It is based on
 the Gaussian(R) 03 system (copyright 2003, Gaussian, Inc.),
 the Gaussian(R) 98 system (copyright 1998, Gaussian, Inc.),
 the Gaussian(R) 94 system (copyright 1995, Gaussian, Inc.),
 the Gaussian 92(TM) system (copyright 1992, Gaussian, Inc.),
 the Gaussian 90(TM) system (copyright 1990, Gaussian, Inc.),
 the Gaussian 88(TM) system (copyright 1988, Gaussian, Inc.),
 the Gaussian 86(TM) system (copyright 1986, Carnegie Mellon
 University), and the Gaussian 82(TM) system (copyright 1983,
 Carnegie Mellon University). Gaussian is a federally registered
 trademark of Gaussian, Inc.
  
 This software contains proprietary and confidential information,
 including trade secrets, belonging to Gaussian, Inc.
  
 This software is provided under written license and may be
 used, copied, transmitted, or stored only in accord with that
 written license.
  
 The following legend is applicable only to US Government
 contracts under FAR:
  
                    RESTRICTED RIGHTS LEGEND
  
 Use, reproduction and disclosure by the US Government is
 subject to restrictions as set forth in subparagraphs (a)
 and (c) of the Commercial Computer Software - Restricted
 Rights clause in FAR 52.227-19.
  
 Gaussian, Inc.
 340 Quinnipiac St., Bldg. 40, Wallingford CT 06492
  
  
 ---------------------------------------------------------------
 Warning -- This program may not be used in any manner that
 competes with the business of Gaussian, Inc. or will provide
 assistance to any competitor of Gaussian, Inc.  The licensee
 of this program is prohibited from giving any competitor of
 Gaussian, Inc. access to this program.  By using this program,
 the user acknowledges that Gaussian, Inc. is engaged in the
 business of creating and licensing software in the field of
 computational chemistry and represents and warrants to the
 licensee that it is not a competitor of Gaussian, Inc. and that
 it will not use this program in any manner prohibited above.
 ---------------------------------------------------------------
  

 Cite this work as:
 Gaussian 09, Revision D.01,
 M. J. Frisch, G. W. Trucks, H. B. Schlegel, G. E. Scuseria, 
 M. A. Robb, J. R. Cheeseman, G. Scalmani, V. Barone, B. Mennucci, 
 G. A. Petersson, H. Nakatsuji, M. Caricato, X. Li, H. P. Hratchian, 
 A. F. Izmaylov, J. Bloino, G. Zheng, J. L. Sonnenberg, M. Hada, 
 M. Ehara, K. Toyota, R. Fukuda, J. Hasegawa, M. Ishida, T. Nakajima, 
 Y. Honda, O. Kitao, H. Nakai, T. Vreven, J. A. Montgomery, Jr., 
 J. E. Peralta, F. Ogliaro, M. Bearpark, J. J. Heyd, E. Brothers, 
 K. N. Kudin, V. N. Staroverov, T. Keith, R. Kobayashi, J. Normand, 
 K. Raghavachari, A. Rendell, J. C. Burant, S. S. Iyengar, J. Tomasi, 
 M. Cossi, N. Rega, J. M. Millam, M. Klene, J. E. Knox, J. B. Cross, 
 V. Bakken, C. Adamo, J. Jaramillo, R. Gomperts, R. E. Stratmann, 
 O. Yazyev, A. J. Austin, R. Cammi, C. Pomelli, J. W. Ochterski, 
 R. L. Martin, K. Morokuma, V. G. Zakrzewski, G. A. Voth, 
 P. Salvador, J. J. Dannenberg, S. Dapprich, A. D. Daniels, 
 O. Farkas, J. B. Foresman, J. V. Ortiz, J. Cioslowski, 
 and D. J. Fox, Gaussian, Inc., Wallingford CT, 2013.
 
 ******************************************
 Gaussian 09:  ES64L-G09RevD.01 24-Apr-2013
                27-Aug-2020 
 ******************************************
 %nprocshared=4
 Will use up to    4 processors via shared memory.
 ----------------------------------------------------------------------
 # opt=(calcfc,ts,noeigentest) b3lyp/6-31+g(d,p) scrf=(cpcm,solvent=tol
 uene) geom=connectivity empiricaldispersion=gd3
 ----------------------------------------------------------------------
 1/5=1,10=4,11=1,14=-1,18=20,26=3,38=1,57=2/1,3;
 2/9=110,12=2,17=6,18=5,40=1/2;
 3/5=1,6=6,7=111,11=2,16=1,25=1,30=1,70=2101,71=2,72=13,74=-5,124=31,140=1/1,2,3;
 4//1;
 5/5=2,38=5,53=13/2;
 8/6=4,10=90,11=11/1;
 11/6=1,8=1,9=11,15=111,16=1/1,2,10;
 10/6=1,13=1/2;
 6/7=2,8=2,9=2,10=2,28=1/1;
 7/10=1,18=20,25=1/1,2,3,16;
 1/5=1,10=4,11=1,14=-1,18=20,26=3/3(2);
 2/9=110/2;
 99//99;
 2/9=110/2;
 3/5=1,6=6,7=111,11=2,16=1,25=1,30=1,70=2105,71=1,72=13,74=-5,124=31/1,2,3;
 4/5=5,16=3,69=1/1;
 5/5=2,38=5,53=13/2;
 7//1,2,3,16;
 1/5=1,11=1,14=-1,18=20,26=3/3(-5);
 2/9=110/2;
 6/7=2,8=2,9=2,10=2,19=2,28=1/1;
 99/9=1/99;
 -------------------
 Title Card Required
 -------------------
 Symbolic Z-matrix:
 Charge =  0 Multiplicity = 1
 C                    -2.32519   0.80866  -0.64201 
 C                    -1.34175  -0.21283  -1.04985 
 C                    -0.05884   0.15323  -0.63322 
 C                    -0.16849   1.5315    0.01379 
 H                    -1.58092  -0.94655  -1.80173 
 H                     0.85674  -0.11508  -1.15642 
 C                    -2.12209   3.08778   0.57448 
 H                    -1.62019   3.97972   0.15979 
 H                    -3.19896   3.14963   0.33188 
 H                    -2.00944   3.10398   1.67236 
 N                    -1.54957   1.85616   0.00537 
 O                     0.71243   2.24053   0.4529 
 O                    -3.52649   0.87189  -0.76281 
 C                    -1.01674  -2.6593    0.22948 
 H                    -1.09188  -3.62321  -0.28144 
 C                     0.26869  -2.1801    0.54361 
 H                     1.13419  -2.80168   0.27955 
 C                    -2.14465  -1.88985   0.41679 
 H                    -2.14721  -1.05779   1.13192 
 C                    -3.47683  -2.28229  -0.10169 
 H                    -4.06017  -1.40341  -0.43608 
 H                    -3.43457  -2.97826  -0.95116 
 H                    -4.08016  -2.77092   0.68208 
 C                     0.49035  -0.8831    1.00801 
 H                    -0.26762  -0.39583   1.63943 
 C                     1.89775  -0.44965   1.33015 
 H                     2.2787   -0.93681   2.25102 
 H                     1.98924   0.65003   1.43185 
 C                     3.59426  -0.15251  -0.47639 
 C                     3.69738   1.29317  -0.17678 
 H                     4.35613   1.48533   0.68645 
 H                     4.12775   1.84927  -1.02674 
 H                     2.72275   1.77339   0.05121 
 O                     2.76764  -0.96529   0.28469 
 O                     4.18512  -0.76504  -1.33976 
 
 Add virtual bond connecting atoms C24        and C3         Dist= 3.81D+00.
 Add virtual bond connecting atoms H33        and O12        Dist= 3.97D+00.

 GradGradGradGradGradGradGradGradGradGradGradGradGradGradGradGradGradGrad
 Berny optimization.
 Initialization pass.
                           ----------------------------
                           !    Initial Parameters    !
                           ! (Angstroms and Degrees)  !
 --------------------------                            --------------------------
 ! Name  Definition              Value          Derivative Info.                !
 --------------------------------------------------------------------------------
 ! R1    R(1,2)                  1.4754         calculate D2E/DX2 analytically  !
 ! R2    R(1,11)                 1.4553         calculate D2E/DX2 analytically  !
 ! R3    R(1,13)                 1.209          calculate D2E/DX2 analytically  !
 ! R4    R(2,3)                  1.3977         calculate D2E/DX2 analytically  !
 ! R5    R(2,5)                  1.0774         calculate D2E/DX2 analytically  !
 ! R6    R(3,4)                  1.5265         calculate D2E/DX2 analytically  !
 ! R7    R(3,6)                  1.0881         calculate D2E/DX2 analytically  !
 ! R8    R(3,24)                 2.0172         calculate D2E/DX2 analytically  !
 ! R9    R(4,11)                 1.4187         calculate D2E/DX2 analytically  !
 ! R10   R(4,12)                 1.2131         calculate D2E/DX2 analytically  !
 ! R11   R(7,8)                  1.1043         calculate D2E/DX2 analytically  !
 ! R12   R(7,9)                  1.1056         calculate D2E/DX2 analytically  !
 ! R13   R(7,10)                 1.1038         calculate D2E/DX2 analytically  !
 ! R14   R(7,11)                 1.4726         calculate D2E/DX2 analytically  !
 ! R15   R(12,33)                2.1026         calculate D2E/DX2 analytically  !
 ! R16   R(14,15)                1.0935         calculate D2E/DX2 analytically  !
 ! R17   R(14,16)                1.4074         calculate D2E/DX2 analytically  !
 ! R18   R(14,18)                1.3782         calculate D2E/DX2 analytically  !
 ! R19   R(16,17)                1.0978         calculate D2E/DX2 analytically  !
 ! R20   R(16,24)                1.3954         calculate D2E/DX2 analytically  !
 ! R21   R(18,19)                1.0971         calculate D2E/DX2 analytically  !
 ! R22   R(18,20)                1.4824         calculate D2E/DX2 analytically  !
 ! R23   R(20,21)                1.1066         calculate D2E/DX2 analytically  !
 ! R24   R(20,22)                1.099          calculate D2E/DX2 analytically  !
 ! R25   R(20,23)                1.1032         calculate D2E/DX2 analytically  !
 ! R26   R(24,25)                1.1003         calculate D2E/DX2 analytically  !
 ! R27   R(24,26)                1.5074         calculate D2E/DX2 analytically  !
 ! R28   R(26,27)                1.1093         calculate D2E/DX2 analytically  !
 ! R29   R(26,28)                1.1082         calculate D2E/DX2 analytically  !
 ! R30   R(26,34)                1.4545         calculate D2E/DX2 analytically  !
 ! R31   R(29,30)                1.48           calculate D2E/DX2 analytically  !
 ! R32   R(29,34)                1.3868         calculate D2E/DX2 analytically  !
 ! R33   R(29,35)                1.2123         calculate D2E/DX2 analytically  !
 ! R34   R(30,31)                1.1027         calculate D2E/DX2 analytically  !
 ! R35   R(30,32)                1.1031         calculate D2E/DX2 analytically  !
 ! R36   R(30,33)                1.1102         calculate D2E/DX2 analytically  !
 ! A1    A(2,1,11)             105.429          calculate D2E/DX2 analytically  !
 ! A2    A(2,1,13)             132.1351         calculate D2E/DX2 analytically  !
 ! A3    A(11,1,13)            122.4359         calculate D2E/DX2 analytically  !
 ! A4    A(1,2,3)              110.3707         calculate D2E/DX2 analytically  !
 ! A5    A(1,2,5)              121.0914         calculate D2E/DX2 analytically  !
 ! A6    A(3,2,5)              126.1664         calculate D2E/DX2 analytically  !
 ! A7    A(2,3,4)              107.2708         calculate D2E/DX2 analytically  !
 ! A8    A(2,3,6)              124.363          calculate D2E/DX2 analytically  !
 ! A9    A(2,3,24)             110.9699         calculate D2E/DX2 analytically  !
 ! A10   A(4,3,6)              119.1351         calculate D2E/DX2 analytically  !
 ! A11   A(4,3,24)              97.9645         calculate D2E/DX2 analytically  !
 ! A12   A(6,3,24)              92.0311         calculate D2E/DX2 analytically  !
 ! A13   A(3,4,11)             105.9036         calculate D2E/DX2 analytically  !
 ! A14   A(3,4,12)             128.9754         calculate D2E/DX2 analytically  !
 ! A15   A(11,4,12)            125.1204         calculate D2E/DX2 analytically  !
 ! A16   A(8,7,9)              108.3675         calculate D2E/DX2 analytically  !
 ! A17   A(8,7,10)             108.378          calculate D2E/DX2 analytically  !
 ! A18   A(8,7,11)             110.7138         calculate D2E/DX2 analytically  !
 ! A19   A(9,7,10)             108.4725         calculate D2E/DX2 analytically  !
 ! A20   A(9,7,11)             109.9183         calculate D2E/DX2 analytically  !
 ! A21   A(10,7,11)            110.9158         calculate D2E/DX2 analytically  !
 ! A22   A(1,11,4)             110.8996         calculate D2E/DX2 analytically  !
 ! A23   A(1,11,7)             124.5202         calculate D2E/DX2 analytically  !
 ! A24   A(4,11,7)             124.5802         calculate D2E/DX2 analytically  !
 ! A25   A(4,12,33)            119.6893         calculate D2E/DX2 analytically  !
 ! A26   A(15,14,16)           117.8517         calculate D2E/DX2 analytically  !
 ! A27   A(15,14,18)           119.9605         calculate D2E/DX2 analytically  !
 ! A28   A(16,14,18)           121.8079         calculate D2E/DX2 analytically  !
 ! A29   A(14,16,17)           118.2687         calculate D2E/DX2 analytically  !
 ! A30   A(14,16,24)           122.4037         calculate D2E/DX2 analytically  !
 ! A31   A(17,16,24)           118.7579         calculate D2E/DX2 analytically  !
 ! A32   A(14,18,19)           120.9249         calculate D2E/DX2 analytically  !
 ! A33   A(14,18,20)           122.6929         calculate D2E/DX2 analytically  !
 ! A34   A(19,18,20)           115.255          calculate D2E/DX2 analytically  !
 ! A35   A(18,20,21)           111.664          calculate D2E/DX2 analytically  !
 ! A36   A(18,20,22)           113.7937         calculate D2E/DX2 analytically  !
 ! A37   A(18,20,23)           111.1152         calculate D2E/DX2 analytically  !
 ! A38   A(21,20,22)           106.8378         calculate D2E/DX2 analytically  !
 ! A39   A(21,20,23)           106.1503         calculate D2E/DX2 analytically  !
 ! A40   A(22,20,23)           106.8393         calculate D2E/DX2 analytically  !
 ! A41   A(3,24,16)             99.4095         calculate D2E/DX2 analytically  !
 ! A42   A(3,24,25)             92.971          calculate D2E/DX2 analytically  !
 ! A43   A(3,24,26)            106.2797         calculate D2E/DX2 analytically  !
 ! A44   A(16,24,25)           119.5512         calculate D2E/DX2 analytically  !
 ! A45   A(16,24,26)           119.1243         calculate D2E/DX2 analytically  !
 ! A46   A(25,24,26)           113.1532         calculate D2E/DX2 analytically  !
 ! A47   A(24,26,27)           111.8245         calculate D2E/DX2 analytically  !
 ! A48   A(24,26,28)           112.4595         calculate D2E/DX2 analytically  !
 ! A49   A(24,26,34)           107.628          calculate D2E/DX2 analytically  !
 ! A50   A(27,26,28)           109.3459         calculate D2E/DX2 analytically  !
 ! A51   A(27,26,34)           103.6277         calculate D2E/DX2 analytically  !
 ! A52   A(28,26,34)           111.6164         calculate D2E/DX2 analytically  !
 ! A53   A(30,29,34)           120.1942         calculate D2E/DX2 analytically  !
 ! A54   A(30,29,35)           127.1389         calculate D2E/DX2 analytically  !
 ! A55   A(34,29,35)           112.6583         calculate D2E/DX2 analytically  !
 ! A56   A(29,30,31)           111.7344         calculate D2E/DX2 analytically  !
 ! A57   A(29,30,32)           111.323          calculate D2E/DX2 analytically  !
 ! A58   A(29,30,33)           113.762          calculate D2E/DX2 analytically  !
 ! A59   A(31,30,32)           106.3942         calculate D2E/DX2 analytically  !
 ! A60   A(31,30,33)           106.7566         calculate D2E/DX2 analytically  !
 ! A61   A(32,30,33)           106.4198         calculate D2E/DX2 analytically  !
 ! A62   A(26,34,29)           122.9008         calculate D2E/DX2 analytically  !
 ! A63   L(12,33,30,15,-1)     167.0974         calculate D2E/DX2 analytically  !
 ! A64   L(12,33,30,15,-2)     180.5572         calculate D2E/DX2 analytically  !
 ! D1    D(11,1,2,3)             2.3273         calculate D2E/DX2 analytically  !
 ! D2    D(11,1,2,5)          -161.213          calculate D2E/DX2 analytically  !
 ! D3    D(13,1,2,3)          -177.648          calculate D2E/DX2 analytically  !
 ! D4    D(13,1,2,5)            18.8118         calculate D2E/DX2 analytically  !
 ! D5    D(2,1,11,4)            -0.0303         calculate D2E/DX2 analytically  !
 ! D6    D(2,1,11,7)           179.9419         calculate D2E/DX2 analytically  !
 ! D7    D(13,1,11,4)          179.948          calculate D2E/DX2 analytically  !
 ! D8    D(13,1,11,7)           -0.0798         calculate D2E/DX2 analytically  !
 ! D9    D(1,2,3,4)             -3.5554         calculate D2E/DX2 analytically  !
 ! D10   D(1,2,3,6)           -149.6788         calculate D2E/DX2 analytically  !
 ! D11   D(1,2,3,24)           102.3799         calculate D2E/DX2 analytically  !
 ! D12   D(5,2,3,4)            158.9537         calculate D2E/DX2 analytically  !
 ! D13   D(5,2,3,6)             12.8304         calculate D2E/DX2 analytically  !
 ! D14   D(5,2,3,24)           -95.1109         calculate D2E/DX2 analytically  !
 ! D15   D(2,3,4,11)             3.4322         calculate D2E/DX2 analytically  !
 ! D16   D(2,3,4,12)          -176.2975         calculate D2E/DX2 analytically  !
 ! D17   D(6,3,4,11)           151.6441         calculate D2E/DX2 analytically  !
 ! D18   D(6,3,4,12)           -28.0856         calculate D2E/DX2 analytically  !
 ! D19   D(24,3,4,11)         -111.524          calculate D2E/DX2 analytically  !
 ! D20   D(24,3,4,12)           68.7463         calculate D2E/DX2 analytically  !
 ! D21   D(2,3,24,16)           53.5747         calculate D2E/DX2 analytically  !
 ! D22   D(2,3,24,25)          -67.0359         calculate D2E/DX2 analytically  !
 ! D23   D(2,3,24,26)          177.793          calculate D2E/DX2 analytically  !
 ! D24   D(4,3,24,16)          165.5783         calculate D2E/DX2 analytically  !
 ! D25   D(4,3,24,25)           44.9677         calculate D2E/DX2 analytically  !
 ! D26   D(4,3,24,26)          -70.2034         calculate D2E/DX2 analytically  !
 ! D27   D(6,3,24,16)          -74.6276         calculate D2E/DX2 analytically  !
 ! D28   D(6,3,24,25)          164.7617         calculate D2E/DX2 analytically  !
 ! D29   D(6,3,24,26)           49.5906         calculate D2E/DX2 analytically  !
 ! D30   D(3,4,11,1)            -2.0307         calculate D2E/DX2 analytically  !
 ! D31   D(3,4,11,7)           177.9971         calculate D2E/DX2 analytically  !
 ! D32   D(12,4,11,1)          177.7124         calculate D2E/DX2 analytically  !
 ! D33   D(12,4,11,7)           -2.2598         calculate D2E/DX2 analytically  !
 ! D34   D(3,4,12,33)           11.5087         calculate D2E/DX2 analytically  !
 ! D35   D(11,4,12,33)        -168.1734         calculate D2E/DX2 analytically  !
 ! D36   D(8,7,11,1)          -126.2879         calculate D2E/DX2 analytically  !
 ! D37   D(8,7,11,4)            53.6806         calculate D2E/DX2 analytically  !
 ! D38   D(9,7,11,1)            -6.5954         calculate D2E/DX2 analytically  !
 ! D39   D(9,7,11,4)           173.3731         calculate D2E/DX2 analytically  !
 ! D40   D(10,7,11,1)          113.3562         calculate D2E/DX2 analytically  !
 ! D41   D(10,7,11,4)          -66.6754         calculate D2E/DX2 analytically  !
 ! D42   D(4,12,30,29)         -21.2929         calculate D2E/DX2 analytically  !
 ! D43   D(4,12,30,31)        -142.1895         calculate D2E/DX2 analytically  !
 ! D44   D(4,12,30,32)          99.605          calculate D2E/DX2 analytically  !
 ! D45   D(15,14,16,17)         -1.1206         calculate D2E/DX2 analytically  !
 ! D46   D(15,14,16,24)        170.1095         calculate D2E/DX2 analytically  !
 ! D47   D(18,14,16,17)       -174.0384         calculate D2E/DX2 analytically  !
 ! D48   D(18,14,16,24)         -2.8084         calculate D2E/DX2 analytically  !
 ! D49   D(15,14,18,19)        164.5108         calculate D2E/DX2 analytically  !
 ! D50   D(15,14,18,20)         -2.7722         calculate D2E/DX2 analytically  !
 ! D51   D(16,14,18,19)        -22.7175         calculate D2E/DX2 analytically  !
 ! D52   D(16,14,18,20)        169.9995         calculate D2E/DX2 analytically  !
 ! D53   D(14,16,24,3)         -65.6861         calculate D2E/DX2 analytically  !
 ! D54   D(14,16,24,25)         33.193          calculate D2E/DX2 analytically  !
 ! D55   D(14,16,24,26)        179.6303         calculate D2E/DX2 analytically  !
 ! D56   D(17,16,24,3)         105.5028         calculate D2E/DX2 analytically  !
 ! D57   D(17,16,24,25)       -155.6181         calculate D2E/DX2 analytically  !
 ! D58   D(17,16,24,26)         -9.1808         calculate D2E/DX2 analytically  !
 ! D59   D(14,18,20,21)       -144.2048         calculate D2E/DX2 analytically  !
 ! D60   D(14,18,20,22)        -23.1555         calculate D2E/DX2 analytically  !
 ! D61   D(14,18,20,23)         97.4856         calculate D2E/DX2 analytically  !
 ! D62   D(19,18,20,21)         47.8472         calculate D2E/DX2 analytically  !
 ! D63   D(19,18,20,22)        168.8965         calculate D2E/DX2 analytically  !
 ! D64   D(19,18,20,23)        -70.4625         calculate D2E/DX2 analytically  !
 ! D65   D(3,24,26,27)         177.6155         calculate D2E/DX2 analytically  !
 ! D66   D(3,24,26,28)          54.1329         calculate D2E/DX2 analytically  !
 ! D67   D(3,24,26,34)         -69.2083         calculate D2E/DX2 analytically  !
 ! D68   D(16,24,26,27)        -71.4269         calculate D2E/DX2 analytically  !
 ! D69   D(16,24,26,28)        165.0905         calculate D2E/DX2 analytically  !
 ! D70   D(16,24,26,34)         41.7493         calculate D2E/DX2 analytically  !
 ! D71   D(25,24,26,27)         77.0353         calculate D2E/DX2 analytically  !
 ! D72   D(25,24,26,28)        -46.4473         calculate D2E/DX2 analytically  !
 ! D73   D(25,24,26,34)       -169.7885         calculate D2E/DX2 analytically  !
 ! D74   D(24,26,34,29)        123.6378         calculate D2E/DX2 analytically  !
 ! D75   D(27,26,34,29)       -117.78           calculate D2E/DX2 analytically  !
 ! D76   D(28,26,34,29)         -0.2171         calculate D2E/DX2 analytically  !
 ! D77   D(34,29,30,31)         78.6767         calculate D2E/DX2 analytically  !
 ! D78   D(34,29,30,32)       -162.5214         calculate D2E/DX2 analytically  !
 ! D79   D(34,29,30,33)        -42.2958         calculate D2E/DX2 analytically  !
 ! D80   D(35,29,30,31)       -100.1744         calculate D2E/DX2 analytically  !
 ! D81   D(35,29,30,32)         18.6275         calculate D2E/DX2 analytically  !
 ! D82   D(35,29,30,33)        138.8531         calculate D2E/DX2 analytically  !
 ! D83   D(30,29,34,26)          4.644          calculate D2E/DX2 analytically  !
 ! D84   D(35,29,34,26)       -176.3485         calculate D2E/DX2 analytically  !
 --------------------------------------------------------------------------------
 Trust Radius=3.00D-01 FncErr=1.00D-07 GrdErr=1.00D-06
 Number of steps in this run=    194 maximum allowed number of steps=    210.
 Search for a saddle point of order  1.
 GradGradGradGradGradGradGradGradGradGradGradGradGradGradGradGradGradGrad

                          Input orientation:                          
 ---------------------------------------------------------------------
 Center     Atomic      Atomic             Coordinates (Angstroms)
 Number     Number       Type             X           Y           Z
 ---------------------------------------------------------------------
      1          6           0       -2.325188    0.808657   -0.642013
      2          6           0       -1.341749   -0.212826   -1.049849
      3          6           0       -0.058844    0.153234   -0.633217
      4          6           0       -0.168493    1.531501    0.013790
      5          1           0       -1.580916   -0.946552   -1.801734
      6          1           0        0.856742   -0.115081   -1.156421
      7          6           0       -2.122094    3.087777    0.574475
      8          1           0       -1.620187    3.979717    0.159787
      9          1           0       -3.198955    3.149634    0.331877
     10          1           0       -2.009442    3.103975    1.672358
     11          7           0       -1.549568    1.856161    0.005373
     12          8           0        0.712427    2.240534    0.452904
     13          8           0       -3.526488    0.871889   -0.762809
     14          6           0       -1.016740   -2.659300    0.229482
     15          1           0       -1.091880   -3.623208   -0.281440
     16          6           0        0.268692   -2.180095    0.543607
     17          1           0        1.134193   -2.801682    0.279546
     18          6           0       -2.144650   -1.889846    0.416787
     19          1           0       -2.147208   -1.057790    1.131916
     20          6           0       -3.476826   -2.282292   -0.101688
     21          1           0       -4.060173   -1.403410   -0.436081
     22          1           0       -3.434569   -2.978264   -0.951164
     23          1           0       -4.080164   -2.770916    0.682084
     24          6           0        0.490354   -0.883098    1.008014
     25          1           0       -0.267621   -0.395826    1.639428
     26          6           0        1.897745   -0.449651    1.330150
     27          1           0        2.278704   -0.936808    2.251019
     28          1           0        1.989235    0.650030    1.431853
     29          6           0        3.594256   -0.152510   -0.476387
     30          6           0        3.697376    1.293171   -0.176777
     31          1           0        4.356127    1.485327    0.686452
     32          1           0        4.127749    1.849271   -1.026736
     33          1           0        2.722751    1.773392    0.051208
     34          8           0        2.767635   -0.965290    0.284693
     35          8           0        4.185119   -0.765041   -1.339764
 ---------------------------------------------------------------------
                    Distance matrix (angstroms):
                    1          2          3          4          5
     1  C    0.000000
     2  C    1.475436   0.000000
     3  C    2.359231   1.397651   0.000000
     4  C    2.367259   2.355957   1.526519   0.000000
     5  H    2.231513   1.077444   2.211711   3.381096   0.000000
     6  H    3.352997   2.203242   1.088133   2.265333   2.655174
     7  C    2.591424   3.760498   3.785111   2.559867   4.713285
     8  H    3.345972   4.372432   4.208161   2.849999   5.302569
     9  H    2.681810   4.082220   4.446360   3.450106   4.893780
    10  H    3.274827   4.342510   4.222248   2.934726   5.353477
    11  N    1.455321   2.331821   2.351599   1.418747   3.334939
    12  O    3.532169   3.535093   2.476154   1.213082   4.527729
    13  O    1.209013   2.456030   3.543701   3.509177   2.858556
    14  C    3.807659   2.779848   3.093891   4.281222   2.716181
    15  H    4.614378   3.504796   3.930957   5.245077   3.116879
    16  C    4.131168   3.000462   2.633746   3.774623   3.231610
    17  H    5.084401   3.820963   3.314816   4.532559   3.891664
    18  C    2.904405   2.368136   3.102784   3.971551   2.475770
    19  H    2.581109   2.474435   2.990575   3.445279   2.989877
    20  C    3.342482   3.120938   4.230474   5.050091   2.875558
    21  H    2.818833   3.030517   4.297981   4.895024   2.867131
    22  H    3.958165   3.469479   4.615505   5.651227   2.878776
    23  H    4.200776   4.128236   5.143120   5.853083   3.967858
    24  C    3.675854   2.835607   2.017236   2.693111   3.491256
    25  H    3.299899   2.901629   2.347333   2.523314   3.724196
    26  C    4.827621   4.026761   2.836639   3.150731   4.707089
    27  H    5.710701   4.952531   3.869256   4.133584   5.596568
    28  H    4.789606   4.242502   2.950584   2.728312   5.074558
    29  C    5.999258   4.969572   3.669225   4.151439   5.400875
    30  C    6.059907   5.331328   3.951833   3.877894   5.959632
    31  H    6.845632   6.193889   4.796662   4.574581   6.881394
    32  H    6.547617   5.845356   4.534199   4.431858   6.403601
    33  H    5.185842   4.655915   3.290991   2.901586   5.417845
    34  O    5.471976   4.385686   3.175317   3.863703   4.823217
    35  O    6.734054   5.561948   4.399279   5.104914   5.787359
                    6          7          8          9         10
     6  H    0.000000
     7  C    4.704016   0.000000
     8  H    4.963361   1.104280   0.000000
     9  H    5.414986   1.105581   1.791971   0.000000
    10  H    5.155514   1.103766   1.790618   1.792740   0.000000
    11  N    3.320525   1.472597   2.130333   2.121357   2.132455
    12  O    2.856515   2.960931   2.924340   4.017464   3.105023
    13  O    4.510182   2.944624   3.760819   2.548281   3.635062
    14  C    3.450176   5.862570   6.666750   6.206147   6.023511
    15  H    4.107271   6.843336   7.634020   7.119502   7.065001
    16  C    2.738646   5.785092   6.454337   6.362029   5.863904
    17  H    3.058890   6.736180   7.320405   7.361866   6.833678
    18  C    3.825327   4.980171   5.898549   5.149284   5.151018
    19  H    3.892159   4.182953   5.157447   4.410062   4.198970
    20  C    4.958737   5.579439   6.536684   5.456282   5.857673
    21  H    5.133686   4.994811   5.940256   4.696985   5.382149
    22  H    5.162877   6.391167   7.275967   6.265209   6.775506
    23  H    5.899712   6.178179   7.203841   5.996006   6.307367
    24  C    2.325698   4.772912   5.368505   5.507367   4.752587
    25  H    3.026513   4.087626   4.812915   4.782541   3.909429
    26  C    2.716369   5.407730   5.776235   6.318841   5.292587
    27  H    3.782573   6.194765   6.614138   7.098370   5.920386
    28  H    2.926960   4.856000   5.072760   5.863044   4.697777
    29  C    2.820963   6.654354   6.683594   7.596391   6.828121
    30  C    3.318445   6.136059   5.967184   7.159928   6.266265
    31  H    4.266519   6.674409   6.497360   7.744347   6.641724
    32  H    3.817720   6.569499   6.243829   7.564216   6.820887
    33  H    2.916623   5.047171   4.872450   6.086002   5.176121
    34  O    2.539917   6.357734   6.612237   7.248105   6.426896
    35  O    3.396197   7.634753   7.646107   8.523122   7.900301
                   11         12         13         14         15
    11  N    0.000000
    12  O    2.337659   0.000000
    13  O    2.338185   4.617310   0.000000
    14  C    4.552309   5.200799   4.444409   0.000000
    15  H    5.505926   6.178855   5.134679   1.093529   0.000000
    16  C    4.459499   4.443770   5.042293   1.407355   2.148123
    17  H    5.382680   5.062794   6.025245   2.156222   2.438239
    18  C    3.815226   5.022373   3.305768   1.378159   2.144852
    19  H    3.180783   4.417863   3.035796   2.158050   3.113304
    20  C    4.566462   6.189779   3.223105   2.510743   2.741958
    21  H    4.137973   6.070118   2.359779   3.358976   3.709741
    22  H    5.276349   6.812109   3.855853   2.709531   2.520451
    23  H    5.317113   6.938017   3.957815   3.098689   3.253402
    24  C    3.559510   3.180337   4.727665   2.456082   3.416776
    25  H    3.063490   3.052659   4.242412   2.769917   3.845144
    26  C    4.353822   3.067839   5.962319   3.819456   4.648284
    27  H    5.243974   3.972649   6.786369   4.232439   4.999093
    28  H    4.001590   2.262362   5.940451   4.629605   5.539784
    29  C    5.543084   3.859427   7.199752   5.295614   5.834691
    30  C    5.280204   3.194357   7.259829   6.165222   6.864307
    31  H    5.956393   3.728462   8.038177   6.801063   7.530918
    32  H    5.770375   3.742572   7.720899   6.954931   7.599212
    33  H    4.273366   2.102614   6.366186   5.802097   6.617050
    34  O    5.164963   3.811756   6.639915   4.146590   4.720264
    35  O    6.447226   4.930186   7.904511   5.754137   6.093922
                   16         17         18         19         20
    16  C    0.000000
    17  H    1.097812   0.000000
    18  C    2.434039   3.406037   0.000000
    19  H    2.728049   3.812517   1.097148   0.000000
    20  C    3.802072   4.655814   1.482404   2.188394   0.000000
    21  H    4.505785   5.426668   2.152494   2.497499   1.106592
    22  H    4.072537   4.734914   2.172518   3.112032   1.098987
    23  H    4.390990   5.229962   2.143101   2.621730   1.103208
    24  C    1.395353   2.150851   2.882072   2.646243   4.350598
    25  H    2.161497   3.098791   2.692617   2.056359   4.109652
    26  C    2.503378   2.686788   4.387408   4.095214   5.856172
    27  H    2.915676   2.945228   4.882494   4.566807   6.361736
    28  H    3.429119   3.738078   4.956847   4.485172   6.389686
    29  C    4.026272   3.693434   6.062272   6.030803   7.394361
    30  C    4.933397   4.852418   6.679310   6.434194   8.016155
    31  H    5.492071   5.378185   7.329708   6.997089   8.727615
    32  H    5.796041   5.683231   7.443638   7.244713   8.703740
    33  H    4.679201   4.848397   6.102832   5.735854   7.409906
    34  O    2.790610   2.457742   5.000280   4.988189   6.393518
    35  O    4.570324   4.009766   6.664581   6.803916   7.908242
                   21         22         23         24         25
    21  H    0.000000
    22  H    1.771117   0.000000
    23  H    1.766569   1.768413   0.000000
    24  C    4.802440   4.861391   4.955777   0.000000
    25  H    4.439191   4.838358   4.592716   1.100293   0.000000
    26  C    6.286972   6.327073   6.445437   1.507447   2.188004
    27  H    6.900695   6.860248   6.801523   2.178564   2.674037
    28  H    6.655909   6.947009   7.007327   2.185581   2.496057
    29  C    7.756072   7.590433   8.191143   3.517302   4.410212
    30  C    8.216955   8.349220   8.817288   4.052760   4.676806
    31  H    8.968778   9.126904   9.449160   4.545002   5.081923
    32  H    8.830112   8.972149   9.572671   4.983642   5.609650
    33  H    7.505836   7.841911   8.205388   3.599446   4.021228
    34  O    6.879711   6.636772   7.092993   2.390807   3.372295
    35  O    8.319195   7.944118   8.742214   4.379188   5.370177
                   26         27         28         29         30
    26  C    0.000000
    27  H    1.109257   0.000000
    28  H    1.108157   1.809110   0.000000
    29  C    2.496000   3.128026   2.619455   0.000000
    30  C    2.923513   3.588820   2.432913   1.479998   0.000000
    31  H    3.194077   3.553913   2.618305   2.148290   1.102743
    32  H    3.976540   4.682401   3.472187   2.143508   1.103131
    33  H    2.694114   3.518740   1.925141   2.178756   1.110173
    34  O    1.454501   2.026401   2.128648   1.386779   2.485562
    35  O    3.529871   4.069109   3.808700   1.212326   2.413849
                   31         32         33         34         35
    31  H    0.000000
    32  H    1.766246   0.000000
    33  H    1.776073   1.772495   0.000000
    34  O    2.947921   3.389913   2.748983   0.000000
    35  O    3.032977   2.633611   3.242987   2.165230   0.000000
 Stoichiometry    C13H17NO4
 Framework group  C1[X(C13H17NO4)]
 Deg. of freedom    99
 Full point group                 C1      NOp   1
 Largest Abelian subgroup         C1      NOp   1
 Largest concise Abelian subgroup C1      NOp   1
                         Standard orientation:                         
 ---------------------------------------------------------------------
 Center     Atomic      Atomic             Coordinates (Angstroms)
 Number     Number       Type             X           Y           Z
 ---------------------------------------------------------------------
      1          6           0       -2.325188    0.808657   -0.642013
      2          6           0       -1.341749   -0.212826   -1.049849
      3          6           0       -0.058844    0.153234   -0.633217
      4          6           0       -0.168493    1.531501    0.013790
      5          1           0       -1.580916   -0.946552   -1.801734
      6          1           0        0.856742   -0.115081   -1.156421
      7          6           0       -2.122094    3.087777    0.574475
      8          1           0       -1.620187    3.979717    0.159787
      9          1           0       -3.198955    3.149634    0.331877
     10          1           0       -2.009442    3.103975    1.672358
     11          7           0       -1.549568    1.856161    0.005373
     12          8           0        0.712427    2.240534    0.452904
     13          8           0       -3.526488    0.871889   -0.762809
     14          6           0       -1.016740   -2.659300    0.229482
     15          1           0       -1.091880   -3.623208   -0.281440
     16          6           0        0.268692   -2.180095    0.543607
     17          1           0        1.134193   -2.801682    0.279546
     18          6           0       -2.144650   -1.889846    0.416787
     19          1           0       -2.147208   -1.057790    1.131916
     20          6           0       -3.476826   -2.282292   -0.101688
     21          1           0       -4.060173   -1.403410   -0.436081
     22          1           0       -3.434569   -2.978264   -0.951164
     23          1           0       -4.080164   -2.770916    0.682084
     24          6           0        0.490354   -0.883098    1.008014
     25          1           0       -0.267621   -0.395826    1.639428
     26          6           0        1.897745   -0.449651    1.330150
     27          1           0        2.278704   -0.936808    2.251019
     28          1           0        1.989235    0.650030    1.431853
     29          6           0        3.594256   -0.152510   -0.476387
     30          6           0        3.697376    1.293171   -0.176777
     31          1           0        4.356127    1.485327    0.686452
     32          1           0        4.127749    1.849271   -1.026736
     33          1           0        2.722751    1.773392    0.051208
     34          8           0        2.767635   -0.965290    0.284693
     35          8           0        4.185119   -0.765041   -1.339764
 ---------------------------------------------------------------------
 Rotational constants (GHZ):      0.6186657      0.3112395      0.2326722
 Standard basis: 6-31+G(d,p) (6D, 7F)
 There are   427 symmetry adapted cartesian basis functions of A   symmetry.
 There are   427 symmetry adapted basis functions of A   symmetry.
   427 basis functions,   695 primitive gaussians,   427 cartesian basis functions
    67 alpha electrons       67 beta electrons
       nuclear repulsion energy      1384.4406336193 Hartrees.
 NAtoms=   35 NActive=   35 NUniq=   35 SFac= 1.00D+00 NAtFMM=   60 NAOKFM=F Big=F
 Integral buffers will be    131072 words long.
 Raffenetti 2 integral format.
 Two-electron integral symmetry is turned on.
 Nuclear repulsion after empirical dispersion term =     1384.3986428799 Hartrees.
 Force inversion solution in PCM.
 ------------------------------------------------------------------------------
 Polarizable Continuum Model (PCM)
 =================================
 Model                : C-PCM.
 Atomic radii         : UFF (Universal Force Field).
 Polarization charges : Total charges.
 Charge compensation  : None.
 Solution method      : Matrix inversion.
 Cavity type          : Scaled VdW (van der Waals Surface) (Alpha=1.100).
 Cavity algorithm     : GePol (No added spheres)
                        Default sphere list used, NSphG=   35.
                        Lebedev-Laikov grids with approx.  5.0 points / Ang**2.
                        Smoothing algorithm: Karplus/York (Gamma=1.0000).
                        Polarization charges: spherical gaussians, with
                                              point-specific exponents (IZeta= 3).
                        Self-potential: point-specific (ISelfS= 7).
                        Self-field    : sphere-specific E.n sum rule (ISelfD= 2).
 1st derivatives      : Analytical E(r).r(x)/FMM algorithm (CHGder, D1EAlg=3).
                        Cavity 1st derivative terms included.
 2nd derivatives      : Analytical E(r).r(xy)/FMM algorithm (CHGder, D2EAlg=3).
                        Cavity 2nd derivative terms included.
 Solvent              : Toluene, Eps=   2.374100 Eps(inf)=   2.238315
 ------------------------------------------------------------------------------
 One-electron integrals computed using PRISM.
 NBasis=   427 RedAO= T EigKep=  2.75D-06  NBF=   427
 NBsUse=   427 1.00D-06 EigRej= -1.00D+00 NBFU=   427
 ExpMin= 4.38D-02 ExpMax= 5.48D+03 ExpMxC= 8.25D+02 IAcc=2 IRadAn=         4 AccDes= 0.00D+00
 Harris functional with IExCor=  402 and IRadAn=       4 diagonalized for initial guess.
 HarFok:  IExCor=  402 AccDes= 0.00D+00 IRadAn=         4 IDoV= 1 UseB2=F ITyADJ=14
 ICtDFT=  3500011 ScaDFX=  1.000000  1.000000  1.000000  1.000000
 FoFCou: FMM=F IPFlag=           0 FMFlag=      100000 FMFlg1=           0
         NFxFlg=           0 DoJE=T BraDBF=F KetDBF=T FulRan=T
         wScrn=  0.000000 ICntrl=     500 IOpCl=  0 I1Cent=   200000004 NGrid=           0
         NMat0=    1 NMatS0=      1 NMatT0=    0 NMatD0=    1 NMtDS0=    0 NMtDT0=    0
 Petite list used in FoFCou.
 Requested convergence on RMS density matrix=1.00D-08 within 128 cycles.
 Requested convergence on MAX density matrix=1.00D-06.
 Requested convergence on             energy=1.00D-06.
 No special actions if energy rises.
 Inv3:  Mode=1 IEnd=    18273072.
 Iteration    1 A*A^-1 deviation from unit magnitude is 9.33D-15 for   2458.
 Iteration    1 A*A^-1 deviation from orthogonality  is 2.50D-15 for   2453   1154.
 Iteration    1 A^-1*A deviation from unit magnitude is 9.33D-15 for   2458.
 Iteration    1 A^-1*A deviation from orthogonality  is 1.61D-15 for   1303    985.
 Error on total polarization charges =  0.01063
 SCF Done:  E(RB3LYP) =  -861.306192357     A.U. after   15 cycles
            NFock= 15  Conv=0.74D-08     -V/T= 2.0096
 DoSCS=F DFT=T ScalE2(SS,OS)=  1.000000  1.000000
 Range of M.O.s used for correlation:     1   427
 NBasis=   427 NAE=    67 NBE=    67 NFC=     0 NFV=     0
 NROrb=    427 NOA=    67 NOB=    67 NVA=   360 NVB=   360

 **** Warning!!: The largest alpha MO coefficient is  0.10522760D+03

 PrsmSu:  requested number of processors reduced to:   2 ShMem   1 Linda.
 Symmetrizing basis deriv contribution to polar:
 IMax=3 JMax=2 DiffMx= 0.00D+00
 G2DrvN: will do    12 centers at a time, making    3 passes.
 Calling FoFCou, ICntrl=  3107 FMM=F I1Cent=   0 AccDes= 0.00D+00.
 Calling FoFCou, ICntrl=  3107 FMM=F I1Cent=   0 AccDes= 0.00D+00.
 Calling FoFCou, ICntrl=  3107 FMM=F I1Cent=   0 AccDes= 0.00D+00.
 NEqPCM:  Using equilibrium solvation (IEInf=0, Eps=   2.3741, EpsInf=   2.2383)
 G2PCM: DoFxE=T DoFxN=T DoGrad=T DoDP/DQ/DG/TGxP=FFFF NFrqRd=   0 IEInf=0 SqF1=F DoCFld=F IF1Alg=4.
 End of G2Drv F.D. properties file   721 does not exist.
 End of G2Drv F.D. properties file   722 does not exist.
 End of G2Drv F.D. properties file   788 does not exist.
          IDoAtm=11111111111111111111111111111111111
 NEqPCM:  Using equilibrium solvation (IEInf=0, Eps=   2.3741, EpsInf=   2.2383)
          Differentiating once with respect to nuclear coordinates.
          There are   108 degrees of freedom in the 1st order CPHF.  IDoFFX=6 NUNeed=     0.
    105 vectors produced by pass  0 Test12= 2.41D-14 1.00D-09 XBig12= 2.79D-01 2.02D-01.
 AX will form    36 AO Fock derivatives at one time.
    105 vectors produced by pass  1 Test12= 2.41D-14 1.00D-09 XBig12= 1.81D-01 9.35D-02.
    102 vectors produced by pass  2 Test12= 2.41D-14 1.00D-09 XBig12= 1.84D-03 4.22D-03.
 PrRfSu:  requested number of processors reduced to:   3 ShMem   1 Linda.
 PrRfSu:  requested number of processors reduced to:   3 ShMem   1 Linda.
    102 vectors produced by pass  3 Test12= 2.41D-14 1.00D-09 XBig12= 6.94D-06 2.02D-04.
 PrRfSu:  requested number of processors reduced to:   3 ShMem   1 Linda.
 PrRfSu:  requested number of processors reduced to:   3 ShMem   1 Linda.
    102 vectors produced by pass  4 Test12= 2.41D-14 1.00D-09 XBig12= 1.27D-08 1.00D-05.
 PrRfSu:  requested number of processors reduced to:   3 ShMem   1 Linda.
 PrRfSu:  requested number of processors reduced to:   3 ShMem   1 Linda.
    101 vectors produced by pass  5 Test12= 2.41D-14 1.00D-09 XBig12= 2.41D-11 3.42D-07.
 PrRfSu:  requested number of processors reduced to:   3 ShMem   1 Linda.
     58 vectors produced by pass  6 Test12= 2.41D-14 1.00D-09 XBig12= 5.96D-13 5.07D-08.
     28 vectors produced by pass  7 Test12= 2.41D-14 1.00D-09 XBig12= 3.05D-15 6.18D-09.
     26 vectors produced by pass  8 Test12= 2.41D-14 1.00D-09 XBig12= 3.10D-15 5.59D-09.
     26 vectors produced by pass  9 Test12= 2.41D-14 1.00D-09 XBig12= 8.71D-15 6.65D-09.
     26 vectors produced by pass 10 Test12= 2.41D-14 1.00D-09 XBig12= 6.57D-15 5.75D-09.
     26 vectors produced by pass 11 Test12= 2.41D-14 1.00D-09 XBig12= 9.47D-15 8.02D-09.
     21 vectors produced by pass 12 Test12= 2.41D-14 1.00D-09 XBig12= 4.43D-15 5.02D-09.
     13 vectors produced by pass 13 Test12= 2.41D-14 1.00D-09 XBig12= 2.17D-15 4.50D-09.
     12 vectors produced by pass 14 Test12= 2.41D-14 1.00D-09 XBig12= 2.62D-15 3.08D-09.
     12 vectors produced by pass 15 Test12= 2.41D-14 1.00D-09 XBig12= 3.80D-15 3.82D-09.
     11 vectors produced by pass 16 Test12= 2.41D-14 1.00D-09 XBig12= 2.21D-15 2.86D-09.
     11 vectors produced by pass 17 Test12= 2.41D-14 1.00D-09 XBig12= 6.32D-15 4.97D-09.
     10 vectors produced by pass 18 Test12= 2.41D-14 1.00D-09 XBig12= 2.87D-15 3.27D-09.
     10 vectors produced by pass 19 Test12= 2.41D-14 1.00D-09 XBig12= 4.76D-15 3.85D-09.
      4 vectors produced by pass 20 Test12= 2.41D-14 1.00D-09 XBig12= 1.88D-15 2.86D-09.
      4 vectors produced by pass 21 Test12= 2.41D-14 1.00D-09 XBig12= 6.11D-15 4.27D-09.
      3 vectors produced by pass 22 Test12= 2.41D-14 1.00D-09 XBig12= 2.60D-15 3.49D-09.
      3 vectors produced by pass 23 Test12= 2.41D-14 1.00D-09 XBig12= 2.56D-15 3.59D-09.
      3 vectors produced by pass 24 Test12= 2.41D-14 1.00D-09 XBig12= 3.59D-15 4.23D-09.
      3 vectors produced by pass 25 Test12= 2.41D-14 1.00D-09 XBig12= 2.77D-15 2.86D-09.
      3 vectors produced by pass 26 Test12= 2.41D-14 1.00D-09 XBig12= 3.13D-15 3.71D-09.
      3 vectors produced by pass 27 Test12= 2.41D-14 1.00D-09 XBig12= 2.47D-15 2.96D-09.
      3 vectors produced by pass 28 Test12= 2.41D-14 1.00D-09 XBig12= 4.22D-15 3.92D-09.
      3 vectors produced by pass 29 Test12= 2.41D-14 1.00D-09 XBig12= 3.88D-15 3.48D-09.
      3 vectors produced by pass 30 Test12= 2.41D-14 1.00D-09 XBig12= 3.15D-15 3.42D-09.
      3 vectors produced by pass 31 Test12= 2.41D-14 1.00D-09 XBig12= 3.50D-15 3.45D-09.
      3 vectors produced by pass 32 Test12= 2.41D-14 1.00D-09 XBig12= 5.05D-15 4.82D-09.
      3 vectors produced by pass 33 Test12= 2.41D-14 1.00D-09 XBig12= 3.67D-15 3.80D-09.
      3 vectors produced by pass 34 Test12= 2.41D-14 1.00D-09 XBig12= 2.16D-15 2.47D-09.
      2 vectors produced by pass 35 Test12= 2.41D-14 1.00D-09 XBig12= 2.01D-15 2.66D-09.
 InvSVY:  IOpt=1 It=  1 EMax= 1.55D-15
 Solved reduced A of dimension   956 with   108 vectors.
 End of Minotr F.D. properties file   721 does not exist.
 End of Minotr F.D. properties file   722 does not exist.
 End of Minotr F.D. properties file   788 does not exist.

 **********************************************************************

            Population analysis using the SCF density.

 **********************************************************************

 Orbital symmetries:
       Occupied  (A) (A) (A) (A) (A) (A) (A) (A) (A) (A) (A) (A)
                 (A) (A) (A) (A) (A) (A) (A) (A) (A) (A) (A) (A)
                 (A) (A) (A) (A) (A) (A) (A) (A) (A) (A) (A) (A)
                 (A) (A) (A) (A) (A) (A) (A) (A) (A) (A) (A) (A)
                 (A) (A) (A) (A) (A) (A) (A) (A) (A) (A) (A) (A)
                 (A) (A) (A) (A) (A) (A) (A)
       Virtual   (A) (A) (A) (A) (A) (A) (A) (A) (A) (A) (A) (A)
                 (A) (A) (A) (A) (A) (A) (A) (A) (A) (A) (A) (A)
                 (A) (A) (A) (A) (A) (A) (A) (A) (A) (A) (A) (A)
                 (A) (A) (A) (A) (A) (A) (A) (A) (A) (A) (A) (A)
                 (A) (A) (A) (A) (A) (A) (A) (A) (A) (A) (A) (A)
                 (A) (A) (A) (A) (A) (A) (A) (A) (A) (A) (A) (A)
                 (A) (A) (A) (A) (A) (A) (A) (A) (A) (A) (A) (A)
                 (A) (A) (A) (A) (A) (A) (A) (A) (A) (A) (A) (A)
                 (A) (A) (A) (A) (A) (A) (A) (A) (A) (A) (A) (A)
                 (A) (A) (A) (A) (A) (A) (A) (A) (A) (A) (A) (A)
                 (A) (A) (A) (A) (A) (A) (A) (A) (A) (A) (A) (A)
                 (A) (A) (A) (A) (A) (A) (A) (A) (A) (A) (A) (A)
                 (A) (A) (A) (A) (A) (A) (A) (A) (A) (A) (A) (A)
                 (A) (A) (A) (A) (A) (A) (A) (A) (A) (A) (A) (A)
                 (A) (A) (A) (A) (A) (A) (A) (A) (A) (A) (A) (A)
                 (A) (A) (A) (A) (A) (A) (A) (A) (A) (A) (A) (A)
                 (A) (A) (A) (A) (A) (A) (A) (A) (A) (A) (A) (A)
                 (A) (A) (A) (A) (A) (A) (A) (A) (A) (A) (A) (A)
                 (A) (A) (A) (A) (A) (A) (A) (A) (A) (A) (A) (A)
                 (A) (A) (A) (A) (A) (A) (A) (A) (A) (A) (A) (A)
                 (A) (A) (A) (A) (A) (A) (A) (A) (A) (A) (A) (A)
                 (A) (A) (A) (A) (A) (A) (A) (A) (A) (A) (A) (A)
                 (A) (A) (A) (A) (A) (A) (A) (A) (A) (A) (A) (A)
                 (A) (A) (A) (A) (A) (A) (A) (A) (A) (A) (A) (A)
                 (A) (A) (A) (A) (A) (A) (A) (A) (A) (A) (A) (A)
                 (A) (A) (A) (A) (A) (A) (A) (A) (A) (A) (A) (A)
                 (A) (A) (A) (A) (A) (A) (A) (A) (A) (A) (A) (A)
                 (A) (A) (A) (A) (A) (A) (A) (A) (A) (A) (A) (A)
                 (A) (A) (A) (A) (A) (A) (A) (A) (A) (A) (A) (A)
                 (A) (A) (A) (A) (A) (A) (A) (A) (A) (A) (A) (A)
 The electronic state is 1-A.
 Alpha  occ. eigenvalues --  -19.20137 -19.16712 -19.15828 -19.15007 -14.39288
 Alpha  occ. eigenvalues --  -10.33342 -10.32634 -10.31824 -10.26319 -10.23505
 Alpha  occ. eigenvalues --  -10.23483 -10.23479 -10.23281 -10.21532 -10.21160
 Alpha  occ. eigenvalues --  -10.20860 -10.20322 -10.19393  -1.10469  -1.08368
 Alpha  occ. eigenvalues --   -1.06899  -1.02361  -0.95516  -0.85781  -0.81629
 Alpha  occ. eigenvalues --   -0.80043  -0.76131  -0.73996  -0.70969  -0.68907
 Alpha  occ. eigenvalues --   -0.66787  -0.62630  -0.60405  -0.58262  -0.56235
 Alpha  occ. eigenvalues --   -0.53781  -0.52174  -0.51052  -0.50403  -0.49784
 Alpha  occ. eigenvalues --   -0.48761  -0.47190  -0.47113  -0.46116  -0.45373
 Alpha  occ. eigenvalues --   -0.44631  -0.44192  -0.43910  -0.43052  -0.41956
 Alpha  occ. eigenvalues --   -0.41447  -0.40901  -0.40390  -0.39821  -0.39715
 Alpha  occ. eigenvalues --   -0.38501  -0.37633  -0.37077  -0.36337  -0.35289
 Alpha  occ. eigenvalues --   -0.30921  -0.30738  -0.28868  -0.28864  -0.28016
 Alpha  occ. eigenvalues --   -0.26623  -0.23664
 Alpha virt. eigenvalues --   -0.08657  -0.04723  -0.01380  -0.00244   0.00692
 Alpha virt. eigenvalues --    0.00833   0.01242   0.01760   0.02351   0.02706
 Alpha virt. eigenvalues --    0.03384   0.03770   0.04125   0.05182   0.05237
 Alpha virt. eigenvalues --    0.05749   0.06153   0.06393   0.06699   0.07069
 Alpha virt. eigenvalues --    0.08169   0.08548   0.08722   0.08835   0.09052
 Alpha virt. eigenvalues --    0.09724   0.09830   0.10024   0.10223   0.10597
 Alpha virt. eigenvalues --    0.11523   0.12045   0.12143   0.12968   0.13226
 Alpha virt. eigenvalues --    0.13895   0.14183   0.14592   0.14742   0.15448
 Alpha virt. eigenvalues --    0.15754   0.16234   0.16530   0.16875   0.17603
 Alpha virt. eigenvalues --    0.17711   0.18042   0.18755   0.18773   0.19493
 Alpha virt. eigenvalues --    0.19751   0.20170   0.20416   0.20961   0.20998
 Alpha virt. eigenvalues --    0.21769   0.22068   0.22289   0.22888   0.23254
 Alpha virt. eigenvalues --    0.23621   0.23904   0.24544   0.24704   0.24766
 Alpha virt. eigenvalues --    0.25315   0.25500   0.25960   0.26071   0.26615
 Alpha virt. eigenvalues --    0.26909   0.27609   0.27734   0.28253   0.28919
 Alpha virt. eigenvalues --    0.29209   0.30054   0.30598   0.30626   0.30817
 Alpha virt. eigenvalues --    0.31859   0.32178   0.32254   0.33152   0.34003
 Alpha virt. eigenvalues --    0.34246   0.34622   0.35360   0.35758   0.36174
 Alpha virt. eigenvalues --    0.36507   0.37012   0.37330   0.37849   0.38561
 Alpha virt. eigenvalues --    0.38821   0.39305   0.39833   0.40790   0.41006
 Alpha virt. eigenvalues --    0.42196   0.43751   0.44650   0.44999   0.45874
 Alpha virt. eigenvalues --    0.46702   0.47119   0.48359   0.49078   0.50730
 Alpha virt. eigenvalues --    0.54188   0.57643   0.61600   0.64240   0.65318
 Alpha virt. eigenvalues --    0.66111   0.67112   0.69106   0.69229   0.70246
 Alpha virt. eigenvalues --    0.71157   0.72142   0.72223   0.73272   0.73434
 Alpha virt. eigenvalues --    0.75941   0.76272   0.77081   0.77576   0.78624
 Alpha virt. eigenvalues --    0.79233   0.79553   0.80790   0.81489   0.83440
 Alpha virt. eigenvalues --    0.83878   0.84902   0.85232   0.86358   0.87147
 Alpha virt. eigenvalues --    0.88072   0.90311   0.91177   0.91751   0.93084
 Alpha virt. eigenvalues --    0.93454   0.94322   0.95801   0.96866   0.96982
 Alpha virt. eigenvalues --    0.97828   0.98304   0.99265   0.99967   1.00655
 Alpha virt. eigenvalues --    1.01050   1.03145   1.04062   1.05521   1.06979
 Alpha virt. eigenvalues --    1.08869   1.09377   1.10905   1.11483   1.13455
 Alpha virt. eigenvalues --    1.13808   1.14870   1.16488   1.17671   1.17819
 Alpha virt. eigenvalues --    1.20963   1.21185   1.22916   1.24147   1.24642
 Alpha virt. eigenvalues --    1.26354   1.27142   1.28004   1.28886   1.29860
 Alpha virt. eigenvalues --    1.30456   1.32662   1.32889   1.33454   1.34906
 Alpha virt. eigenvalues --    1.35534   1.35902   1.37296   1.38451   1.38560
 Alpha virt. eigenvalues --    1.38938   1.39617   1.40177   1.40925   1.42010
 Alpha virt. eigenvalues --    1.43179   1.45709   1.46206   1.47327   1.48770
 Alpha virt. eigenvalues --    1.51386   1.52989   1.54890   1.56180   1.57348
 Alpha virt. eigenvalues --    1.59513   1.61318   1.64767   1.66130   1.67891
 Alpha virt. eigenvalues --    1.68786   1.69429   1.71296   1.72408   1.74570
 Alpha virt. eigenvalues --    1.74818   1.76905   1.78926   1.80356   1.81635
 Alpha virt. eigenvalues --    1.81829   1.83377   1.84178   1.85237   1.86419
 Alpha virt. eigenvalues --    1.87434   1.88820   1.89106   1.90788   1.91403
 Alpha virt. eigenvalues --    1.92661   1.94485   1.96615   1.97633   1.98317
 Alpha virt. eigenvalues --    1.99290   1.99857   2.00552   2.02038   2.02602
 Alpha virt. eigenvalues --    2.03374   2.03733   2.04899   2.05124   2.05943
 Alpha virt. eigenvalues --    2.06829   2.07980   2.08564   2.09377   2.10631
 Alpha virt. eigenvalues --    2.11211   2.11873   2.13007   2.13156   2.13479
 Alpha virt. eigenvalues --    2.14793   2.15965   2.17744   2.19648   2.19849
 Alpha virt. eigenvalues --    2.21232   2.22596   2.24318   2.27188   2.28099
 Alpha virt. eigenvalues --    2.29282   2.32397   2.34873   2.37381   2.38511
 Alpha virt. eigenvalues --    2.39219   2.39727   2.40505   2.41233   2.42327
 Alpha virt. eigenvalues --    2.43987   2.45022   2.46156   2.48281   2.49843
 Alpha virt. eigenvalues --    2.49912   2.51556   2.53507   2.54985   2.57020
 Alpha virt. eigenvalues --    2.57612   2.59063   2.60876   2.62029   2.62421
 Alpha virt. eigenvalues --    2.64046   2.66075   2.67210   2.67570   2.69624
 Alpha virt. eigenvalues --    2.70301   2.70939   2.71066   2.73098   2.73667
 Alpha virt. eigenvalues --    2.74652   2.78705   2.79021   2.80973   2.81266
 Alpha virt. eigenvalues --    2.82917   2.83606   2.84839   2.85113   2.86858
 Alpha virt. eigenvalues --    2.87696   2.89060   2.91924   2.95367   2.96520
 Alpha virt. eigenvalues --    2.98315   3.02545   3.04845   3.05069   3.10802
 Alpha virt. eigenvalues --    3.16633   3.20297   3.21249   3.23750   3.25885
 Alpha virt. eigenvalues --    3.26702   3.28903   3.30214   3.31831   3.33059
 Alpha virt. eigenvalues --    3.37397   3.41058   3.42557   3.43997   3.44442
 Alpha virt. eigenvalues --    3.45777   3.47409   3.48386   3.51009   3.52505
 Alpha virt. eigenvalues --    3.66464   3.68644   4.25963   4.31537   4.37016
 Alpha virt. eigenvalues --    4.39533   4.40494   4.42103   4.43883   4.46853
 Alpha virt. eigenvalues --    4.50870   4.55824   4.58114   4.59635   4.65519
 Alpha virt. eigenvalues --    4.70999   4.75931   4.77104   4.86856   5.17821
          Condensed to atoms (all electrons):
               1          2          3          4          5          6
     1  C    7.581413  -2.780579   1.586942  -1.176080  -0.099412   0.031953
     2  C   -2.780579  14.422425  -6.318457   1.271713   0.308539   0.089019
     3  C    1.586942  -6.318457  12.775354  -1.667389   0.049616   0.185490
     4  C   -1.176080   1.271713  -1.667389   7.408212   0.016174  -0.045134
     5  H   -0.099412   0.308539   0.049616   0.016174   0.526168  -0.003740
     6  H    0.031953   0.089019   0.185490  -0.045134  -0.003740   0.527493
     7  C    0.052712  -0.114186  -0.064350  -0.196082  -0.000653   0.003389
     8  H   -0.004549   0.000526   0.003678   0.008218   0.000004   0.000005
     9  H    0.011896  -0.007720  -0.002793  -0.013770  -0.000003   0.000003
    10  H   -0.007164   0.003670  -0.005161  -0.004792   0.000000  -0.000004
    11  N    0.336963  -0.550652  -0.234324   0.122458   0.016420   0.019221
    12  O    0.095106  -0.132167  -0.073518   0.405634  -0.000691   0.000168
    13  O    0.318024   0.020671  -0.136858   0.128651   0.003470  -0.000833
    14  C   -0.600650   0.555042  -0.387934   0.435319  -0.003687  -0.005311
    15  H    0.009690   0.006999  -0.007611  -0.001942   0.000508  -0.000006
    16  C    0.163343  -0.145095   0.577678  -1.020710  -0.009805  -0.003864
    17  H   -0.003605  -0.040617   0.040067   0.017043  -0.000031   0.000664
    18  C    0.290092  -0.137974   0.084764  -0.248564   0.040678   0.009083
    19  H   -0.045550   0.033691  -0.010983   0.004744   0.001847  -0.000141
    20  C   -0.165914   0.370229  -0.361298   0.084509  -0.007836   0.003115
    21  H    0.022311  -0.029399   0.003479  -0.001291  -0.000245  -0.000003
    22  H   -0.015271   0.000389   0.011392   0.000467   0.000979  -0.000003
    23  H    0.007399   0.010757  -0.007117   0.001187  -0.000021   0.000001
    24  C    0.125172  -0.129305  -0.553530   0.363504  -0.020545   0.036192
    25  H   -0.013255  -0.014258   0.010265  -0.015570  -0.000130   0.003031
    26  C    0.062111  -0.381056   0.539826   0.107722   0.006018  -0.050791
    27  H    0.000487  -0.000859   0.010559   0.015034   0.000001  -0.000008
    28  H   -0.001585  -0.008434  -0.032858   0.033625   0.000000   0.000270
    29  C    0.031275  -0.273210  -0.003749   0.113225  -0.000528  -0.004669
    30  C   -0.006633   0.072906   0.102308  -0.134821   0.000119   0.001478
    31  H   -0.000274   0.000057  -0.006748   0.003157   0.000000   0.000025
    32  H    0.000105   0.001735   0.001875  -0.002077   0.000000   0.000023
    33  H   -0.001180   0.012447   0.012677   0.011677   0.000000  -0.000219
    34  O   -0.002628   0.052972  -0.000641   0.013285  -0.000019   0.008414
    35  O   -0.000642   0.004028  -0.009867  -0.002621  -0.000006   0.001111
               7          8          9         10         11         12
     1  C    0.052712  -0.004549   0.011896  -0.007164   0.336963   0.095106
     2  C   -0.114186   0.000526  -0.007720   0.003670  -0.550652  -0.132167
     3  C   -0.064350   0.003678  -0.002793  -0.005161  -0.234324  -0.073518
     4  C   -0.196082   0.008218  -0.013770  -0.004792   0.122458   0.405634
     5  H   -0.000653   0.000004  -0.000003   0.000000   0.016420  -0.000691
     6  H    0.003389   0.000005   0.000003  -0.000004   0.019221   0.000168
     7  C    5.200339   0.400196   0.424464   0.403874   0.165848  -0.005801
     8  H    0.400196   0.526860  -0.024640  -0.031648  -0.048567   0.002681
     9  H    0.424464  -0.024640   0.499892  -0.025824  -0.048783   0.000067
    10  H    0.403874  -0.031648  -0.025824   0.539280  -0.042760   0.002624
    11  N    0.165848  -0.048567  -0.048783  -0.042760   7.408568  -0.065938
    12  O   -0.005801   0.002681   0.000067   0.002624  -0.065938   8.302933
    13  O   -0.066029   0.000630   0.006090   0.000532  -0.102337  -0.001836
    14  C   -0.013839   0.000544  -0.000411  -0.001359   0.003648   0.003700
    15  H    0.000064   0.000000   0.000000   0.000000   0.000144  -0.000009
    16  C   -0.007544  -0.000403   0.000317   0.001202   0.069547   0.028250
    17  H    0.000106   0.000000   0.000000   0.000000   0.000200  -0.000047
    18  C    0.012381  -0.001160  -0.000807   0.004616   0.027487   0.003485
    19  H   -0.001256   0.000003  -0.000003  -0.000047   0.005986   0.000078
    20  C   -0.002956   0.000005   0.000102  -0.000313  -0.018088  -0.000222
    21  H    0.000433   0.000000   0.000000  -0.000001  -0.001536   0.000002
    22  H   -0.000094   0.000000   0.000000   0.000000   0.000011   0.000000
    23  H    0.000177   0.000000   0.000000   0.000000   0.000102  -0.000001
    24  C    0.019783  -0.002832   0.000568   0.005280  -0.007749   0.112203
    25  H    0.001938   0.000011   0.000004  -0.000111   0.015472   0.001761
    26  C    0.000701   0.001972   0.000007  -0.003947  -0.026480  -0.160161
    27  H    0.000343   0.000000   0.000000   0.000000   0.000212  -0.000994
    28  H    0.000071   0.000000   0.000000  -0.000001  -0.002201  -0.006898
    29  C   -0.000133   0.000082   0.000030  -0.000217  -0.001191   0.033827
    30  C   -0.002158  -0.000029  -0.000034   0.000204  -0.005948  -0.068974
    31  H    0.000019   0.000000   0.000000   0.000000   0.000100   0.001872
    32  H    0.000014   0.000000   0.000000   0.000000   0.000105   0.001939
    33  H    0.000588  -0.000001   0.000000   0.000001  -0.001193  -0.009252
    34  O    0.001250  -0.000001   0.000000   0.000000   0.003600   0.000592
    35  O   -0.000032   0.000000   0.000000   0.000000   0.000086  -0.000305
              13         14         15         16         17         18
     1  C    0.318024  -0.600650   0.009690   0.163343  -0.003605   0.290092
     2  C    0.020671   0.555042   0.006999  -0.145095  -0.040617  -0.137974
     3  C   -0.136858  -0.387934  -0.007611   0.577678   0.040067   0.084764
     4  C    0.128651   0.435319  -0.001942  -1.020710   0.017043  -0.248564
     5  H    0.003470  -0.003687   0.000508  -0.009805  -0.000031   0.040678
     6  H   -0.000833  -0.005311  -0.000006  -0.003864   0.000664   0.009083
     7  C   -0.066029  -0.013839   0.000064  -0.007544   0.000106   0.012381
     8  H    0.000630   0.000544   0.000000  -0.000403   0.000000  -0.001160
     9  H    0.006090  -0.000411   0.000000   0.000317   0.000000  -0.000807
    10  H    0.000532  -0.001359   0.000000   0.001202   0.000000   0.004616
    11  N   -0.102337   0.003648   0.000144   0.069547   0.000200   0.027487
    12  O   -0.001836   0.003700  -0.000009   0.028250  -0.000047   0.003485
    13  O    8.373218  -0.022705  -0.000018   0.022872  -0.000006   0.001639
    14  C   -0.022705   7.756686   0.325890  -1.838175  -0.044371  -1.542796
    15  H   -0.000018   0.325890   0.556166   0.027090  -0.007221  -0.064217
    16  C    0.022872  -1.838175   0.027090  10.076972   0.366565   0.854434
    17  H   -0.000006  -0.044371  -0.007221   0.366565   0.533896  -0.000722
    18  C    0.001639  -1.542796  -0.064217   0.854434  -0.000722   8.648130
    19  H    0.001386   0.163757   0.004107  -0.076952   0.000017   0.108946
    20  C    0.000030   0.606254  -0.014822  -0.288958   0.006281  -1.365103
    21  H    0.001891  -0.000578   0.000113  -0.008765   0.000003  -0.143043
    22  H    0.001356   0.076723   0.001984  -0.017690  -0.000004  -0.216887
    23  H   -0.000973   0.029492   0.000321  -0.012018   0.000001  -0.109171
    24  C   -0.026131   0.532100   0.017238  -2.744073   0.007437  -0.301033
    25  H   -0.000006  -0.054365   0.000012   0.144127   0.003764  -0.015214
    26  C   -0.003944   0.207490   0.004754  -0.234316  -0.043802  -0.335328
    27  H    0.000000   0.011567  -0.000002  -0.001202   0.000143  -0.004259
    28  H    0.000010  -0.005953   0.000002  -0.014613   0.000138  -0.004108
    29  C    0.000190   0.037741   0.000418  -0.170240  -0.002468  -0.022762
    30  C   -0.000141  -0.027664  -0.000131   0.044875   0.000980   0.011015
    31  H    0.000000   0.000278   0.000000   0.000332   0.000000  -0.000089
    32  H    0.000000  -0.000124   0.000000  -0.000458   0.000000   0.000020
    33  H    0.000000   0.000257   0.000000   0.003077   0.000000   0.000832
    34  O   -0.000024   0.032435   0.000403   0.167319   0.003693  -0.005723
    35  O   -0.000001  -0.003854   0.000001   0.001078   0.000715   0.000996
              19         20         21         22         23         24
     1  C   -0.045550  -0.165914   0.022311  -0.015271   0.007399   0.125172
     2  C    0.033691   0.370229  -0.029399   0.000389   0.010757  -0.129305
     3  C   -0.010983  -0.361298   0.003479   0.011392  -0.007117  -0.553530
     4  C    0.004744   0.084509  -0.001291   0.000467   0.001187   0.363504
     5  H    0.001847  -0.007836  -0.000245   0.000979  -0.000021  -0.020545
     6  H   -0.000141   0.003115  -0.000003  -0.000003   0.000001   0.036192
     7  C   -0.001256  -0.002956   0.000433  -0.000094   0.000177   0.019783
     8  H    0.000003   0.000005   0.000000   0.000000   0.000000  -0.002832
     9  H   -0.000003   0.000102   0.000000   0.000000   0.000000   0.000568
    10  H   -0.000047  -0.000313  -0.000001   0.000000   0.000000   0.005280
    11  N    0.005986  -0.018088  -0.001536   0.000011   0.000102  -0.007749
    12  O    0.000078  -0.000222   0.000002   0.000000  -0.000001   0.112203
    13  O    0.001386   0.000030   0.001891   0.001356  -0.000973  -0.026131
    14  C    0.163757   0.606254  -0.000578   0.076723   0.029492   0.532100
    15  H    0.004107  -0.014822   0.000113   0.001984   0.000321   0.017238
    16  C   -0.076952  -0.288958  -0.008765  -0.017690  -0.012018  -2.744073
    17  H    0.000017   0.006281   0.000003  -0.000004   0.000001   0.007437
    18  C    0.108946  -1.365103  -0.143043  -0.216887  -0.109171  -0.301033
    19  H    0.582111   0.005246  -0.003321   0.004327  -0.000963   0.041420
    20  C    0.005246   6.473036   0.518226   0.501475   0.421244   0.086908
    21  H   -0.003321   0.518226   0.498101  -0.026924  -0.024959   0.001048
    22  H    0.004327   0.501475  -0.026924   0.541163  -0.026224   0.006917
    23  H   -0.000963   0.421244  -0.024959  -0.026224   0.539729   0.003369
    24  C    0.041420   0.086908   0.001048   0.006917   0.003369  12.269494
    25  H    0.004628   0.008785   0.000002  -0.000001  -0.000003   0.147398
    26  C    0.030279  -0.119831  -0.000200   0.000423  -0.000570  -3.348524
    27  H   -0.000005  -0.000623   0.000000   0.000000   0.000000  -0.232116
    28  H    0.000003  -0.000523   0.000000   0.000000   0.000000  -0.153214
    29  C    0.000251  -0.005321   0.000001   0.000016   0.000000  -0.195627
    30  C   -0.000106   0.001302   0.000001  -0.000001   0.000000   0.098311
    31  H    0.000000  -0.000003   0.000000   0.000000   0.000000  -0.003034
    32  H    0.000000   0.000002   0.000000   0.000000   0.000000   0.007534
    33  H    0.000000   0.000045   0.000000   0.000000   0.000000   0.010391
    34  O    0.000063  -0.000366   0.000001   0.000001  -0.000002  -0.437957
    35  O   -0.000001   0.000027   0.000000   0.000000   0.000000   0.002742
              25         26         27         28         29         30
     1  C   -0.013255   0.062111   0.000487  -0.001585   0.031275  -0.006633
     2  C   -0.014258  -0.381056  -0.000859  -0.008434  -0.273210   0.072906
     3  C    0.010265   0.539826   0.010559  -0.032858  -0.003749   0.102308
     4  C   -0.015570   0.107722   0.015034   0.033625   0.113225  -0.134821
     5  H   -0.000130   0.006018   0.000001   0.000000  -0.000528   0.000119
     6  H    0.003031  -0.050791  -0.000008   0.000270  -0.004669   0.001478
     7  C    0.001938   0.000701   0.000343   0.000071  -0.000133  -0.002158
     8  H    0.000011   0.001972   0.000000   0.000000   0.000082  -0.000029
     9  H    0.000004   0.000007   0.000000   0.000000   0.000030  -0.000034
    10  H   -0.000111  -0.003947   0.000000  -0.000001  -0.000217   0.000204
    11  N    0.015472  -0.026480   0.000212  -0.002201  -0.001191  -0.005948
    12  O    0.001761  -0.160161  -0.000994  -0.006898   0.033827  -0.068974
    13  O   -0.000006  -0.003944   0.000000   0.000010   0.000190  -0.000141
    14  C   -0.054365   0.207490   0.011567  -0.005953   0.037741  -0.027664
    15  H    0.000012   0.004754  -0.000002   0.000002   0.000418  -0.000131
    16  C    0.144127  -0.234316  -0.001202  -0.014613  -0.170240   0.044875
    17  H    0.003764  -0.043802   0.000143   0.000138  -0.002468   0.000980
    18  C   -0.015214  -0.335328  -0.004259  -0.004108  -0.022762   0.011015
    19  H    0.004628   0.030279  -0.000005   0.000003   0.000251  -0.000106
    20  C    0.008785  -0.119831  -0.000623  -0.000523  -0.005321   0.001302
    21  H    0.000002  -0.000200   0.000000   0.000000   0.000001   0.000001
    22  H   -0.000001   0.000423   0.000000   0.000000   0.000016  -0.000001
    23  H   -0.000003  -0.000570   0.000000   0.000000   0.000000   0.000000
    24  C    0.147398  -3.348524  -0.232116  -0.153214  -0.195627   0.098311
    25  H    0.580277   0.023064   0.001424  -0.002865  -0.002600   0.000978
    26  C    0.023064   8.743094   0.567112   0.543279   0.247859  -0.108188
    27  H    0.001424   0.567112   0.558239  -0.034016   0.004170  -0.005888
    28  H   -0.002865   0.543279  -0.034016   0.551415   0.006912   0.002860
    29  C   -0.002600   0.247859   0.004170   0.006912   5.661858  -0.172427
    30  C    0.000978  -0.108188  -0.005888   0.002860  -0.172427   5.713763
    31  H    0.000001   0.004866   0.000093  -0.001098  -0.008461   0.359348
    32  H    0.000000  -0.005832  -0.000011   0.000045  -0.063647   0.413617
    33  H   -0.000009  -0.026487   0.000394   0.003026  -0.114101   0.426936
    34  O    0.010161   0.229550  -0.054511  -0.033695   0.075312  -0.201150
    35  O    0.000100  -0.000881  -0.001084   0.000223   0.517179  -0.131132
              31         32         33         34         35
     1  C   -0.000274   0.000105  -0.001180  -0.002628  -0.000642
     2  C    0.000057   0.001735   0.012447   0.052972   0.004028
     3  C   -0.006748   0.001875   0.012677  -0.000641  -0.009867
     4  C    0.003157  -0.002077   0.011677   0.013285  -0.002621
     5  H    0.000000   0.000000   0.000000  -0.000019  -0.000006
     6  H    0.000025   0.000023  -0.000219   0.008414   0.001111
     7  C    0.000019   0.000014   0.000588   0.001250  -0.000032
     8  H    0.000000   0.000000  -0.000001  -0.000001   0.000000
     9  H    0.000000   0.000000   0.000000   0.000000   0.000000
    10  H    0.000000   0.000000   0.000001   0.000000   0.000000
    11  N    0.000100   0.000105  -0.001193   0.003600   0.000086
    12  O    0.001872   0.001939  -0.009252   0.000592  -0.000305
    13  O    0.000000   0.000000   0.000000  -0.000024  -0.000001
    14  C    0.000278  -0.000124   0.000257   0.032435  -0.003854
    15  H    0.000000   0.000000   0.000000   0.000403   0.000001
    16  C    0.000332  -0.000458   0.003077   0.167319   0.001078
    17  H    0.000000   0.000000   0.000000   0.003693   0.000715
    18  C   -0.000089   0.000020   0.000832  -0.005723   0.000996
    19  H    0.000000   0.000000   0.000000   0.000063  -0.000001
    20  C   -0.000003   0.000002   0.000045  -0.000366   0.000027
    21  H    0.000000   0.000000   0.000000   0.000001   0.000000
    22  H    0.000000   0.000000   0.000000   0.000001   0.000000
    23  H    0.000000   0.000000   0.000000  -0.000002   0.000000
    24  C   -0.003034   0.007534   0.010391  -0.437957   0.002742
    25  H    0.000001   0.000000  -0.000009   0.010161   0.000100
    26  C    0.004866  -0.005832  -0.026487   0.229550  -0.000881
    27  H    0.000093  -0.000011   0.000394  -0.054511  -0.001084
    28  H   -0.001098   0.000045   0.003026  -0.033695   0.000223
    29  C   -0.008461  -0.063647  -0.114101   0.075312   0.517179
    30  C    0.359348   0.413617   0.426936  -0.201150  -0.131132
    31  H    0.496907  -0.020464  -0.023445   0.002899  -0.002795
    32  H   -0.020464   0.498032  -0.025232   0.007015  -0.002621
    33  H   -0.023445  -0.025232   0.509308   0.007425   0.007742
    34  O    0.002899   0.007015   0.007425   8.580492  -0.120368
    35  O   -0.002795  -0.002621   0.007742  -0.120368   8.176341
 Mulliken charges:
               1
     1  C    0.197978
     2  C   -0.173847
     3  C   -0.110784
     4  C   -0.034714
     5  H    0.176810
     6  H    0.194576
     7  C   -0.213579
     8  H    0.168418
     9  H    0.181349
    10  H    0.162066
    11  N   -0.038432
    12  O   -0.470110
    13  O   -0.518818
    14  C   -0.225148
    15  H    0.140072
    16  C    0.045802
    17  H    0.161178
    18  C    0.420363
    19  H    0.146436
    20  C   -0.734645
    21  H    0.194654
    22  H    0.155471
    23  H    0.168241
    24  C    0.260658
    25  H    0.161184
    26  C   -0.469790
    27  H    0.165799
    28  H    0.160181
    29  C    0.311007
    30  C   -0.385575
    31  H    0.196456
    32  H    0.188405
    33  H    0.194295
    34  O   -0.339799
    35  O   -0.436160
 Sum of Mulliken charges =   0.00000
 Mulliken charges with hydrogens summed into heavy atoms:
               1
     1  C    0.197978
     2  C    0.002963
     3  C    0.083793
     4  C   -0.034714
     7  C    0.298254
    11  N   -0.038432
    12  O   -0.470110
    13  O   -0.518818
    14  C   -0.085077
    16  C    0.206980
    18  C    0.566799
    20  C   -0.216279
    24  C    0.421842
    26  C   -0.143810
    29  C    0.311007
    30  C    0.193582
    34  O   -0.339799
    35  O   -0.436160
 APT charges:
               1
     1  C   -0.135641
     2  C   -0.589816
     3  C   -0.085779
     4  C   -0.412737
     5  H    0.549395
     6  H    0.407483
     7  C   -1.602421
     8  H    0.568368
     9  H    0.727020
    10  H    0.408703
    11  N    0.141118
    12  O   -0.199397
    13  O   -0.011584
    14  C   -0.500119
    15  H    0.689100
    16  C   -0.623606
    17  H    0.565594
    18  C    0.597788
    19  H    0.148700
    20  C   -2.185579
    21  H    0.366410
    22  H    0.546093
    23  H    0.734920
    24  C    0.286545
    25  H    0.304531
    26  C   -1.286876
    27  H    0.659142
    28  H    0.318109
    29  C   -0.352440
    30  C   -1.203776
    31  H    0.704831
    32  H    0.691091
    33  H    0.000481
    34  O   -0.299312
    35  O    0.073663
 Sum of APT charges =   0.00000
 APT charges with hydrogens summed into heavy atoms:
               1
     1  C   -0.135641
     2  C   -0.040421
     3  C    0.321704
     4  C   -0.412737
     7  C    0.101670
    11  N    0.141118
    12  O   -0.199397
    13  O   -0.011584
    14  C    0.188982
    16  C   -0.058012
    18  C    0.746488
    20  C   -0.538156
    24  C    0.591076
    26  C   -0.309625
    29  C   -0.352440
    30  C    0.192626
    34  O   -0.299312
    35  O    0.073663
 Electronic spatial extent (au):  <R**2>=           4787.2828
 Charge=              0.0000 electrons
 Dipole moment (field-independent basis, Debye):
    X=             -2.3744    Y=              0.1942    Z=              3.5705  Tot=              4.2923
 Quadrupole moment (field-independent basis, Debye-Ang):
   XX=           -130.1440   YY=           -103.7718   ZZ=           -108.0246
   XY=             13.0322   XZ=              6.9245   YZ=             -0.0860
 Traceless Quadrupole moment (field-independent basis, Debye-Ang):
   XX=            -16.1639   YY=             10.2083   ZZ=              5.9555
   XY=             13.0322   XZ=              6.9245   YZ=             -0.0860
 Octapole moment (field-independent basis, Debye-Ang**2):
  XXX=             -8.1693  YYY=              8.0013  ZZZ=              8.5370  XYY=            -29.2307
  XXY=             34.0005  XXZ=             70.5153  XZZ=             -5.1260  YZZ=              7.0300
  YYZ=             -7.7377  XYZ=            -22.8811
 Hexadecapole moment (field-independent basis, Debye-Ang**3):
 XXXX=          -4416.9184 YYYY=          -1868.5397 ZZZZ=           -481.6426 XXXY=            270.2047
 XXXZ=            146.1281 YYYX=            -62.5189 YYYZ=             30.8963 ZZZX=             29.1904
 ZZZY=             10.3622 XXYY=           -928.0959 XXZZ=           -789.0409 YYZZ=           -414.7420
 XXYZ=            -22.6219 YYXZ=             -3.8834 ZZXY=              9.1877
 N-N= 1.384398642880D+03 E-N=-4.773815656493D+03  KE= 8.530841026827D+02
  Exact polarizability:   0.000   0.000   0.000   0.000   0.000   0.000
 Approx polarizability: 336.282   4.339 321.262  19.968 -18.910 233.004
 D2PCM: C-PCM CHGder 2nd derivatives, FixD1E=F FixD2E=F DoIter=F DoCFld=F I1PDM=0
 Calling FoFJK, ICntrl=    100147 FMM=F ISym2X=0 I1Cent= 0 IOpClX= 0 NMat=1 NMatS=1 NMatT=0.
 ***** Axes restored to original set *****
 -------------------------------------------------------------------
 Center     Atomic                   Forces (Hartrees/Bohr)
 Number     Number              X              Y              Z
 -------------------------------------------------------------------
      1        6           0.036614600    0.019216779    0.007920271
      2        6          -0.019877146   -0.004010262   -0.002470142
      3        6           0.014469863    0.010331849    0.012461994
      4        6          -0.038720679   -0.007072142   -0.019185447
      5        1          -0.000002694    0.003150170   -0.003824126
      6        1          -0.005539553    0.005138734   -0.002280881
      7        6           0.000111516   -0.000088453    0.001393983
      8        1          -0.001201893   -0.007465138    0.001517007
      9        1           0.009697248   -0.005340935   -0.000186538
     10        1           0.000107705   -0.000906388   -0.006068064
     11        7           0.006266218   -0.008131140    0.000599901
     12        8           0.007022560    0.010428007    0.006116338
     13        8          -0.018035904   -0.001484785   -0.004976460
     14        6           0.024988567   -0.005651618    0.009372190
     15        1          -0.001593361    0.004376083    0.000438016
     16        6          -0.007728376   -0.026774892    0.002637381
     17        1          -0.005724822    0.006038641    0.000443820
     18        6          -0.006053828    0.016540564   -0.005527595
     19        1           0.000968094   -0.009528336   -0.001023008
     20        6          -0.019577065   -0.001158197   -0.005451703
     21        1           0.005249151   -0.004209105    0.004050405
     22        1           0.004056929    0.000647294    0.002949929
     23        1           0.002130591    0.001749625   -0.000247897
     24        6          -0.002405900    0.014054672    0.004837383
     25        1           0.005387858   -0.006487302   -0.001607391
     26        6           0.014775000   -0.000251900    0.003940619
     27        1          -0.007912672    0.006042462   -0.003452334
     28        1          -0.002970589   -0.014017702    0.000837342
     29        6          -0.009317401   -0.033643695    0.003916566
     30        6          -0.002494510    0.030724686    0.000968870
     31        1          -0.002773984   -0.005144134   -0.001654645
     32        1          -0.000730604   -0.009629974    0.003038452
     33        1           0.009704797   -0.007700180   -0.002903626
     34        8           0.002123577    0.019779341    0.001685754
     35        8           0.008986706    0.010477371   -0.008266367
 -------------------------------------------------------------------
 Cartesian Forces:  Max     0.038720679 RMS     0.010734013
[...]
    19  H   -0.013876   0.016130  -0.001740  -0.012793   0.001592  -0.000103
    20  C   -0.121911   0.409472  -0.295059   0.068630  -0.024237   0.004021
    21  H    0.016180  -0.023886   0.001910  -0.000721  -0.000057  -0.000003
    22  H   -0.006324   0.002241   0.007600  -0.000579   0.000549  -0.000001
    23  H    0.002577   0.013507  -0.007288   0.001166  -0.000018   0.000001
    24  C    0.123401  -0.005607  -0.396704   0.121505  -0.008394   0.060923
    25  H   -0.006498  -0.026130   0.022892  -0.019769  -0.000100   0.001823
    26  C    0.077059  -0.377873   0.541258   0.009878   0.010290  -0.055181
    27  H    0.000572  -0.002177   0.014183  -0.000411   0.000001  -0.000011
    28  H   -0.003382   0.001454  -0.052656   0.052411  -0.000002   0.000129
    29  C    0.013307  -0.094187   0.033616   0.022780   0.000120  -0.000874
    30  C   -0.003961   0.025790  -0.005986  -0.020055  -0.000052  -0.000019
    31  H   -0.000033  -0.000027   0.000706  -0.001000   0.000000  -0.000001
    32  H    0.000013   0.000144   0.000761  -0.000391   0.000000  -0.000001
    33  H   -0.000203   0.002280   0.001049   0.002836   0.000000  -0.000004
    34  O   -0.003781   0.024986   0.033508  -0.022006   0.000056   0.005606
    35  O    0.000221  -0.005789  -0.003443  -0.000833   0.000001   0.000540
               7          8          9         10         11         12
     1  C   -0.130883   0.007240  -0.004860  -0.011835   0.240750   0.105870
     2  C   -0.006955  -0.008354  -0.003328   0.005870  -0.458767  -0.132329
     3  C   -0.169391   0.006508   0.001537  -0.008373  -0.457158  -0.036492
     4  C   -0.113368  -0.008245  -0.007703   0.007184   0.169324   0.425194
     5  H    0.000915   0.000002   0.000006  -0.000006   0.015894  -0.000674
     6  H    0.002538  -0.000005   0.000007   0.000001   0.020802   0.001804
     7  C    5.239195   0.409251   0.425911   0.403912   0.234947  -0.049792
     8  H    0.409251   0.510248  -0.027694  -0.023175  -0.046507   0.004157
     9  H    0.425911  -0.027694   0.527768  -0.029774  -0.052675   0.001123
    10  H    0.403912  -0.023175  -0.029774   0.517121  -0.039352   0.000658
    11  N    0.234947  -0.046507  -0.052675  -0.039352   7.582976  -0.124668
    12  O   -0.049792   0.004157   0.001123   0.000658  -0.124668   8.346527
    13  O   -0.041147   0.000575   0.001435   0.003015  -0.126626  -0.002029
    14  C    0.010758  -0.000577   0.000503  -0.000461   0.035913  -0.001713
    15  H    0.000104   0.000000   0.000000   0.000000   0.000368  -0.000005
    16  C   -0.033844   0.000136   0.000276  -0.000322  -0.007515   0.011276
    17  H    0.000147   0.000000   0.000000   0.000000   0.000280  -0.000040
    18  C   -0.003875   0.001780  -0.001684   0.002519   0.012960   0.005581
    19  H   -0.000589  -0.000008   0.000009  -0.000072   0.008991   0.000162
    20  C   -0.001083  -0.000037   0.000075   0.000018  -0.019245   0.000450
    21  H    0.000090   0.000000   0.000000  -0.000004  -0.001324   0.000005
    22  H   -0.000097   0.000000   0.000000   0.000000  -0.000068   0.000001
    23  H    0.000237   0.000000   0.000000   0.000000   0.000302  -0.000002
    24  C    0.001864   0.002908  -0.001913   0.002322   0.014462   0.182847
    25  H    0.001205  -0.000047   0.000007  -0.000017   0.011273   0.002497
    26  C    0.028480  -0.002963   0.001621  -0.001865   0.007300  -0.216346
    27  H    0.000349   0.000000   0.000000   0.000000   0.000480   0.000089
    28  H    0.000251  -0.000006   0.000000   0.000000  -0.001535  -0.004509
    29  C    0.000084  -0.000027   0.000015  -0.000003   0.001114   0.007719
    30  C    0.000281   0.000010  -0.000006  -0.000001  -0.001368  -0.015225
    31  H   -0.000004   0.000000   0.000000   0.000000   0.000009   0.000202
    32  H   -0.000002   0.000000   0.000000   0.000000  -0.000001   0.000031
    33  H    0.000098   0.000000   0.000000   0.000000   0.000065  -0.000685
    34  O    0.000658  -0.000001   0.000001   0.000000   0.002617   0.002499
    35  O   -0.000008   0.000000   0.000000   0.000000   0.000010  -0.000028
              13         14         15         16         17         18
     1  C    0.454787  -0.220474   0.009991  -0.016981  -0.003466  -0.009451
     2  C   -0.073024   0.267178   0.011228  -0.083385  -0.028636  -0.109502
     3  C   -0.098411  -0.160346  -0.009891   0.344470   0.027255   0.017259
     4  C    0.083774   0.208972  -0.003611  -0.533017   0.016167  -0.074386
     5  H    0.001668  -0.001389   0.000255  -0.018673  -0.000001   0.049351
     6  H   -0.000616   0.001592  -0.000004  -0.003119   0.000247  -0.002921
     7  C   -0.041147   0.010758   0.000104  -0.033844   0.000147  -0.003875
     8  H    0.000575  -0.000577   0.000000   0.000136   0.000000   0.001780
     9  H    0.001435   0.000503   0.000000   0.000276   0.000000  -0.001684
    10  H    0.003015  -0.000461   0.000000  -0.000322   0.000000   0.002519
    11  N   -0.126626   0.035913   0.000368  -0.007515   0.000280   0.012960
    12  O   -0.002029  -0.001713  -0.000005   0.011276  -0.000040   0.005581
    13  O    8.341988  -0.034921  -0.000018   0.022903  -0.000003   0.021076
    14  C   -0.034921   7.102868   0.353600  -1.482469  -0.052732  -1.097500
    15  H   -0.000018   0.353600   0.562441   0.014244  -0.007703  -0.065037
    16  C    0.022903  -1.482469   0.014244   9.160129   0.389947   0.499036
    17  H   -0.000003  -0.052732  -0.007703   0.389947   0.540889   0.005182
    18  C    0.021076  -1.097500  -0.065037   0.499036   0.005182   8.903611
    19  H    0.000341   0.135366   0.004699  -0.070459   0.000003   0.146964
    20  C   -0.014859   0.628388  -0.037002  -0.309834   0.008984  -1.889088
    21  H    0.003812   0.001019   0.000120  -0.010813   0.000003  -0.144811
    22  H    0.000828   0.060639   0.002859  -0.013528  -0.000004  -0.208770
    23  H   -0.000801   0.034672   0.000219  -0.005777   0.000000  -0.176036
    24  C   -0.020052   0.466455   0.012206  -2.264921  -0.007709  -0.009448
    25  H    0.000070  -0.070918   0.000019   0.159711   0.004306   0.008286
    26  C   -0.002309   0.058599   0.014237   0.142016  -0.054216  -0.331086
    27  H    0.000000   0.021035  -0.000001   0.024110   0.000299   0.001189
    28  H    0.000009  -0.005599   0.000002  -0.022264   0.000086  -0.008005
    29  C    0.000027  -0.004801   0.000090  -0.105234  -0.000219  -0.001247
    30  C   -0.000010  -0.009237  -0.000045   0.021855  -0.000775   0.000646
    31  H    0.000000  -0.000307   0.000000  -0.001206   0.000001  -0.000219
    32  H    0.000000   0.000046   0.000000  -0.000054   0.000000  -0.000005
    33  H    0.000000   0.000739   0.000000   0.003086  -0.000001   0.000204
    34  O    0.000007   0.018922   0.000502   0.201411   0.005753  -0.004229
    35  O    0.000000  -0.007431   0.000004  -0.001418   0.000399   0.000334
              19         20         21         22         23         24
     1  C   -0.013876  -0.121911   0.016180  -0.006324   0.002577   0.123401
     2  C    0.016130   0.409472  -0.023886   0.002241   0.013507  -0.005607
     3  C   -0.001740  -0.295059   0.001910   0.007600  -0.007288  -0.396704
     4  C   -0.012793   0.068630  -0.000721  -0.000579   0.001166   0.121505
     5  H    0.001592  -0.024237  -0.000057   0.000549  -0.000018  -0.008394
     6  H   -0.000103   0.004021  -0.000003  -0.000001   0.000001   0.060923
     7  C   -0.000589  -0.001083   0.000090  -0.000097   0.000237   0.001864
     8  H   -0.000008  -0.000037   0.000000   0.000000   0.000000   0.002908
     9  H    0.000009   0.000075   0.000000   0.000000   0.000000  -0.001913
    10  H   -0.000072   0.000018  -0.000004   0.000000   0.000000   0.002322
    11  N    0.008991  -0.019245  -0.001324  -0.000068   0.000302   0.014462
    12  O    0.000162   0.000450   0.000005   0.000001  -0.000002   0.182847
    13  O    0.000341  -0.014859   0.003812   0.000828  -0.000801  -0.020052
    14  C    0.135366   0.628388   0.001019   0.060639   0.034672   0.466455
    15  H    0.004699  -0.037002   0.000120   0.002859   0.000219   0.012206
    16  C   -0.070459  -0.309834  -0.010813  -0.013528  -0.005777  -2.264921
    17  H    0.000003   0.008984   0.000003  -0.000004   0.000000  -0.007709
    18  C    0.146964  -1.889088  -0.144811  -0.208770  -0.176036  -0.009448
    19  H    0.588307  -0.017198  -0.002606   0.004454  -0.002021   0.020601
    20  C   -0.017198   6.906159   0.520638   0.502401   0.490780   0.090425
    21  H   -0.002606   0.520638   0.500530  -0.025479  -0.026169   0.001705
    22  H    0.004454   0.502401  -0.025479   0.540966  -0.025283   0.004426
    23  H   -0.002021   0.490780  -0.026169  -0.025283   0.539341  -0.003900
    24  C    0.020601   0.090425   0.001705   0.004426  -0.003900  13.284737
    25  H    0.003522   0.010731   0.000001   0.000000  -0.000001   0.136311
    26  C    0.048821  -0.208641  -0.000279   0.000595  -0.002106  -5.268190
    27  H   -0.000001  -0.000244   0.000000   0.000000   0.000000  -0.119820
    28  H    0.000005  -0.000915   0.000000   0.000000   0.000000  -0.258207
    29  C    0.000088  -0.000120   0.000005   0.000006  -0.000002   0.125456
    30  C   -0.000015  -0.000253  -0.000001   0.000000   0.000000  -0.124237
    31  H    0.000000  -0.000008   0.000000   0.000000   0.000000  -0.011537
    32  H    0.000000   0.000000   0.000000   0.000000   0.000000  -0.003249
    33  H    0.000000   0.000011   0.000000   0.000000   0.000000   0.011386
    34  O    0.000105  -0.002394   0.000001   0.000002  -0.000003  -0.489454
    35  O    0.000000  -0.000040   0.000000   0.000000   0.000000  -0.005136
              25         26         27         28         29         30
     1  C   -0.006498   0.077059   0.000572  -0.003382   0.013307  -0.003961
     2  C   -0.026130  -0.377873  -0.002177   0.001454  -0.094187   0.025790
     3  C    0.022892   0.541258   0.014183  -0.052656   0.033616  -0.005986
     4  C   -0.019769   0.009878  -0.000411   0.052411   0.022780  -0.020055
     5  H   -0.000100   0.010290   0.000001  -0.000002   0.000120  -0.000052
     6  H    0.001823  -0.055181  -0.000011   0.000129  -0.000874  -0.000019
     7  C    0.001205   0.028480   0.000349   0.000251   0.000084   0.000281
     8  H   -0.000047  -0.002963   0.000000  -0.000006  -0.000027   0.000010
     9  H    0.000007   0.001621   0.000000   0.000000   0.000015  -0.000006
    10  H   -0.000017  -0.001865   0.000000   0.000000  -0.000003  -0.000001
    11  N    0.011273   0.007300   0.000480  -0.001535   0.001114  -0.001368
    12  O    0.002497  -0.216346   0.000089  -0.004509   0.007719  -0.015225
    13  O    0.000070  -0.002309   0.000000   0.000009   0.000027  -0.000010
    14  C   -0.070918   0.058599   0.021035  -0.005599  -0.004801  -0.009237
    15  H    0.000019   0.014237  -0.000001   0.000002   0.000090  -0.000045
    16  C    0.159711   0.142016   0.024110  -0.022264  -0.105234   0.021855
    17  H    0.004306  -0.054216   0.000299   0.000086  -0.000219  -0.000775
    18  C    0.008286  -0.331086   0.001189  -0.008005  -0.001247   0.000646
    19  H    0.003522   0.048821  -0.000001   0.000005   0.000088  -0.000015
    20  C    0.010731  -0.208641  -0.000244  -0.000915  -0.000120  -0.000253
    21  H    0.000001  -0.000279   0.000000   0.000000   0.000005  -0.000001
    22  H    0.000000   0.000595   0.000000   0.000000   0.000006   0.000000
    23  H   -0.000001  -0.002106   0.000000   0.000000  -0.000002   0.000000
    24  C    0.136311  -5.268190  -0.119820  -0.258207   0.125456  -0.124237
    25  H    0.575237   0.022299   0.001620  -0.003540  -0.000948   0.001370
    26  C    0.022299  10.773138   0.399236   0.678262  -0.069428   0.132392
    27  H    0.001620   0.399236   0.567933  -0.041812   0.009768  -0.008980
    28  H   -0.003540   0.678262  -0.041812   0.535794  -0.016673   0.014907
    29  C   -0.000948  -0.069428   0.009768  -0.016673   5.138427   0.061071
    30  C    0.001370   0.132392  -0.008980   0.014907   0.061071   5.505758
    31  H   -0.000003   0.032348   0.000087  -0.002781  -0.051602   0.383979
    32  H    0.000000  -0.006278   0.000013   0.000154  -0.045761   0.414862
    33  H   -0.000003  -0.015434   0.000095   0.000679  -0.041878   0.380765
    34  O    0.008778   0.256325  -0.033988  -0.041267   0.045244  -0.196634
    35  O    0.000049   0.018974  -0.000585   0.000238   0.525019  -0.125099
              31         32         33         34         35
     1  C   -0.000033   0.000013  -0.000203  -0.003781   0.000221
     2  C   -0.000027   0.000144   0.002280   0.024986  -0.005789
     3  C    0.000706   0.000761   0.001049   0.033508  -0.003443
     4  C   -0.001000  -0.000391   0.002836  -0.022006  -0.000833
     5  H    0.000000   0.000000   0.000000   0.000056   0.000001
     6  H   -0.000001  -0.000001  -0.000004   0.005606   0.000540
     7  C   -0.000004  -0.000002   0.000098   0.000658  -0.000008
     8  H    0.000000   0.000000   0.000000  -0.000001   0.000000
     9  H    0.000000   0.000000   0.000000   0.000001   0.000000
    10  H    0.000000   0.000000   0.000000   0.000000   0.000000
    11  N    0.000009  -0.000001   0.000065   0.002617   0.000010
    12  O    0.000202   0.000031  -0.000685   0.002499  -0.000028
    13  O    0.000000   0.000000   0.000000   0.000007   0.000000
    14  C   -0.000307   0.000046   0.000739   0.018922  -0.007431
    15  H    0.000000   0.000000   0.000000   0.000502   0.000004
    16  C   -0.001206  -0.000054   0.003086   0.201411  -0.001418
    17  H    0.000001   0.000000  -0.000001   0.005753   0.000399
    18  C   -0.000219  -0.000005   0.000204  -0.004229   0.000334
    19  H    0.000000   0.000000   0.000000   0.000105   0.000000
    20  C   -0.000008   0.000000   0.000011  -0.002394  -0.000040
    21  H    0.000000   0.000000   0.000000   0.000001   0.000000
    22  H    0.000000   0.000000   0.000000   0.000002   0.000000
    23  H    0.000000   0.000000   0.000000  -0.000003   0.000000
    24  C   -0.011537  -0.003249   0.011386  -0.489454  -0.005136
    25  H   -0.000003   0.000000  -0.000003   0.008778   0.000049
    26  C    0.032348  -0.006278  -0.015434   0.256325   0.018974
    27  H    0.000087   0.000013   0.000095  -0.033988  -0.000585
    28  H   -0.002781   0.000154   0.000679  -0.041267   0.000238
    29  C   -0.051602  -0.045761  -0.041878   0.045244   0.525019
    30  C    0.383979   0.414862   0.380765  -0.196634  -0.125099
    31  H    0.514273  -0.022474  -0.024544  -0.001477   0.004352
    32  H   -0.022474   0.489577  -0.019948   0.010139  -0.007554
    33  H   -0.024544  -0.019948   0.492456   0.004687   0.002234
    34  O   -0.001477   0.010139   0.004687   8.661297  -0.118844
    35  O    0.004352  -0.007554   0.002234  -0.118844   8.183591
 Mulliken charges:
               1
     1  C    0.115982
     2  C   -0.020789
     3  C   -0.111994
     4  C    0.013264
     5  H    0.173733
     6  H    0.189294
     7  C   -0.210236
     8  H    0.174831
     9  H    0.169345
    10  H    0.172639
    11  N   -0.024024
    12  O   -0.514155
    13  O   -0.521487
    14  C   -0.256388
    15  H    0.136130
    16  C   -0.009770
    17  H    0.155556
    18  C    0.461324
    19  H    0.141322
    20  C   -0.699014
    21  H    0.190133
    22  H    0.152567
    23  H    0.166603
    24  C    0.334538
    25  H    0.155969
    26  C   -0.640931
    27  H    0.166971
    28  H    0.178771
    29  C    0.449049
    30  C   -0.431724
    31  H    0.181267
    32  H    0.189983
    33  H    0.200029
    34  O   -0.369029
    35  O   -0.459758
 Sum of Mulliken charges =   0.00000
 Mulliken charges with hydrogens summed into heavy atoms:
               1
     1  C    0.115982
     2  C    0.152944
     3  C    0.077299
     4  C    0.013264
     7  C    0.306579
    11  N   -0.024024
    12  O   -0.514155
    13  O   -0.521487
    14  C   -0.120258
    16  C    0.145786
    18  C    0.602646
    20  C   -0.189710
    24  C    0.490507
    26  C   -0.295189
    29  C    0.449049
    30  C    0.139554
    34  O   -0.369029
    35  O   -0.459758
 Electronic spatial extent (au):  <R**2>=           5210.7972
 Charge=              0.0000 electrons
 Dipole moment (field-independent basis, Debye):
    X=             -1.5306    Y=             -0.4413    Z=              4.4122  Tot=              4.6909
 Quadrupole moment (field-independent basis, Debye-Ang):
   XX=           -130.6692   YY=           -104.9800   ZZ=           -107.1343
   XY=             10.5031   XZ=              9.9702   YZ=              1.0398
 Traceless Quadrupole moment (field-independent basis, Debye-Ang):
   XX=            -16.4080   YY=              9.2812   ZZ=              7.1269
   XY=             10.5031   XZ=              9.9702   YZ=              1.0398
 Octapole moment (field-independent basis, Debye-Ang**2):
  XXX=             13.9177  YYY=             -4.1759  ZZZ=              4.2155  XYY=            -28.2587
  XXY=             38.1816  XXZ=             91.4892  XZZ=             -8.9483  YZZ=              9.7921
  YYZ=             -4.6202  XYZ=            -18.3134
 Hexadecapole moment (field-independent basis, Debye-Ang**3):
 XXXX=          -5218.1196 YYYY=          -1829.6397 ZZZZ=           -455.1981 XXXY=            273.9850
 XXXZ=            198.6034 YYYX=            -67.2892 YYYZ=             37.6372 ZZZX=             26.5142
 ZZZY=             13.8954 XXYY=          -1007.1505 XXZZ=           -898.9293 YYZZ=           -394.8917
 XXYZ=            -22.6795 YYXZ=             -3.4534 ZZXY=              5.5366
 N-N= 1.358603771498D+03 E-N=-4.722238387419D+03  KE= 8.532380397628D+02
 1\1\GINC-D8S1B4\FTS\RB3LYP\6-31+G(d,p)\C13H17N1O4\CHMKSH\27-Aug-2020\0
 \\# opt=(calcfc,ts,noeigentest) b3lyp/6-31+g(d,p) scrf=(cpcm,solvent=t
 oluene) geom=connectivity empiricaldispersion=gd3\\Title Card Required
 \\0,1\C,-2.4697567923,0.9693694495,-0.8037656816\C,-1.4967409818,-0.04
 79512162,-1.2739406323\C,-0.2211531056,0.3560103429,-0.8560859342\C,-0
 .3827110843,1.6448765865,-0.1199113978\H,-1.720673479,-0.6576822928,-2
 .1366317144\H,0.7059775746,0.1448747465,-1.3702814607\C,-2.3446127872,
 3.0445522165,0.626400308\H,-1.6540325771,3.4028790505,1.3904930561\H,-
 2.5266262748,3.8439428799,-0.0989004187\H,-3.2931107808,2.7553551022,1
 .0816611588\N,-1.7524571928,1.8841916947,-0.017775034\O,0.4886152985,2
 .3732278841,0.3419360206\O,-3.6725785618,1.0471161249,-1.0171534598\C,
 -1.1000136806,-2.5641311808,0.005412172\H,-1.1868646926,-3.4941350052,
 -0.5539874108\C,0.1845127732,-2.1455134452,0.3751338014\H,1.0304790772
 ,-2.7539433254,0.0662278773\C,-2.2322638915,-1.7608081301,0.1131110827
 \H,-2.2501114144,-0.995785144,0.8857544181\C,-3.5785454464,-2.18458525
 68,-0.3963828448\H,-4.1389299079,-1.3242010049,-0.7748970243\H,-3.4925
 49975,-2.9324565972,-1.1905097657\H,-4.1689225439,-2.6190632411,0.4214
 888364\C,0.4446788289,-0.8720904887,0.8794475573\H,-0.3085154723,-0.38
 50450604,1.4937756834\C,1.8386928908,-0.3887970355,1.1610785875\H,2.19
 60517986,-0.7864677752,2.1205863623\H,1.8426935377,0.7022354312,1.2069
 640988\C,3.9403577923,-0.3376727622,-0.0943944064\C,4.3808453452,0.813
 9275351,0.7786120271\H,4.3031431238,0.5629952258,1.8406667854\H,5.4141
 854521,1.054987858,0.5334013958\H,3.7513158769,1.691469208,0.596555013
 \O,2.7039163493,-0.862826067,0.105113225\O,4.6230549229,-0.8140723076,
 -0.9784792815\\Version=ES64L-G09RevD.01\State=1-A\HF=-861.3221183\RMSD
 =8.201e-09\RMSF=3.137e-06\Dipole=-0.7650052,-0.2541208,1.6601943\Quadr
 upole=-12.3472649,5.6973798,6.6498851,8.4378088,6.4733039,1.0514505\PG
 =C01 [X(C13H17N1O4)]\\@


 CHINESE FORTUNE COOKIE OF JAN 1 1967 SAY....
 ALL THINGS ARE DIFFICULT BEFORE THEY ARE EASY.
 WE LEARN SO LITTLE AND FORGET SO MUCH.
 YOU WILL OVERCOME OBSTACLES TO ACHIEVE SUCCESS.
 AH SO.
 Job cpu time:       1 days  2 hours 15 minutes 32.4 seconds.
 File lengths (MBytes):  RWF=    657 Int=      0 D2E=      0 Chk=     22 Scr=      1
 Normal termination of Gaussian 09 at Thu Aug 27 23:29:57 2020.
