 Entering Gaussian System, Link 0=g09
 Input=freq_b3lyp_TS2_scan2_diene_dienophile_pm6_cpcmtoluene_2.com
 Output=freq_b3lyp_TS2_scan2_diene_dienophile_pm6_cpcmtoluene_2.log
 Initial command:
 /apps/applications/gaussian/G09.D01/2/default/g09/l1.exe "/local/716087.1.40core-192G.q/Gau-69378.inp" -scrdir="/local/716087.1.40core-192G.q/"
 Entering Link 1 = /apps/applications/gaussian/G09.D01/2/default/g09/l1.exe PID=     69385.
  
 Copyright (c) 1988,1990,1992,1993,1995,1998,2003,2009,2013,
            Gaussian, Inc.  All Rights Reserved.
  
 This is part of the Gaussian(R) 09 program.  It is based on
 the Gaussian(R) 03 system (copyright 2003, Gaussian, Inc.),
 the Gaussian(R) 98 system (copyright 1998, Gaussian, Inc.),
 the Gaussian(R) 94 system (copyright 1995, Gaussian, Inc.),
 the Gaussian 92(TM) system (copyright 1992, Gaussian, Inc.),
 the Gaussian 90(TM) system (copyright 1990, Gaussian, Inc.),
 the Gaussian 88(TM) system (copyright 1988, Gaussian, Inc.),
 the Gaussian 86(TM) system (copyright 1986, Carnegie Mellon
 University), and the Gaussian 82(TM) system (copyright 1983,
 Carnegie Mellon University). Gaussian is a federally registered
 trademark of Gaussian, Inc.
  
 This software contains proprietary and confidential information,
 including trade secrets, belonging to Gaussian, Inc.
  
 This software is provided under written license and may be
 used, copied, transmitted, or stored only in accord with that
 written license.
  
 The following legend is applicable only to US Government
 contracts under FAR:
  
                    RESTRICTED RIGHTS LEGEND
  
 Use, reproduction and disclosure by the US Government is
 subject to restrictions as set forth in subparagraphs (a)
 and (c) of the Commercial Computer Software - Restricted
 Rights clause in FAR 52.227-19.
  
 Gaussian, Inc.
 340 Quinnipiac St., Bldg. 40, Wallingford CT 06492
  
  
 ---------------------------------------------------------------
 Warning -- This program may not be used in any manner that
 competes with the business of Gaussian, Inc. or will provide
 assistance to any competitor of Gaussian, Inc.  The licensee
 of this program is prohibited from giving any competitor of
 Gaussian, Inc. access to this program.  By using this program,
 the user acknowledges that Gaussian, Inc. is engaged in the
 business of creating and licensing software in the field of
 computational chemistry and represents and warrants to the
 licensee that it is not a competitor of Gaussian, Inc. and that
 it will not use this program in any manner prohibited above.
 ---------------------------------------------------------------
  

 Cite this work as:
 Gaussian 09, Revision D.01,
 M. J. Frisch, G. W. Trucks, H. B. Schlegel, G. E. Scuseria, 
 M. A. Robb, J. R. Cheeseman, G. Scalmani, V. Barone, B. Mennucci, 
 G. A. Petersson, H. Nakatsuji, M. Caricato, X. Li, H. P. Hratchian, 
 A. F. Izmaylov, J. Bloino, G. Zheng, J. L. Sonnenberg, M. Hada, 
 M. Ehara, K. Toyota, R. Fukuda, J. Hasegawa, M. Ishida, T. Nakajima, 
 Y. Honda, O. Kitao, H. Nakai, T. Vreven, J. A. Montgomery, Jr., 
 J. E. Peralta, F. Ogliaro, M. Bearpark, J. J. Heyd, E. Brothers, 
 K. N. Kudin, V. N. Staroverov, T. Keith, R. Kobayashi, J. Normand, 
 K. Raghavachari, A. Rendell, J. C. Burant, S. S. Iyengar, J. Tomasi, 
 M. Cossi, N. Rega, J. M. Millam, M. Klene, J. E. Knox, J. B. Cross, 
 V. Bakken, C. Adamo, J. Jaramillo, R. Gomperts, R. E. Stratmann, 
 O. Yazyev, A. J. Austin, R. Cammi, C. Pomelli, J. W. Ochterski, 
 R. L. Martin, K. Morokuma, V. G. Zakrzewski, G. A. Voth, 
 P. Salvador, J. J. Dannenberg, S. Dapprich, A. D. Daniels, 
 O. Farkas, J. B. Foresman, J. V. Ortiz, J. Cioslowski, 
 and D. J. Fox, Gaussian, Inc., Wallingford CT, 2013.
 
 ******************************************
 Gaussian 09:  ES64L-G09RevD.01 24-Apr-2013
                28-Aug-2020 
 ******************************************
 %nprocshared=4
 Will use up to    4 processors via shared memory.
 ----------------------------------------------------------------------
 # freq b3lyp/6-31+g(d,p) scrf=(cpcm,solvent=toluene) geom=connectivity
  empiricaldispersion=gd3
 ----------------------------------------------------------------------
 1/10=4,30=1,38=1,57=2/1,3;
 2/12=2,17=6,18=5,40=1/2;
 3/5=1,6=6,7=111,11=2,16=1,25=1,30=1,70=2101,71=2,72=13,74=-5,124=31,140=1/1,2,3;
 4//1;
 5/5=2,38=5,53=13,98=1/2;
 8/6=4,10=90,11=11/1;
 11/6=1,8=1,9=11,15=111,16=1/1,2,10;
 10/6=1/2;
 6/7=2,8=2,9=2,10=2,18=1,28=1/1;
 7/8=1,10=1,25=1/1,2,3,16;
 1/10=4,30=1/3;
 99//99;
 -------------------
 Title Card Required
 -------------------
 Symbolic Z-matrix:
 Charge =  0 Multiplicity = 1
 C                    -2.56347   0.71988  -0.6108 
 C                    -1.56623  -0.26783  -1.09322 
 C                    -0.29059   0.24554  -0.82101 
 C                    -0.47732   1.57433  -0.16628 
 H                    -1.82009  -0.95447  -1.88709 
 H                     0.6019    0.05387  -1.40003 
 C                    -2.46039   2.90206   0.65209 
 H                    -1.73375   3.36005   1.32394 
 H                    -2.75776   3.63078  -0.10866 
 H                    -3.34473   2.59      1.20985 
 N                    -1.84666   1.73499   0.04107 
 O                     0.37792   2.3887    0.16295 
 O                    -3.78254   0.70603  -0.72046 
 C                    -0.89047  -2.64926   0.32009 
 H                    -0.96033  -3.6229   -0.16213 
 C                     0.38898  -2.12443   0.54264 
 H                     1.2455   -2.70082   0.20293 
 C                    -2.06202  -1.91213   0.4718 
 H                    -2.0668   -1.09289   1.1869 
 C                    -3.41435  -2.45662   0.11628 
 H                    -4.06261  -1.66426  -0.27034 
 H                    -3.34482  -3.25619  -0.62749 
 H                    -3.90197  -2.86324   1.01245 
 C                     0.60285  -0.80246   0.93031 
 H                    -0.12721  -0.31774   1.57371 
 C                     1.97921  -0.21319   1.05096 
 H                     2.44313  -0.51333   2.00027 
 H                     1.9121    0.87629   1.01906 
 C                     3.95832  -0.12739  -0.38833 
 C                     4.39108   1.11276   0.35807 
 H                     4.42116   0.93939   1.43788 
 H                     5.38088   1.39825   0.00478 
 H                     3.68957   1.93291   0.1716 
 O                     2.78228  -0.71173  -0.04216 
 O                     4.5947   -0.62653  -1.29416 
 

 GradGradGradGradGradGradGradGradGradGradGradGradGradGradGradGradGradGrad
 Berny optimization.
 Initialization pass.
 Trust Radius=3.00D-01 FncErr=1.00D-07 GrdErr=1.00D-07
 Number of steps in this run=      2 maximum allowed number of steps=      2.
 GradGradGradGradGradGradGradGradGradGradGradGradGradGradGradGradGradGrad

                          Input orientation:                          
 ---------------------------------------------------------------------
 Center     Atomic      Atomic             Coordinates (Angstroms)
 Number     Number       Type             X           Y           Z
 ---------------------------------------------------------------------
      1          6           0       -2.563470    0.719879   -0.610803
      2          6           0       -1.566234   -0.267827   -1.093216
      3          6           0       -0.290590    0.245540   -0.821006
      4          6           0       -0.477318    1.574334   -0.166277
      5          1           0       -1.820092   -0.954471   -1.887086
      6          1           0        0.601901    0.053869   -1.400030
      7          6           0       -2.460387    2.902056    0.652089
      8          1           0       -1.733754    3.360045    1.323944
      9          1           0       -2.757759    3.630781   -0.108664
     10          1           0       -3.344733    2.589998    1.209849
     11          7           0       -1.846662    1.734989    0.041070
     12          8           0        0.377920    2.388699    0.162947
     13          8           0       -3.782544    0.706032   -0.720460
     14          6           0       -0.890465   -2.649259    0.320085
     15          1           0       -0.960330   -3.622897   -0.162125
     16          6           0        0.388975   -2.124428    0.542638
     17          1           0        1.245499   -2.700822    0.202925
     18          6           0       -2.062019   -1.912128    0.471795
     19          1           0       -2.066804   -1.092889    1.186903
     20          6           0       -3.414345   -2.456622    0.116284
     21          1           0       -4.062607   -1.664258   -0.270342
     22          1           0       -3.344819   -3.256191   -0.627490
     23          1           0       -3.901973   -2.863237    1.012449
     24          6           0        0.602849   -0.802462    0.930307
     25          1           0       -0.127214   -0.317740    1.573711
     26          6           0        1.979206   -0.213186    1.050959
     27          1           0        2.443133   -0.513327    2.000269
     28          1           0        1.912099    0.876288    1.019056
     29          6           0        3.958323   -0.127389   -0.388332
     30          6           0        4.391081    1.112758    0.358066
     31          1           0        4.421160    0.939385    1.437881
     32          1           0        5.380884    1.398253    0.004779
     33          1           0        3.689569    1.932906    0.171599
     34          8           0        2.782278   -0.711734   -0.042157
     35          8           0        4.594700   -0.626525   -1.294160
 ---------------------------------------------------------------------
                    Distance matrix (angstroms):
                    1          2          3          4          5
     1  C    0.000000
     2  C    1.484172   0.000000
     3  C    2.331344   1.401753   0.000000
     4  C    2.297766   2.332062   1.493061   0.000000
     5  H    2.232702   1.079886   2.217190   3.340521   0.000000
     6  H    3.329568   2.213240   1.080993   2.235771   2.668337
     7  C    2.523374   3.727433   3.732975   2.522921   4.661565
     8  H    3.376707   4.362589   4.047675   2.643512   5.378961
     9  H    2.960277   4.193831   4.249025   3.071271   5.006650
    10  H    2.724425   4.078521   4.353004   3.338767   4.947605
    11  N    1.403282   2.318732   2.320128   1.394240   3.309333
    12  O    3.469211   3.523466   2.451163   1.225973   4.495629
    13  O    1.224074   2.449363   3.523621   3.462021   2.823031
    14  C    3.875124   2.850492   3.168880   4.271531   2.933959
    15  H    4.650922   3.534196   3.980889   5.219629   3.291683
    16  C    4.258807   3.153701   2.817460   3.864436   3.486020
    17  H    5.183782   3.937676   3.476932   4.623999   4.100699
    18  C    2.889798   2.323529   3.076496   3.882503   2.557334
    19  H    2.600875   2.475932   2.996336   3.386981   3.086978
    20  C    3.367908   3.109538   4.235332   4.995455   2.968433
    21  H    2.836800   2.976410   4.263645   4.832557   2.854213
    22  H    4.052150   3.508644   4.650579   5.636422   3.034681
    23  H    4.155148   4.077457   5.105697   5.727975   4.047829
    24  C    3.836420   3.014200   2.227922   2.831681   3.719066
    25  H    3.432797   3.030803   2.465491   2.594239   3.904917
    26  C    4.926253   4.143744   2.977693   3.272828   4.859658
    27  H    5.779668   5.070004   4.001089   4.193004   5.786296
    28  H    4.765671   4.227232   2.938624   2.757099   5.072139
    29  C    6.580360   5.571114   4.287137   4.756057   6.026642
    30  C    7.032698   6.285049   4.905132   4.918262   6.920463
    31  H    7.282194   6.611558   5.271108   5.193416   7.320883
    32  H    7.996993   7.227992   5.846049   5.863343   7.808234
    33  H    6.417483   5.836647   4.435553   4.195912   6.552213
    34  O    5.563263   4.495702   3.311419   3.983275   4.964322
    35  O    7.315680   6.174638   4.985021   5.642807   6.450478
                    6          7          8          9         10
     6  H    0.000000
     7  C    4.658430   0.000000
     8  H    4.879151   1.090476   0.000000
     9  H    5.074371   1.094630   1.781642   0.000000
    10  H    5.368365   1.091121   1.789202   1.779394   0.000000
    11  N    3.301272   1.453289   2.073480   2.108683   2.083579
    12  O    2.818598   2.925540   2.598191   3.383640   3.872295
    13  O    4.484472   2.907664   3.926947   3.158898   2.732599
    14  C    3.534523   5.778579   6.150659   6.565784   5.853625
    15  H    4.182294   6.744489   7.181091   7.473249   6.794686
    16  C    2.926478   5.778961   5.932610   6.591552   6.050749
    17  H    3.251462   6.732576   6.845929   7.497490   7.076504
    18  C    3.803333   4.834002   5.350675   5.616478   4.739116
    19  H    3.889635   4.049755   4.467474   4.946612   3.898370
    20  C    4.973128   5.469237   6.173852   6.126841   5.164214
    21  H    5.097626   4.926379   5.762719   5.455841   4.561250
    22  H    5.208638   6.351657   7.083658   6.931393   6.128111
    23  H    5.883404   5.953707   6.597533   6.688676   5.485185
    24  C    2.482695   4.815005   4.789690   5.659222   5.212517
    25  H    3.084289   4.081687   4.021126   5.033982   4.351984
    26  C    2.824117   5.438181   5.160288   6.209641   6.018921
    27  H    3.908181   6.125924   5.736446   6.976425   6.614740
    28  H    2.871405   4.832912   4.422019   5.537739   5.532403
    29  C    3.510264   7.173552   6.891576   7.701157   7.954433
    30  C    4.309296   7.087359   6.595212   7.593694   7.921527
    31  H    4.839898   7.198975   6.614797   7.821272   7.942645
    32  H    5.159412   8.010366   7.497126   8.440057   8.888692
    33  H    3.941382   6.244364   5.725125   6.673033   7.140808
    34  O    2.680301   6.405232   6.232188   7.039451   7.071720
    35  O    4.051739   8.124840   7.924427   8.578386   8.924723
                   11         12         13         14         15
    11  N    0.000000
    12  O    2.321843   0.000000
    13  O    2.320845   4.573974   0.000000
    14  C    4.495975   5.197549   4.550256   0.000000
    15  H    5.434502   6.167323   5.197716   1.088751   0.000000
    16  C    4.488290   4.529084   5.196969   1.400694   2.136053
    17  H    5.409628   5.163092   6.143331   2.139796   2.418505
    18  C    3.678772   4.954372   3.352080   1.392450   2.131268
    19  H    3.059132   4.375685   3.133355   2.134815   3.073288
    20  C    4.475812   6.153096   3.292126   2.539412   2.731281
    21  H    4.069677   6.027643   2.428851   3.373621   3.670436
    22  H    5.253887   6.807963   3.987412   2.700022   2.456995
    23  H    5.129480   6.828028   3.969498   3.097472   3.257295
    24  C    3.637239   3.289824   4.922627   2.452145   3.404672
    25  H    3.085318   3.093578   4.435399   2.755016   3.825085
    26  C    4.410502   3.181586   6.097594   3.834533   4.662464
    27  H    5.224531   4.007819   6.902772   4.300942   5.092046
    28  H    3.977701   2.318192   5.956833   4.557676   5.467056
    29  C    6.111521   4.410657   7.792684   5.511119   6.038451
    30  C    6.276711   4.215633   8.254501   6.484516   7.164819
    31  H    6.470677   4.480375   8.486086   6.507011   7.234284
    32  H    7.235477   5.102514   9.218110   7.470715   8.090167
    33  H    5.541305   3.342879   7.624530   6.480355   7.252577
    34  O    5.236455   3.928828   6.750337   4.168245   4.743035
    35  O    6.989330   5.384791   8.501944   6.065004   6.412340
                   16         17         18         19         20
    16  C    0.000000
    17  H    1.086862   0.000000
    18  C    2.461191   3.410866   0.000000
    19  H    2.740438   3.811169   1.087453   0.000000
    20  C    3.841533   4.667043   1.500549   2.195873   0.000000
    21  H    4.548546   5.429036   2.148153   2.536386   1.094333
    22  H    4.073243   4.697770   2.158821   3.099229   1.094232
    23  H    4.379360   5.213269   2.140641   2.555858   1.098284
    24  C    1.394139   2.132101   2.922860   2.697635   4.420037
    25  H    2.143288   3.072861   2.738569   2.124261   4.183795
    26  C    2.537729   2.728703   4.421915   4.142771   5.915827
    27  H    2.989966   3.074070   4.958757   4.619198   6.452584
    28  H    3.398702   3.729094   4.885527   4.442691   6.347779
    29  C    4.194653   3.785704   6.337952   6.302040   7.748303
    30  C    5.150756   4.945922   7.127789   6.874309   8.586245
    31  H    5.142657   4.986085   7.148151   6.803441   8.641448
    32  H    6.133329   5.826070   8.159260   7.941742   9.603570
    33  H    5.243429   5.238883   6.924967   6.581953   8.350845
    34  O    2.839998   2.525515   5.017201   5.016918   6.439555
    35  O    4.827594   4.214394   7.005946   7.123820   8.335671
                   21         22         23         24         25
    21  H    0.000000
    22  H    1.782421   0.000000
    23  H    1.763209   1.776016   0.000000
    24  C    4.893948   4.902204   4.954489   0.000000
    25  H    4.549831   4.881881   4.587306   1.087160   0.000000
    26  C    6.352555   6.357854   6.450777   1.502052   2.172834
    27  H    6.986055   6.923064   6.837999   2.148270   2.612832
    28  H    6.619217   6.886486   6.912852   2.130778   2.427374
    29  C    8.167693   7.948741   8.439864   3.667934   4.536238
    30  C    8.920289   8.938858   9.220168   4.283250   4.892761
    31  H    9.037217   9.065266   9.160539   4.227430   4.720860
    32  H    9.931475   9.909667  10.263875   5.341289   5.978739
    33  H    8.557519   8.777692   9.018954   4.193533   4.647489
    34  O    6.914609   6.660195   7.100730   2.388269   3.351329
    35  O    8.779183   8.390206   9.083875   4.573192   5.533218
                   26         27         28         29         30
    26  C    0.000000
    27  H    1.098409   0.000000
    28  H    1.092005   1.782079   0.000000
    29  C    2.448637   2.854849   2.678645   0.000000
    30  C    2.838198   3.022496   2.576466   1.510746   0.000000
    31  H    2.727869   2.517785   2.544559   2.165012   1.094058
    32  H    3.906743   4.033175   3.651530   2.122687   1.089050
    33  H    2.881723   3.298741   2.234731   2.151875   1.095231
    34  O    1.445122   2.079877   2.098856   1.358079   2.465197
    35  O    3.537123   3.936409   3.847826   1.214346   2.407575
                   31         32         33         34         35
    31  H    0.000000
    32  H    1.784772   0.000000
    33  H    1.767987   1.781637   0.000000
    34  O    2.757289   3.347686   2.804102   0.000000
    35  O    3.153766   2.530821   3.085190   2.204460   0.000000
 Stoichiometry    C13H17NO4
 Framework group  C1[X(C13H17NO4)]
 Deg. of freedom    99
 Full point group                 C1      NOp   1
 Largest Abelian subgroup         C1      NOp   1
 Largest concise Abelian subgroup C1      NOp   1
                         Standard orientation:                         
 ---------------------------------------------------------------------
 Center     Atomic      Atomic             Coordinates (Angstroms)
 Number     Number       Type             X           Y           Z
 ---------------------------------------------------------------------
      1          6           0        2.563470    0.719879    0.610803
      2          6           0        1.566234   -0.267827    1.093216
      3          6           0        0.290590    0.245540    0.821006
      4          6           0        0.477318    1.574334    0.166277
      5          1           0        1.820092   -0.954471    1.887086
      6          1           0       -0.601901    0.053869    1.400030
      7          6           0        2.460387    2.902056   -0.652089
      8          1           0        1.733754    3.360045   -1.323944
      9          1           0        2.757759    3.630781    0.108664
     10          1           0        3.344733    2.589998   -1.209849
     11          7           0        1.846662    1.734989   -0.041070
     12          8           0       -0.377920    2.388699   -0.162947
     13          8           0        3.782544    0.706033    0.720460
     14          6           0        0.890465   -2.649259   -0.320085
     15          1           0        0.960330   -3.622897    0.162125
     16          6           0       -0.388975   -2.124428   -0.542638
     17          1           0       -1.245499   -2.700822   -0.202925
     18          6           0        2.062019   -1.912128   -0.471795
     19          1           0        2.066804   -1.092889   -1.186903
     20          6           0        3.414345   -2.456622   -0.116284
     21          1           0        4.062607   -1.664257    0.270342
     22          1           0        3.344819   -3.256191    0.627490
     23          1           0        3.901973   -2.863236   -1.012449
     24          6           0       -0.602849   -0.802462   -0.930307
     25          1           0        0.127214   -0.317740   -1.573711
     26          6           0       -1.979206   -0.213186   -1.050959
     27          1           0       -2.443133   -0.513327   -2.000269
     28          1           0       -1.912099    0.876288   -1.019056
     29          6           0       -3.958323   -0.127389    0.388332
     30          6           0       -4.391081    1.112758   -0.358066
     31          1           0       -4.421160    0.939385   -1.437881
     32          1           0       -5.380884    1.398253   -0.004779
     33          1           0       -3.689569    1.932906   -0.171599
     34          8           0       -2.782278   -0.711734    0.042157
     35          8           0       -4.594700   -0.626525    1.294160
 ---------------------------------------------------------------------
 Rotational constants (GHZ):      0.6486795      0.2701956      0.2103819
 Standard basis: 6-31+G(d,p) (6D, 7F)
 There are   427 symmetry adapted cartesian basis functions of A   symmetry.
 There are   427 symmetry adapted basis functions of A   symmetry.
   427 basis functions,   695 primitive gaussians,   427 cartesian basis functions
    67 alpha electrons       67 beta electrons
       nuclear repulsion energy      1358.6445101922 Hartrees.
 NAtoms=   35 NActive=   35 NUniq=   35 SFac= 1.00D+00 NAtFMM=   60 NAOKFM=F Big=F
 Integral buffers will be    131072 words long.
 Raffenetti 2 integral format.
 Two-electron integral symmetry is turned on.
 Nuclear repulsion after empirical dispersion term =     1358.6037654446 Hartrees.
 Force inversion solution in PCM.
 ------------------------------------------------------------------------------
 Polarizable Continuum Model (PCM)
 =================================
 Model                : C-PCM.
 Atomic radii         : UFF (Universal Force Field).
 Polarization charges : Total charges.
 Charge compensation  : None.
 Solution method      : Matrix inversion.
 Cavity type          : Scaled VdW (van der Waals Surface) (Alpha=1.100).
 Cavity algorithm     : GePol (No added spheres)
                        Default sphere list used, NSphG=   35.
                        Lebedev-Laikov grids with approx.  5.0 points / Ang**2.
                        Smoothing algorithm: Karplus/York (Gamma=1.0000).
                        Polarization charges: spherical gaussians, with
                                              point-specific exponents (IZeta= 3).
                        Self-potential: point-specific (ISelfS= 7).
                        Self-field    : sphere-specific E.n sum rule (ISelfD= 2).
 1st derivatives      : Analytical E(r).r(x)/FMM algorithm (CHGder, D1EAlg=3).
                        Cavity 1st derivative terms included.
 2nd derivatives      : Analytical E(r).r(xy)/FMM algorithm (CHGder, D2EAlg=3).
                        Cavity 2nd derivative terms included.
 Solvent              : Toluene, Eps=   2.374100 Eps(inf)=   2.238315
 ------------------------------------------------------------------------------
 One-electron integrals computed using PRISM.
 NBasis=   427 RedAO= T EigKep=  2.61D-06  NBF=   427
 NBsUse=   427 1.00D-06 EigRej= -1.00D+00 NBFU=   427
 ExpMin= 4.38D-02 ExpMax= 5.48D+03 ExpMxC= 8.25D+02 IAcc=2 IRadAn=         4 AccDes= 0.00D+00
 Harris functional with IExCor=  402 and IRadAn=       4 diagonalized for initial guess.
 HarFok:  IExCor=  402 AccDes= 0.00D+00 IRadAn=         4 IDoV= 1 UseB2=F ITyADJ=14
 ICtDFT=  3500011 ScaDFX=  1.000000  1.000000  1.000000  1.000000
 FoFCou: FMM=F IPFlag=           0 FMFlag=      100000 FMFlg1=           0
         NFxFlg=           0 DoJE=T BraDBF=F KetDBF=T FulRan=T
         wScrn=  0.000000 ICntrl=     500 IOpCl=  0 I1Cent=   200000004 NGrid=           0
         NMat0=    1 NMatS0=      1 NMatT0=    0 NMatD0=    1 NMtDS0=    0 NMtDT0=    0
 Petite list used in FoFCou.
 Requested convergence on RMS density matrix=1.00D-08 within 128 cycles.
 Requested convergence on MAX density matrix=1.00D-06.
 Requested convergence on             energy=1.00D-06.
 No special actions if energy rises.
 Inv3:  Mode=1 IEnd=    19020972.
 Iteration    1 A*A^-1 deviation from unit magnitude is 6.55D-15 for   2493.
 Iteration    1 A*A^-1 deviation from orthogonality  is 1.65D-15 for   1725    982.
 Iteration    1 A^-1*A deviation from unit magnitude is 6.55D-15 for   2493.
 Iteration    1 A^-1*A deviation from orthogonality  is 1.74D-15 for   2503   2499.
 Error on total polarization charges =  0.01059
 SCF Done:  E(RB3LYP) =  -861.322118275     A.U. after   15 cycles
            NFock= 15  Conv=0.52D-08     -V/T= 2.0095
 DoSCS=F DFT=T ScalE2(SS,OS)=  1.000000  1.000000
 Range of M.O.s used for correlation:     1   427
 NBasis=   427 NAE=    67 NBE=    67 NFC=     0 NFV=     0
 NROrb=    427 NOA=    67 NOB=    67 NVA=   360 NVB=   360

 **** Warning!!: The largest alpha MO coefficient is  0.14295497D+03

 PrsmSu:  requested number of processors reduced to:   2 ShMem   1 Linda.
 Symmetrizing basis deriv contribution to polar:
 IMax=3 JMax=2 DiffMx= 0.00D+00
 G2DrvN: will do    12 centers at a time, making    3 passes.
 Calling FoFCou, ICntrl=  3107 FMM=F I1Cent=   0 AccDes= 0.00D+00.
 Calling FoFCou, ICntrl=  3107 FMM=F I1Cent=   0 AccDes= 0.00D+00.
 Calling FoFCou, ICntrl=  3107 FMM=F I1Cent=   0 AccDes= 0.00D+00.
 NEqPCM:  Using equilibrium solvation (IEInf=0, Eps=   2.3741, EpsInf=   2.2383)
 G2PCM: DoFxE=T DoFxN=T DoGrad=T DoDP/DQ/DG/TGxP=FFFF NFrqRd=   0 IEInf=0 SqF1=F DoCFld=F IF1Alg=4.
 End of G2Drv F.D. properties file   721 does not exist.
 End of G2Drv F.D. properties file   722 does not exist.
 End of G2Drv F.D. properties file   788 does not exist.
          IDoAtm=11111111111111111111111111111111111
 NEqPCM:  Using equilibrium solvation (IEInf=0, Eps=   2.3741, EpsInf=   2.2383)
          Differentiating once with respect to electric field.
                with respect to dipole field.
          Differentiating once with respect to nuclear coordinates.
          There are   108 degrees of freedom in the 1st order CPHF.  IDoFFX=6 NUNeed=     3.
    108 vectors produced by pass  0 Test12= 2.41D-14 1.00D-09 XBig12= 2.73D+02 9.36D+00.
 AX will form    36 AO Fock derivatives at one time.
    108 vectors produced by pass  1 Test12= 2.41D-14 1.00D-09 XBig12= 8.07D+01 1.42D+00.
    105 vectors produced by pass  2 Test12= 2.41D-14 1.00D-09 XBig12= 5.71D-01 1.00D-01.
    105 vectors produced by pass  3 Test12= 2.41D-14 1.00D-09 XBig12= 1.86D-03 4.89D-03.
    105 vectors produced by pass  4 Test12= 2.41D-14 1.00D-09 XBig12= 4.85D-06 2.37D-04.
    101 vectors produced by pass  5 Test12= 2.41D-14 1.00D-09 XBig12= 6.50D-09 5.45D-06.
 PrRfSu:  requested number of processors reduced to:   3 ShMem   1 Linda.
     42 vectors produced by pass  6 Test12= 2.41D-14 1.00D-09 XBig12= 9.75D-12 3.05D-07.
      9 vectors produced by pass  7 Test12= 2.41D-14 1.00D-09 XBig12= 3.80D-13 4.65D-08.
      3 vectors produced by pass  8 Test12= 2.41D-14 1.00D-09 XBig12= 2.54D-15 2.99D-09.
      3 vectors produced by pass  9 Test12= 2.41D-14 1.00D-09 XBig12= 1.71D-14 1.01D-08.
      3 vectors produced by pass 10 Test12= 2.41D-14 1.00D-09 XBig12= 2.26D-14 1.26D-08.
      3 vectors produced by pass 11 Test12= 2.41D-14 1.00D-09 XBig12= 2.07D-14 1.47D-08.
      3 vectors produced by pass 12 Test12= 2.41D-14 1.00D-09 XBig12= 7.95D-15 6.71D-09.
      3 vectors produced by pass 13 Test12= 2.41D-14 1.00D-09 XBig12= 2.85D-14 1.75D-08.
      3 vectors produced by pass 14 Test12= 2.41D-14 1.00D-09 XBig12= 1.75D-14 9.97D-09.
      3 vectors produced by pass 15 Test12= 2.41D-14 1.00D-09 XBig12= 2.00D-14 1.13D-08.
      3 vectors produced by pass 16 Test12= 2.41D-14 1.00D-09 XBig12= 2.44D-14 1.39D-08.
      3 vectors produced by pass 17 Test12= 2.41D-14 1.00D-09 XBig12= 1.65D-14 1.01D-08.
      3 vectors produced by pass 18 Test12= 2.41D-14 1.00D-09 XBig12= 7.70D-15 7.39D-09.
      3 vectors produced by pass 19 Test12= 2.41D-14 1.00D-09 XBig12= 1.42D-14 9.24D-09.
      3 vectors produced by pass 20 Test12= 2.41D-14 1.00D-09 XBig12= 1.08D-14 8.14D-09.
      3 vectors produced by pass 21 Test12= 2.41D-14 1.00D-09 XBig12= 1.59D-14 1.05D-08.
      3 vectors produced by pass 22 Test12= 2.41D-14 1.00D-09 XBig12= 7.35D-15 6.35D-09.
      3 vectors produced by pass 23 Test12= 2.41D-14 1.00D-09 XBig12= 8.83D-15 7.27D-09.
      3 vectors produced by pass 24 Test12= 2.41D-14 1.00D-09 XBig12= 7.89D-15 7.15D-09.
      3 vectors produced by pass 25 Test12= 2.41D-14 1.00D-09 XBig12= 1.00D-14 7.47D-09.
      3 vectors produced by pass 26 Test12= 2.41D-14 1.00D-09 XBig12= 8.98D-15 8.28D-09.
      3 vectors produced by pass 27 Test12= 2.41D-14 1.00D-09 XBig12= 8.86D-15 8.27D-09.
      3 vectors produced by pass 28 Test12= 2.41D-14 1.00D-09 XBig12= 9.60D-15 7.27D-09.
      3 vectors produced by pass 29 Test12= 2.41D-14 1.00D-09 XBig12= 1.24D-14 9.02D-09.
      3 vectors produced by pass 30 Test12= 2.41D-14 1.00D-09 XBig12= 6.48D-15 5.32D-09.
      3 vectors produced by pass 31 Test12= 2.41D-14 1.00D-09 XBig12= 1.10D-14 8.67D-09.
      3 vectors produced by pass 32 Test12= 2.41D-14 1.00D-09 XBig12= 6.22D-15 6.82D-09.
      3 vectors produced by pass 33 Test12= 2.41D-14 1.00D-09 XBig12= 5.33D-15 6.02D-09.
      3 vectors produced by pass 34 Test12= 2.41D-14 1.00D-09 XBig12= 1.21D-14 8.13D-09.
      3 vectors produced by pass 35 Test12= 2.41D-14 1.00D-09 XBig12= 3.42D-15 4.04D-09.
      3 vectors produced by pass 36 Test12= 2.41D-14 1.00D-09 XBig12= 1.69D-14 1.00D-08.
      3 vectors produced by pass 37 Test12= 2.41D-14 1.00D-09 XBig12= 3.52D-15 4.48D-09.
      3 vectors produced by pass 38 Test12= 2.41D-14 1.00D-09 XBig12= 5.94D-15 5.19D-09.
      3 vectors produced by pass 39 Test12= 2.41D-14 1.00D-09 XBig12= 1.29D-14 6.85D-09.
      3 vectors produced by pass 40 Test12= 2.41D-14 1.00D-09 XBig12= 5.09D-15 4.45D-09.
      3 vectors produced by pass 41 Test12= 2.41D-14 1.00D-09 XBig12= 7.86D-15 6.34D-09.
      3 vectors produced by pass 42 Test12= 2.41D-14 1.00D-09 XBig12= 2.77D-15 3.49D-09.
      3 vectors produced by pass 43 Test12= 2.41D-14 1.00D-09 XBig12= 6.80D-15 6.60D-09.
      3 vectors produced by pass 44 Test12= 2.41D-14 1.00D-09 XBig12= 6.15D-15 5.03D-09.
      3 vectors produced by pass 45 Test12= 2.41D-14 1.00D-09 XBig12= 8.08D-15 6.24D-09.
      3 vectors produced by pass 46 Test12= 2.41D-14 1.00D-09 XBig12= 3.86D-15 4.32D-09.
      3 vectors produced by pass 47 Test12= 2.41D-14 1.00D-09 XBig12= 7.87D-15 5.88D-09.
      3 vectors produced by pass 48 Test12= 2.41D-14 1.00D-09 XBig12= 6.36D-15 6.09D-09.
      3 vectors produced by pass 49 Test12= 2.41D-14 1.00D-09 XBig12= 6.41D-15 4.76D-09.
      3 vectors produced by pass 50 Test12= 2.41D-14 1.00D-09 XBig12= 1.68D-15 2.78D-09.
      3 vectors produced by pass 51 Test12= 2.41D-14 1.00D-09 XBig12= 5.27D-15 5.36D-09.
      3 vectors produced by pass 52 Test12= 2.41D-14 1.00D-09 XBig12= 2.75D-15 4.55D-09.
      3 vectors produced by pass 53 Test12= 2.41D-14 1.00D-09 XBig12= 9.91D-15 6.77D-09.
      3 vectors produced by pass 54 Test12= 2.41D-14 1.00D-09 XBig12= 3.32D-15 3.60D-09.
      3 vectors produced by pass 55 Test12= 2.41D-14 1.00D-09 XBig12= 4.16D-15 4.10D-09.
      3 vectors produced by pass 56 Test12= 2.41D-14 1.00D-09 XBig12= 6.30D-15 5.31D-09.
      3 vectors produced by pass 57 Test12= 2.41D-14 1.00D-09 XBig12= 6.33D-15 4.81D-09.
      3 vectors produced by pass 58 Test12= 2.41D-14 1.00D-09 XBig12= 2.67D-15 4.09D-09.
      3 vectors produced by pass 59 Test12= 2.41D-14 1.00D-09 XBig12= 6.01D-15 5.11D-09.
      3 vectors produced by pass 60 Test12= 2.41D-14 1.00D-09 XBig12= 5.56D-15 4.95D-09.
      3 vectors produced by pass 61 Test12= 2.41D-14 1.00D-09 XBig12= 7.50D-15 5.72D-09.
      3 vectors produced by pass 62 Test12= 2.41D-14 1.00D-09 XBig12= 9.50D-15 6.84D-09.
      3 vectors produced by pass 63 Test12= 2.41D-14 1.00D-09 XBig12= 5.05D-15 4.21D-09.
      3 vectors produced by pass 64 Test12= 2.41D-14 1.00D-09 XBig12= 4.63D-15 5.09D-09.
      3 vectors produced by pass 65 Test12= 2.41D-14 1.00D-09 XBig12= 3.86D-15 4.11D-09.
      3 vectors produced by pass 66 Test12= 2.41D-14 1.00D-09 XBig12= 1.83D-15 2.56D-09.
      3 vectors produced by pass 67 Test12= 2.41D-14 1.00D-09 XBig12= 5.85D-15 5.98D-09.
      3 vectors produced by pass 68 Test12= 2.41D-14 1.00D-09 XBig12= 5.16D-15 5.58D-09.
      3 vectors produced by pass 69 Test12= 2.41D-14 1.00D-09 XBig12= 2.75D-15 3.60D-09.
      3 vectors produced by pass 70 Test12= 2.41D-14 1.00D-09 XBig12= 4.30D-15 4.72D-09.
      3 vectors produced by pass 71 Test12= 2.41D-14 1.00D-09 XBig12= 2.88D-15 3.51D-09.
      3 vectors produced by pass 72 Test12= 2.41D-14 1.00D-09 XBig12= 7.37D-15 5.84D-09.
      3 vectors produced by pass 73 Test12= 2.41D-14 1.00D-09 XBig12= 1.18D-15 2.06D-09.
      3 vectors produced by pass 74 Test12= 2.41D-14 1.00D-09 XBig12= 4.44D-15 3.77D-09.
      3 vectors produced by pass 75 Test12= 2.41D-14 1.00D-09 XBig12= 1.53D-15 2.52D-09.
      3 vectors produced by pass 76 Test12= 2.41D-14 1.00D-09 XBig12= 4.89D-15 3.85D-09.
      3 vectors produced by pass 77 Test12= 2.41D-14 1.00D-09 XBig12= 3.81D-15 4.56D-09.
      3 vectors produced by pass 78 Test12= 2.41D-14 1.00D-09 XBig12= 2.06D-15 2.60D-09.
      3 vectors produced by pass 79 Test12= 2.41D-14 1.00D-09 XBig12= 4.23D-15 4.04D-09.
      3 vectors produced by pass 80 Test12= 2.41D-14 1.00D-09 XBig12= 3.59D-15 3.55D-09.
      3 vectors produced by pass 81 Test12= 2.41D-14 1.00D-09 XBig12= 5.18D-15 4.64D-09.
      3 vectors produced by pass 82 Test12= 2.41D-14 1.00D-09 XBig12= 3.04D-15 3.20D-09.
      3 vectors produced by pass 83 Test12= 2.41D-14 1.00D-09 XBig12= 2.48D-15 2.96D-09.
      3 vectors produced by pass 84 Test12= 2.41D-14 1.00D-09 XBig12= 3.23D-15 2.98D-09.
      3 vectors produced by pass 85 Test12= 2.41D-14 1.00D-09 XBig12= 2.94D-15 3.56D-09.
      3 vectors produced by pass 86 Test12= 2.41D-14 1.00D-09 XBig12= 3.40D-15 3.32D-09.
      3 vectors produced by pass 87 Test12= 2.41D-14 1.00D-09 XBig12= 2.51D-15 3.38D-09.
      3 vectors produced by pass 88 Test12= 2.41D-14 1.00D-09 XBig12= 2.86D-15 3.15D-09.
      3 vectors produced by pass 89 Test12= 2.41D-14 1.00D-09 XBig12= 1.28D-15 2.24D-09.
      3 vectors produced by pass 90 Test12= 2.41D-14 1.00D-09 XBig12= 2.44D-15 2.77D-09.
      2 vectors produced by pass 91 Test12= 2.41D-14 1.00D-09 XBig12= 1.04D-15 2.22D-09.
 InvSVY:  IOpt=1 It=  1 EMax= 3.55D-14
 Solved reduced A of dimension   934 with   108 vectors.
 Isotropic polarizability for W=    0.000000      222.79 Bohr**3.
 End of Minotr F.D. properties file   721 does not exist.
 End of Minotr F.D. properties file   722 does not exist.
 End of Minotr F.D. properties file   788 does not exist.

 **********************************************************************

            Population analysis using the SCF density.

 **********************************************************************

 Orbital symmetries:
       Occupied  (A) (A) (A) (A) (A) (A) (A) (A) (A) (A) (A) (A)
                 (A) (A) (A) (A) (A) (A) (A) (A) (A) (A) (A) (A)
                 (A) (A) (A) (A) (A) (A) (A) (A) (A) (A) (A) (A)
                 (A) (A) (A) (A) (A) (A) (A) (A) (A) (A) (A) (A)
                 (A) (A) (A) (A) (A) (A) (A) (A) (A) (A) (A) (A)
                 (A) (A) (A) (A) (A) (A) (A)
       Virtual   (A) (A) (A) (A) (A) (A) (A) (A) (A) (A) (A) (A)
                 (A) (A) (A) (A) (A) (A) (A) (A) (A) (A) (A) (A)
                 (A) (A) (A) (A) (A) (A) (A) (A) (A) (A) (A) (A)
                 (A) (A) (A) (A) (A) (A) (A) (A) (A) (A) (A) (A)
                 (A) (A) (A) (A) (A) (A) (A) (A) (A) (A) (A) (A)
                 (A) (A) (A) (A) (A) (A) (A) (A) (A) (A) (A) (A)
                 (A) (A) (A) (A) (A) (A) (A) (A) (A) (A) (A) (A)
                 (A) (A) (A) (A) (A) (A) (A) (A) (A) (A) (A) (A)
                 (A) (A) (A) (A) (A) (A) (A) (A) (A) (A) (A) (A)
                 (A) (A) (A) (A) (A) (A) (A) (A) (A) (A) (A) (A)
                 (A) (A) (A) (A) (A) (A) (A) (A) (A) (A) (A) (A)
                 (A) (A) (A) (A) (A) (A) (A) (A) (A) (A) (A) (A)
                 (A) (A) (A) (A) (A) (A) (A) (A) (A) (A) (A) (A)
                 (A) (A) (A) (A) (A) (A) (A) (A) (A) (A) (A) (A)
                 (A) (A) (A) (A) (A) (A) (A) (A) (A) (A) (A) (A)
                 (A) (A) (A) (A) (A) (A) (A) (A) (A) (A) (A) (A)
                 (A) (A) (A) (A) (A) (A) (A) (A) (A) (A) (A) (A)
                 (A) (A) (A) (A) (A) (A) (A) (A) (A) (A) (A) (A)
                 (A) (A) (A) (A) (A) (A) (A) (A) (A) (A) (A) (A)
                 (A) (A) (A) (A) (A) (A) (A) (A) (A) (A) (A) (A)
                 (A) (A) (A) (A) (A) (A) (A) (A) (A) (A) (A) (A)
                 (A) (A) (A) (A) (A) (A) (A) (A) (A) (A) (A) (A)
                 (A) (A) (A) (A) (A) (A) (A) (A) (A) (A) (A) (A)
                 (A) (A) (A) (A) (A) (A) (A) (A) (A) (A) (A) (A)
                 (A) (A) (A) (A) (A) (A) (A) (A) (A) (A) (A) (A)
                 (A) (A) (A) (A) (A) (A) (A) (A) (A) (A) (A) (A)
                 (A) (A) (A) (A) (A) (A) (A) (A) (A) (A) (A) (A)
                 (A) (A) (A) (A) (A) (A) (A) (A) (A) (A) (A) (A)
                 (A) (A) (A) (A) (A) (A) (A) (A) (A) (A) (A) (A)
                 (A) (A) (A) (A) (A) (A) (A) (A) (A) (A) (A) (A)
 The electronic state is 1-A.
 Alpha  occ. eigenvalues --  -19.21011 -19.16006 -19.15707 -19.15209 -14.39516
 Alpha  occ. eigenvalues --  -10.33530 -10.31992 -10.31695 -10.26593 -10.23354
 Alpha  occ. eigenvalues --  -10.23227 -10.23148 -10.22533 -10.22109 -10.21167
 Alpha  occ. eigenvalues --  -10.20974 -10.20798 -10.19264  -1.11376  -1.07903
 Alpha  occ. eigenvalues --   -1.05903  -1.03186  -0.96856  -0.85278  -0.82204
 Alpha  occ. eigenvalues --   -0.80037  -0.76033  -0.74419  -0.71595  -0.68891
 Alpha  occ. eigenvalues --   -0.67147  -0.62787  -0.61327  -0.59000  -0.56131
 Alpha  occ. eigenvalues --   -0.54149  -0.51549  -0.51278  -0.50700  -0.49642
 Alpha  occ. eigenvalues --   -0.49446  -0.47372  -0.47094  -0.45903  -0.45165
 Alpha  occ. eigenvalues --   -0.44809  -0.43987  -0.43419  -0.43092  -0.42024
 Alpha  occ. eigenvalues --   -0.41548  -0.41195  -0.40830  -0.40292  -0.39597
 Alpha  occ. eigenvalues --   -0.39328  -0.37682  -0.37077  -0.35929  -0.35560
 Alpha  occ. eigenvalues --   -0.31418  -0.30436  -0.28881  -0.28833  -0.28035
 Alpha  occ. eigenvalues --   -0.25915  -0.24677
 Alpha virt. eigenvalues --   -0.08546  -0.05608  -0.00997  -0.00331   0.00540
 Alpha virt. eigenvalues --    0.00844   0.01390   0.01813   0.02580   0.02753
 Alpha virt. eigenvalues --    0.03232   0.03863   0.04186   0.04862   0.05312
 Alpha virt. eigenvalues --    0.05703   0.06116   0.06270   0.06777   0.06866
 Alpha virt. eigenvalues --    0.07646   0.08110   0.08230   0.08660   0.09118
 Alpha virt. eigenvalues --    0.09362   0.09789   0.10052   0.10339   0.10785
 Alpha virt. eigenvalues --    0.11464   0.11493   0.11848   0.12354   0.13242
 Alpha virt. eigenvalues --    0.13449   0.13855   0.14740   0.15051   0.15353
 Alpha virt. eigenvalues --    0.15668   0.15774   0.16133   0.16388   0.16837
 Alpha virt. eigenvalues --    0.17675   0.18340   0.18681   0.19056   0.19469
 Alpha virt. eigenvalues --    0.19997   0.20435   0.20736   0.21162   0.21439
 Alpha virt. eigenvalues --    0.21717   0.22055   0.22292   0.22506   0.23122
 Alpha virt. eigenvalues --    0.23486   0.23610   0.24195   0.24653   0.24988
 Alpha virt. eigenvalues --    0.25385   0.25806   0.26521   0.26882   0.27320
 Alpha virt. eigenvalues --    0.27603   0.28098   0.28307   0.28812   0.29194
 Alpha virt. eigenvalues --    0.29558   0.29991   0.30143   0.30602   0.30901
 Alpha virt. eigenvalues --    0.31288   0.32161   0.32522   0.33200   0.33743
 Alpha virt. eigenvalues --    0.34356   0.34648   0.34988   0.35254   0.35912
 Alpha virt. eigenvalues --    0.36100   0.36747   0.37046   0.37401   0.37640
 Alpha virt. eigenvalues --    0.38730   0.39028   0.39428   0.40190   0.41028
 Alpha virt. eigenvalues --    0.41522   0.42885   0.43005   0.43916   0.45145
 Alpha virt. eigenvalues --    0.46016   0.47253   0.47966   0.48972   0.49134
 Alpha virt. eigenvalues --    0.49857   0.55965   0.59827   0.62915   0.64896
 Alpha virt. eigenvalues --    0.65190   0.65757   0.66824   0.68348   0.69189
 Alpha virt. eigenvalues --    0.70012   0.70938   0.72183   0.72579   0.73562
 Alpha virt. eigenvalues --    0.74201   0.75073   0.76505   0.77506   0.77992
 Alpha virt. eigenvalues --    0.79392   0.79942   0.81159   0.82368   0.83377
 Alpha virt. eigenvalues --    0.83895   0.84988   0.85447   0.85857   0.86477
 Alpha virt. eigenvalues --    0.89068   0.90065   0.91162   0.91757   0.92746
 Alpha virt. eigenvalues --    0.94539   0.94871   0.95240   0.96279   0.96997
 Alpha virt. eigenvalues --    0.97246   0.97756   0.98071   0.99563   1.00433
 Alpha virt. eigenvalues --    1.00510   1.00796   1.02714   1.03089   1.06735
 Alpha virt. eigenvalues --    1.07857   1.09239   1.09885   1.11064   1.11201
 Alpha virt. eigenvalues --    1.12099   1.12872   1.14356   1.15731   1.16177
 Alpha virt. eigenvalues --    1.18674   1.19407   1.20563   1.24225   1.25531
 Alpha virt. eigenvalues --    1.25843   1.26259   1.26705   1.27493   1.29699
 Alpha virt. eigenvalues --    1.30659   1.31487   1.32818   1.33426   1.34631
 Alpha virt. eigenvalues --    1.35037   1.35288   1.36716   1.37173   1.38199
 Alpha virt. eigenvalues --    1.38930   1.39432   1.39488   1.40419   1.41697
 Alpha virt. eigenvalues --    1.43208   1.43961   1.45821   1.46447   1.47300
 Alpha virt. eigenvalues --    1.49796   1.50988   1.53171   1.54789   1.56881
 Alpha virt. eigenvalues --    1.59877   1.60484   1.62798   1.65062   1.67919
 Alpha virt. eigenvalues --    1.69373   1.70111   1.71410   1.72747   1.74934
 Alpha virt. eigenvalues --    1.75653   1.78831   1.79063   1.80985   1.82669
 Alpha virt. eigenvalues --    1.83612   1.84017   1.85164   1.86095   1.86584
 Alpha virt. eigenvalues --    1.89005   1.89378   1.90287   1.91477   1.92513
 Alpha virt. eigenvalues --    1.93397   1.94308   1.95042   1.95927   1.97613
 Alpha virt. eigenvalues --    1.98075   1.98977   1.99581   2.00152   2.00885
 Alpha virt. eigenvalues --    2.02168   2.03041   2.03972   2.04977   2.05645
 Alpha virt. eigenvalues --    2.07707   2.07971   2.08404   2.09157   2.09604
 Alpha virt. eigenvalues --    2.10225   2.10697   2.11911   2.12747   2.13156
 Alpha virt. eigenvalues --    2.14279   2.15947   2.16629   2.17995   2.20418
 Alpha virt. eigenvalues --    2.21981   2.22997   2.23523   2.25107   2.29150
 Alpha virt. eigenvalues --    2.30168   2.30649   2.32831   2.34422   2.36051
 Alpha virt. eigenvalues --    2.38101   2.39461   2.40266   2.41873   2.44001
 Alpha virt. eigenvalues --    2.44868   2.45918   2.46796   2.48962   2.50317
 Alpha virt. eigenvalues --    2.51340   2.52387   2.54611   2.56658   2.56838
 Alpha virt. eigenvalues --    2.58575   2.59896   2.60743   2.61770   2.63536
 Alpha virt. eigenvalues --    2.64415   2.66036   2.66565   2.68234   2.68476
 Alpha virt. eigenvalues --    2.70746   2.71655   2.71919   2.73545   2.74384
 Alpha virt. eigenvalues --    2.76691   2.78994   2.79728   2.80867   2.81772
 Alpha virt. eigenvalues --    2.82918   2.85118   2.85516   2.87063   2.87427
 Alpha virt. eigenvalues --    2.87821   2.89265   2.91351   2.96342   2.96715
 Alpha virt. eigenvalues --    2.99588   3.04231   3.07017   3.07576   3.12064
 Alpha virt. eigenvalues --    3.16937   3.19830   3.22233   3.26022   3.26774
 Alpha virt. eigenvalues --    3.28482   3.28966   3.30542   3.33279   3.34579
 Alpha virt. eigenvalues --    3.35754   3.42375   3.44319   3.44419   3.45488
 Alpha virt. eigenvalues --    3.46479   3.46970   3.47504   3.51819   3.55230
 Alpha virt. eigenvalues --    3.65909   3.69630   4.27702   4.32025   4.35808
 Alpha virt. eigenvalues --    4.37545   4.39047   4.40971   4.44092   4.49100
 Alpha virt. eigenvalues --    4.50643   4.54075   4.57451   4.58938   4.64897
 Alpha virt. eigenvalues --    4.66527   4.72434   4.73620   4.84919   5.15556
          Condensed to atoms (all electrons):
               1          2          3          4          5          6
     1  C    6.616056  -1.562772   1.030418  -0.647652  -0.061448   0.015371
     2  C   -1.562772  10.697001  -3.560149   0.815858   0.249129   0.041393
     3  C    1.030418  -3.560149  10.256716  -1.287705   0.070703   0.250441
     4  C   -0.647652   0.815858  -1.287705   6.764270   0.018252  -0.047221
     5  H   -0.061448   0.249129   0.070703   0.018252   0.525972  -0.003436
     6  H    0.015371   0.041393   0.250441  -0.047221  -0.003436   0.516988
     7  C   -0.130883  -0.006955  -0.169391  -0.113368   0.000915   0.002538
     8  H    0.007240  -0.008354   0.006508  -0.008245   0.000002  -0.000005
     9  H   -0.004860  -0.003328   0.001537  -0.007703   0.000006   0.000007
    10  H   -0.011835   0.005870  -0.008373   0.007184  -0.000006   0.000001
    11  N    0.240750  -0.458766  -0.457159   0.169323   0.015894   0.020802
    12  O    0.105869  -0.132329  -0.036492   0.425194  -0.000674   0.001804
    13  O    0.454787  -0.073024  -0.098412   0.083774   0.001668  -0.000616
    14  C   -0.220476   0.267185  -0.160352   0.208973  -0.001389   0.001593
    15  H    0.009991   0.011228  -0.009891  -0.003611   0.000255  -0.000004
    16  C   -0.016981  -0.083392   0.344477  -0.533019  -0.018673  -0.003119
    17  H   -0.003466  -0.028636   0.027255   0.016167  -0.000001   0.000247
    18  C   -0.009451  -0.109502   0.017259  -0.074386   0.049351  -0.002921
    19  H   -0.013876   0.016131  -0.001740  -0.012793   0.001592  -0.000103
    20  C   -0.121911   0.409470  -0.295058   0.068630  -0.024237   0.004021
    21  H    0.016180  -0.023886   0.001910  -0.000721  -0.000057  -0.000003
    22  H   -0.006324   0.002241   0.007600  -0.000579   0.000549  -0.000001
    23  H    0.002577   0.013507  -0.007288   0.001166  -0.000018   0.000001
    24  C    0.123401  -0.005603  -0.396708   0.121506  -0.008394   0.060923
    25  H   -0.006498  -0.026130   0.022893  -0.019769  -0.000100   0.001823
    26  C    0.077059  -0.377873   0.541257   0.009879   0.010290  -0.055181
    27  H    0.000572  -0.002177   0.014183  -0.000411   0.000001  -0.000011
    28  H   -0.003382   0.001455  -0.052656   0.052411  -0.000002   0.000129
    29  C    0.013307  -0.094187   0.033616   0.022779   0.000120  -0.000874
    30  C   -0.003961   0.025790  -0.005986  -0.020055  -0.000052  -0.000019
    31  H   -0.000033  -0.000027   0.000706  -0.001000   0.000000  -0.000001
    32  H    0.000013   0.000144   0.000761  -0.000391   0.000000  -0.000001
    33  H   -0.000203   0.002280   0.001049   0.002836   0.000000  -0.000004
    34  O   -0.003781   0.024986   0.033508  -0.022006   0.000056   0.005606
    35  O    0.000221  -0.005789  -0.003443  -0.000833   0.000001   0.000540
               7          8          9         10         11         12
     1  C   -0.130883   0.007240  -0.004860  -0.011835   0.240750   0.105869
     2  C   -0.006955  -0.008354  -0.003328   0.005870  -0.458766  -0.132329
     3  C   -0.169391   0.006508   0.001537  -0.008373  -0.457159  -0.036492
     4  C   -0.113368  -0.008245  -0.007703   0.007184   0.169323   0.425194
     5  H    0.000915   0.000002   0.000006  -0.000006   0.015894  -0.000674
     6  H    0.002538  -0.000005   0.000007   0.000001   0.020802   0.001804
     7  C    5.239195   0.409251   0.425911   0.403912   0.234947  -0.049792
     8  H    0.409251   0.510248  -0.027694  -0.023175  -0.046507   0.004157
     9  H    0.425911  -0.027694   0.527768  -0.029774  -0.052675   0.001123
    10  H    0.403912  -0.023175  -0.029774   0.517121  -0.039352   0.000658
    11  N    0.234947  -0.046507  -0.052675  -0.039352   7.582975  -0.124668
    12  O   -0.049792   0.004157   0.001123   0.000658  -0.124668   8.346527
    13  O   -0.041147   0.000575   0.001435   0.003015  -0.126626  -0.002029
    14  C    0.010758  -0.000577   0.000503  -0.000461   0.035913  -0.001713
    15  H    0.000104   0.000000   0.000000   0.000000   0.000368  -0.000005
    16  C   -0.033845   0.000136   0.000276  -0.000322  -0.007515   0.011276
    17  H    0.000147   0.000000   0.000000   0.000000   0.000280  -0.000040
    18  C   -0.003875   0.001780  -0.001684   0.002519   0.012960   0.005581
    19  H   -0.000589  -0.000008   0.000009  -0.000072   0.008991   0.000162
    20  C   -0.001083  -0.000037   0.000075   0.000018  -0.019245   0.000450
    21  H    0.000090   0.000000   0.000000  -0.000004  -0.001324   0.000005
    22  H   -0.000097   0.000000   0.000000   0.000000  -0.000068   0.000001
    23  H    0.000237   0.000000   0.000000   0.000000   0.000302  -0.000002
    24  C    0.001864   0.002908  -0.001913   0.002322   0.014462   0.182848
    25  H    0.001205  -0.000047   0.000007  -0.000017   0.011273   0.002497
    26  C    0.028481  -0.002963   0.001621  -0.001865   0.007300  -0.216347
    27  H    0.000349   0.000000   0.000000   0.000000   0.000480   0.000089
    28  H    0.000251  -0.000006   0.000000   0.000000  -0.001535  -0.004509
    29  C    0.000084  -0.000027   0.000015  -0.000003   0.001114   0.007719
    30  C    0.000281   0.000010  -0.000006  -0.000001  -0.001368  -0.015225
    31  H   -0.000004   0.000000   0.000000   0.000000   0.000009   0.000202
    32  H   -0.000002   0.000000   0.000000   0.000000  -0.000001   0.000031
    33  H    0.000098   0.000000   0.000000   0.000000   0.000065  -0.000685
    34  O    0.000658  -0.000001   0.000001   0.000000   0.002617   0.002499
    35  O   -0.000008   0.000000   0.000000   0.000000   0.000010  -0.000028
              13         14         15         16         17         18
     1  C    0.454787  -0.220476   0.009991  -0.016981  -0.003466  -0.009451
     2  C   -0.073024   0.267185   0.011228  -0.083392  -0.028636  -0.109502
     3  C   -0.098412  -0.160352  -0.009891   0.344477   0.027255   0.017259
     4  C    0.083774   0.208973  -0.003611  -0.533019   0.016167  -0.074386
     5  H    0.001668  -0.001389   0.000255  -0.018673  -0.000001   0.049351
     6  H   -0.000616   0.001593  -0.000004  -0.003119   0.000247  -0.002921
     7  C   -0.041147   0.010758   0.000104  -0.033845   0.000147  -0.003875
     8  H    0.000575  -0.000577   0.000000   0.000136   0.000000   0.001780
     9  H    0.001435   0.000503   0.000000   0.000276   0.000000  -0.001684
    10  H    0.003015  -0.000461   0.000000  -0.000322   0.000000   0.002519
    11  N   -0.126626   0.035913   0.000368  -0.007515   0.000280   0.012960
    12  O   -0.002029  -0.001713  -0.000005   0.011276  -0.000040   0.005581
    13  O    8.341988  -0.034921  -0.000018   0.022903  -0.000003   0.021076
    14  C   -0.034921   7.102877   0.353600  -1.482481  -0.052732  -1.097502
    15  H   -0.000018   0.353600   0.562441   0.014244  -0.007703  -0.065037
    16  C    0.022903  -1.482481   0.014244   9.160154   0.389947   0.499039
    17  H   -0.000003  -0.052732  -0.007703   0.389947   0.540889   0.005182
    18  C    0.021076  -1.097502  -0.065037   0.499039   0.005182   8.903603
    19  H    0.000341   0.135366   0.004699  -0.070459   0.000003   0.146964
    20  C   -0.014859   0.628388  -0.037002  -0.309833   0.008984  -1.889079
    21  H    0.003812   0.001019   0.000120  -0.010813   0.000003  -0.144810
    22  H    0.000828   0.060639   0.002859  -0.013529  -0.000004  -0.208770
    23  H   -0.000801   0.034672   0.000219  -0.005777   0.000000  -0.176035
    24  C   -0.020052   0.466459   0.012205  -2.264934  -0.007709  -0.009449
    25  H    0.000070  -0.070918   0.000019   0.159712   0.004306   0.008286
    26  C   -0.002309   0.058600   0.014237   0.142010  -0.054216  -0.331087
    27  H    0.000000   0.021035  -0.000001   0.024110   0.000299   0.001189
    28  H    0.000009  -0.005599   0.000002  -0.022264   0.000086  -0.008005
    29  C    0.000027  -0.004801   0.000090  -0.105235  -0.000219  -0.001247
    30  C   -0.000010  -0.009237  -0.000045   0.021855  -0.000775   0.000646
    31  H    0.000000  -0.000307   0.000000  -0.001206   0.000001  -0.000219
    32  H    0.000000   0.000046   0.000000  -0.000054   0.000000  -0.000005
    33  H    0.000000   0.000739   0.000000   0.003086  -0.000001   0.000204
    34  O    0.000007   0.018923   0.000502   0.201412   0.005753  -0.004229
    35  O    0.000000  -0.007431   0.000004  -0.001418   0.000399   0.000334
              19         20         21         22         23         24
     1  C   -0.013876  -0.121911   0.016180  -0.006324   0.002577   0.123401
     2  C    0.016131   0.409470  -0.023886   0.002241   0.013507  -0.005603
     3  C   -0.001740  -0.295058   0.001910   0.007600  -0.007288  -0.396708
     4  C   -0.012793   0.068630  -0.000721  -0.000579   0.001166   0.121506
     5  H    0.001592  -0.024237  -0.000057   0.000549  -0.000018  -0.008394
     6  H   -0.000103   0.004021  -0.000003  -0.000001   0.000001   0.060923
     7  C   -0.000589  -0.001083   0.000090  -0.000097   0.000237   0.001864
     8  H   -0.000008  -0.000037   0.000000   0.000000   0.000000   0.002908
     9  H    0.000009   0.000075   0.000000   0.000000   0.000000  -0.001913
    10  H   -0.000072   0.000018  -0.000004   0.000000   0.000000   0.002322
    11  N    0.008991  -0.019245  -0.001324  -0.000068   0.000302   0.014462
    12  O    0.000162   0.000450   0.000005   0.000001  -0.000002   0.182848
    13  O    0.000341  -0.014859   0.003812   0.000828  -0.000801  -0.020052
    14  C    0.135366   0.628388   0.001019   0.060639   0.034672   0.466459
    15  H    0.004699  -0.037002   0.000120   0.002859   0.000219   0.012205
    16  C   -0.070459  -0.309833  -0.010813  -0.013529  -0.005777  -2.264934
    17  H    0.000003   0.008984   0.000003  -0.000004   0.000000  -0.007709
    18  C    0.146964  -1.889079  -0.144810  -0.208770  -0.176035  -0.009449
    19  H    0.588307  -0.017198  -0.002606   0.004454  -0.002021   0.020601
    20  C   -0.017198   6.906150   0.520638   0.502401   0.490779   0.090425
    21  H   -0.002606   0.520638   0.500530  -0.025479  -0.026168   0.001705
    22  H    0.004454   0.502401  -0.025479   0.540966  -0.025283   0.004426
    23  H   -0.002021   0.490779  -0.026168  -0.025283   0.539341  -0.003900
    24  C    0.020601   0.090425   0.001705   0.004426  -0.003900  13.284777
    25  H    0.003522   0.010731   0.000001   0.000000  -0.000001   0.136310
    26  C    0.048821  -0.208641  -0.000279   0.000595  -0.002106  -5.268217
    27  H   -0.000001  -0.000244   0.000000   0.000000   0.000000  -0.119820
    28  H    0.000005  -0.000915   0.000000   0.000000   0.000000  -0.258208
    29  C    0.000088  -0.000120   0.000005   0.000006  -0.000002   0.125457
    30  C   -0.000015  -0.000253  -0.000001   0.000000   0.000000  -0.124238
    31  H    0.000000  -0.000008   0.000000   0.000000   0.000000  -0.011537
    32  H    0.000000   0.000000   0.000000   0.000000   0.000000  -0.003249
    33  H    0.000000   0.000011   0.000000   0.000000   0.000000   0.011385
    34  O    0.000105  -0.002394   0.000001   0.000002  -0.000003  -0.489455
    35  O    0.000000  -0.000040   0.000000   0.000000   0.000000  -0.005136
              25         26         27         28         29         30
     1  C   -0.006498   0.077059   0.000572  -0.003382   0.013307  -0.003961
     2  C   -0.026130  -0.377873  -0.002177   0.001455  -0.094187   0.025790
     3  C    0.022893   0.541257   0.014183  -0.052656   0.033616  -0.005986
     4  C   -0.019769   0.009879  -0.000411   0.052411   0.022779  -0.020055
     5  H   -0.000100   0.010290   0.000001  -0.000002   0.000120  -0.000052
     6  H    0.001823  -0.055181  -0.000011   0.000129  -0.000874  -0.000019
     7  C    0.001205   0.028481   0.000349   0.000251   0.000084   0.000281
     8  H   -0.000047  -0.002963   0.000000  -0.000006  -0.000027   0.000010
     9  H    0.000007   0.001621   0.000000   0.000000   0.000015  -0.000006
    10  H   -0.000017  -0.001865   0.000000   0.000000  -0.000003  -0.000001
    11  N    0.011273   0.007300   0.000480  -0.001535   0.001114  -0.001368
    12  O    0.002497  -0.216347   0.000089  -0.004509   0.007719  -0.015225
    13  O    0.000070  -0.002309   0.000000   0.000009   0.000027  -0.000010
    14  C   -0.070918   0.058600   0.021035  -0.005599  -0.004801  -0.009237
    15  H    0.000019   0.014237  -0.000001   0.000002   0.000090  -0.000045
    16  C    0.159712   0.142010   0.024110  -0.022264  -0.105235   0.021855
    17  H    0.004306  -0.054216   0.000299   0.000086  -0.000219  -0.000775
    18  C    0.008286  -0.331087   0.001189  -0.008005  -0.001247   0.000646
    19  H    0.003522   0.048821  -0.000001   0.000005   0.000088  -0.000015
    20  C    0.010731  -0.208641  -0.000244  -0.000915  -0.000120  -0.000253
    21  H    0.000001  -0.000279   0.000000   0.000000   0.000005  -0.000001
    22  H    0.000000   0.000595   0.000000   0.000000   0.000006   0.000000
    23  H   -0.000001  -0.002106   0.000000   0.000000  -0.000002   0.000000
    24  C    0.136310  -5.268217  -0.119820  -0.258208   0.125457  -0.124238
    25  H    0.575237   0.022299   0.001620  -0.003540  -0.000948   0.001370
    26  C    0.022299  10.773170   0.399236   0.678263  -0.069429   0.132392
    27  H    0.001620   0.399236   0.567933  -0.041812   0.009768  -0.008980
    28  H   -0.003540   0.678263  -0.041812   0.535794  -0.016673   0.014907
    29  C   -0.000948  -0.069429   0.009768  -0.016673   5.138425   0.061073
    30  C    0.001370   0.132392  -0.008980   0.014907   0.061073   5.505757
    31  H   -0.000003   0.032348   0.000087  -0.002781  -0.051602   0.383979
    32  H    0.000000  -0.006278   0.000013   0.000154  -0.045761   0.414862
    33  H   -0.000003  -0.015434   0.000095   0.000679  -0.041878   0.380765
    34  O    0.008778   0.256325  -0.033988  -0.041267   0.045244  -0.196634
    35  O    0.000049   0.018974  -0.000585   0.000238   0.525019  -0.125099
              31         32         33         34         35
     1  C   -0.000033   0.000013  -0.000203  -0.003781   0.000221
     2  C   -0.000027   0.000144   0.002280   0.024986  -0.005789
     3  C    0.000706   0.000761   0.001049   0.033508  -0.003443
     4  C   -0.001000  -0.000391   0.002836  -0.022006  -0.000833
     5  H    0.000000   0.000000   0.000000   0.000056   0.000001
     6  H   -0.000001  -0.000001  -0.000004   0.005606   0.000540
     7  C   -0.000004  -0.000002   0.000098   0.000658  -0.000008
     8  H    0.000000   0.000000   0.000000  -0.000001   0.000000
     9  H    0.000000   0.000000   0.000000   0.000001   0.000000
    10  H    0.000000   0.000000   0.000000   0.000000   0.000000
    11  N    0.000009  -0.000001   0.000065   0.002617   0.000010
    12  O    0.000202   0.000031  -0.000685   0.002499  -0.000028
    13  O    0.000000   0.000000   0.000000   0.000007   0.000000
    14  C   -0.000307   0.000046   0.000739   0.018923  -0.007431
    15  H    0.000000   0.000000   0.000000   0.000502   0.000004
    16  C   -0.001206  -0.000054   0.003086   0.201412  -0.001418
    17  H    0.000001   0.000000  -0.000001   0.005753   0.000399
    18  C   -0.000219  -0.000005   0.000204  -0.004229   0.000334
    19  H    0.000000   0.000000   0.000000   0.000105   0.000000
    20  C   -0.000008   0.000000   0.000011  -0.002394  -0.000040
    21  H    0.000000   0.000000   0.000000   0.000001   0.000000
    22  H    0.000000   0.000000   0.000000   0.000002   0.000000
    23  H    0.000000   0.000000   0.000000  -0.000003   0.000000
    24  C   -0.011537  -0.003249   0.011385  -0.489455  -0.005136
    25  H   -0.000003   0.000000  -0.000003   0.008778   0.000049
    26  C    0.032348  -0.006278  -0.015434   0.256325   0.018974
    27  H    0.000087   0.000013   0.000095  -0.033988  -0.000585
    28  H   -0.002781   0.000154   0.000679  -0.041267   0.000238
    29  C   -0.051602  -0.045761  -0.041878   0.045244   0.525019
    30  C    0.383979   0.414862   0.380765  -0.196634  -0.125099
    31  H    0.514273  -0.022474  -0.024544  -0.001477   0.004352
    32  H   -0.022474   0.489578  -0.019948   0.010139  -0.007554
    33  H   -0.024544  -0.019948   0.492456   0.004687   0.002234
    34  O   -0.001477   0.010139   0.004687   8.661298  -0.118843
    35  O    0.004352  -0.007554   0.002234  -0.118843   8.183590
 Mulliken charges:
               1
     1  C    0.115983
     2  C   -0.020788
     3  C   -0.111994
     4  C    0.013263
     5  H    0.173733
     6  H    0.189294
     7  C   -0.210236
     8  H    0.174831
     9  H    0.169345
    10  H    0.172639
    11  N   -0.024024
    12  O   -0.514156
    13  O   -0.521487
    14  C   -0.256387
    15  H    0.136130
    16  C   -0.009770
    17  H    0.155556
    18  C    0.461323
    19  H    0.141322
    20  C   -0.699014
    21  H    0.190133
    22  H    0.152567
    23  H    0.166603
    24  C    0.334538
    25  H    0.155969
    26  C   -0.640931
    27  H    0.166971
    28  H    0.178771
    29  C    0.449049
    30  C   -0.431724
    31  H    0.181267
    32  H    0.189983
    33  H    0.200029
    34  O   -0.369029
    35  O   -0.459757
 Sum of Mulliken charges =   0.00000
 Mulliken charges with hydrogens summed into heavy atoms:
               1
     1  C    0.115983
     2  C    0.152944
     3  C    0.077300
     4  C    0.013263
     7  C    0.306579
    11  N   -0.024024
    12  O   -0.514156
    13  O   -0.521487
    14  C   -0.120257
    16  C    0.145785
    18  C    0.602645
    20  C   -0.189710
    24  C    0.490508
    26  C   -0.295189
    29  C    0.449049
    30  C    0.139554
    34  O   -0.369029
    35  O   -0.459757
 APT charges:
               1
     1  C    1.394217
     2  C   -0.275332
     3  C   -0.171887
     4  C    1.352974
     5  H    0.042985
     6  H    0.054161
     7  C    0.382468
     8  H    0.030118
     9  H   -0.040014
    10  H    0.009610
    11  N   -0.982447
    12  O   -0.980413
    13  O   -0.986723
    14  C   -0.101600
    15  H    0.037221
    16  C   -0.072641
    17  H    0.077179
    18  C    0.191080
    19  H   -0.000382
    20  C   -0.013521
    21  H    0.049654
    22  H   -0.010283
    23  H   -0.028158
    24  C    0.033655
    25  H    0.016358
    26  C    0.528661
    27  H   -0.079744
    28  H    0.027838
    29  C    1.550026
    30  C   -0.126686
    31  H    0.039285
    32  H    0.037904
    33  H    0.055363
    34  O   -1.073498
    35  O   -0.967429
 Sum of APT charges =   0.00000
 APT charges with hydrogens summed into heavy atoms:
               1
     1  C    1.394217
     2  C   -0.232347
     3  C   -0.117725
     4  C    1.352974
     7  C    0.382183
    11  N   -0.982447
    12  O   -0.980413
    13  O   -0.986723
    14  C   -0.064380
    16  C    0.004538
    18  C    0.190698
    20  C   -0.002308
    24  C    0.050013
    26  C    0.476755
    29  C    1.550026
    30  C    0.005865
    34  O   -1.073498
    35  O   -0.967429
 Electronic spatial extent (au):  <R**2>=           5210.7973
 Charge=              0.0000 electrons
 Dipole moment (field-independent basis, Debye):
    X=              1.5306    Y=             -0.4413    Z=             -4.4122  Tot=              4.6909
 Quadrupole moment (field-independent basis, Debye-Ang):
   XX=           -130.6691   YY=           -104.9800   ZZ=           -107.1343
   XY=            -10.5031   XZ=              9.9701   YZ=             -1.0398
 Traceless Quadrupole moment (field-independent basis, Debye-Ang):
   XX=            -16.4080   YY=              9.2811   ZZ=              7.1268
   XY=            -10.5031   XZ=              9.9701   YZ=             -1.0398
 Octapole moment (field-independent basis, Debye-Ang**2):
  XXX=            -13.9177  YYY=             -4.1760  ZZZ=             -4.2155  XYY=             28.2587
  XXY=             38.1816  XXZ=            -91.4891  XZZ=              8.9483  YZZ=              9.7921
  YYZ=              4.6201  XYZ=            -18.3134
 Hexadecapole moment (field-independent basis, Debye-Ang**3):
 XXXX=          -5218.1184 YYYY=          -1829.6397 ZZZZ=           -455.1981 XXXY=           -273.9844
 XXXZ=            198.6031 YYYX=             67.2894 YYYZ=            -37.6372 ZZZX=             26.5142
 ZZZY=            -13.8954 XXYY=          -1007.1504 XXZZ=           -898.9290 YYZZ=           -394.8917
 XXYZ=             22.6794 YYXZ=             -3.4535 ZZXY=             -5.5365
 N-N= 1.358603765445D+03 E-N=-4.722238379891D+03  KE= 8.532380425363D+02
  Exact polarizability: 267.952  -7.689 238.002   8.078   4.120 162.404
 Approx polarizability: 345.663 -11.668 313.588  20.074  14.934 226.080
 D2PCM: C-PCM CHGder 2nd derivatives, FixD1E=F FixD2E=F DoIter=F DoCFld=F I1PDM=0
 Calling FoFJK, ICntrl=    100127 FMM=F ISym2X=0 I1Cent= 0 IOpClX= 0 NMat=1 NMatS=1 NMatT=0.
 Full mass-weighted force constant matrix:
 Low frequencies --- -441.7124   -3.9172   -0.0024   -0.0009   -0.0004    3.1901
 Low frequencies ---    8.4297   14.7648   32.1853
 ******    1 imaginary frequencies (negative Signs) ****** 
 Diagonal vibrational polarizability:
      311.3084812     150.2716468     204.6714122
 Harmonic frequencies (cm**-1), IR intensities (KM/Mole), Raman scattering
 activities (A**4/AMU), depolarization ratios for plane and unpolarized
 incident light, reduced masses (AMU), force constants (mDyne/A),
 and normal coordinates:
                      1                      2                      3
                      A                      A                      A
 Frequencies --   -441.7123                14.4386                32.1586
 Red. masses --      8.1104                 4.1350                 5.6532
 Frc consts  --      0.9323                 0.0005                 0.0034
 IR Inten    --      4.1005                 1.9028                10.4514
  Atom  AN      X      Y      Z        X      Y      Z        X      Y      Z
     1   6     0.00   0.05   0.02     0.06  -0.01  -0.01    -0.05  -0.01   0.07
     2   6    -0.06   0.25   0.30     0.04   0.01   0.01    -0.07  -0.03   0.00
     3   6     0.12   0.20   0.36     0.05   0.05   0.02    -0.06  -0.04  -0.05
     4   6     0.02   0.03   0.04     0.08   0.04   0.02    -0.04  -0.03  -0.03
     5   1     0.05  -0.15  -0.08     0.03   0.00   0.00    -0.10  -0.05  -0.01
     6   1    -0.12  -0.11  -0.12     0.05   0.08   0.04    -0.08  -0.05  -0.09
     7   6     0.01   0.01  -0.02     0.11  -0.02  -0.01    -0.01   0.01   0.10
     8   1     0.01   0.01  -0.02     0.11   0.00   0.00     0.02   0.02   0.08
     9   1     0.00   0.01  -0.01     0.14  -0.02  -0.02    -0.04  -0.01   0.13
    10   1     0.01   0.03  -0.02     0.09  -0.04  -0.02     0.01   0.02   0.12
    11   7     0.01   0.01  -0.04     0.08   0.00   0.00    -0.03  -0.01   0.04
    12   8     0.00  -0.01  -0.01     0.10   0.06   0.02    -0.03  -0.04  -0.07
    13   8     0.00  -0.01  -0.01     0.06  -0.05  -0.02    -0.06   0.00   0.13
    14   6     0.07  -0.01  -0.01    -0.04   0.03   0.00     0.02  -0.02  -0.09
    15   1    -0.01   0.07   0.17    -0.04   0.03   0.00     0.03  -0.03  -0.12
    16   6    -0.04   0.04  -0.03    -0.03   0.06   0.04     0.02  -0.03  -0.10
    17   1     0.02   0.08   0.20    -0.03   0.08   0.06     0.02  -0.05  -0.12
    18   6     0.04  -0.25  -0.23    -0.02   0.01  -0.02     0.01   0.01  -0.05
    19   1    -0.01   0.05   0.12    -0.03   0.02  -0.01     0.01   0.04  -0.01
    20   6     0.03  -0.06  -0.04    -0.03  -0.02  -0.06     0.02   0.03  -0.04
    21   1    -0.12   0.01   0.07     0.00  -0.04  -0.06    -0.02   0.02   0.02
    22   1     0.03  -0.09  -0.07    -0.03  -0.03  -0.06     0.02  -0.01  -0.08
    23   1     0.23   0.03   0.02    -0.06  -0.02  -0.07     0.06   0.09  -0.04
    24   6    -0.14  -0.21  -0.31    -0.02   0.07   0.06     0.00  -0.03  -0.08
    25   1     0.04   0.04   0.10    -0.03   0.06   0.04     0.00  -0.01  -0.07
    26   6    -0.05  -0.02  -0.05    -0.01   0.09   0.09    -0.01  -0.05  -0.06
    27   1    -0.21   0.15  -0.03    -0.02   0.11   0.08    -0.08  -0.17   0.02
    28   1     0.09  -0.03   0.04    -0.01   0.09   0.12    -0.02  -0.05  -0.19
    29   6     0.00   0.00   0.00    -0.10  -0.07  -0.03     0.08   0.07   0.06
    30   6     0.00   0.00   0.00    -0.24  -0.21  -0.17    -0.09  -0.14  -0.18
    31   1    -0.01   0.00   0.00    -0.15  -0.32  -0.16    -0.15  -0.38  -0.14
    32   1     0.00   0.01   0.01    -0.30  -0.32  -0.26    -0.09  -0.15  -0.18
    33   1     0.01  -0.01   0.00    -0.37  -0.09  -0.21    -0.15  -0.03  -0.41
    34   8     0.00   0.00  -0.01     0.00   0.06   0.09     0.08   0.07   0.08
    35   8     0.00   0.00   0.00    -0.08  -0.08  -0.01     0.20   0.23   0.24
                      4                      5                      6
                      A                      A                      A
 Frequencies --     42.7087                61.8255                75.1763
 Red. masses --      6.4043                 1.0267                 4.5527
 Frc consts  --      0.0069                 0.0023                 0.0152
 IR Inten    --      1.7083                 0.1420                 2.2198
  Atom  AN      X      Y      Z        X      Y      Z        X      Y      Z
     1   6     0.02   0.01  -0.10     0.00   0.00   0.00    -0.01   0.00  -0.06
     2   6     0.10  -0.04  -0.02     0.00   0.00   0.00    -0.01   0.01  -0.03
     3   6     0.06  -0.08   0.10     0.00   0.00   0.00    -0.01   0.03  -0.01
     4   6    -0.05  -0.04   0.16    -0.01   0.00   0.01    -0.01   0.04   0.02
     5   1     0.20  -0.03  -0.04     0.00   0.00   0.00    -0.01   0.03  -0.01
     6   1     0.10  -0.15   0.14     0.00   0.00   0.00    -0.02   0.00  -0.04
     7   6    -0.19   0.06   0.01     0.01  -0.01  -0.01    -0.02   0.03  -0.01
     8   1    -0.22  -0.03  -0.03    -0.19   0.30   0.43    -0.02   0.02  -0.02
     9   1    -0.29   0.12  -0.01     0.53  -0.26   0.02    -0.03   0.03  -0.01
    10   1    -0.14   0.14   0.04    -0.31  -0.08  -0.49    -0.02   0.03  -0.01
    11   7    -0.08   0.01   0.02     0.00   0.01   0.01    -0.01   0.02  -0.02
    12   8    -0.11  -0.05   0.30    -0.01  -0.01   0.01    -0.01   0.07   0.08
    13   8     0.04   0.03  -0.25     0.00   0.01  -0.01    -0.01  -0.03  -0.11
    14   6     0.02  -0.05   0.04     0.00   0.00   0.00    -0.07   0.01  -0.02
    15   1     0.02  -0.04   0.05     0.00   0.00   0.00    -0.17   0.01  -0.01
    16   6     0.03  -0.04   0.06     0.00   0.00   0.00    -0.03   0.07  -0.12
    17   1     0.02  -0.02   0.06     0.00   0.00   0.00    -0.07   0.10  -0.19
    18   6     0.03  -0.06   0.01     0.00   0.00   0.00    -0.02  -0.05   0.09
    19   1     0.02  -0.08  -0.02     0.00   0.00   0.00     0.11  -0.08   0.06
    20   6     0.03  -0.06  -0.01     0.00   0.01   0.01    -0.10  -0.13   0.27
    21   1     0.05  -0.05  -0.07     0.00   0.01   0.00    -0.08  -0.15   0.27
    22   1     0.04  -0.02   0.04     0.00   0.01   0.01    -0.24  -0.06   0.34
    23   1     0.00  -0.12   0.00     0.00   0.00   0.01    -0.03  -0.25   0.36
    24   6     0.04  -0.03   0.06     0.00   0.00   0.00     0.03   0.08  -0.11
    25   1     0.07  -0.04   0.08     0.00   0.00   0.00     0.06   0.10  -0.06
    26   6     0.06  -0.01   0.02     0.00   0.00   0.00     0.03   0.10  -0.08
    27   1     0.07  -0.04   0.02     0.00  -0.01   0.00     0.01   0.14  -0.09
    28   1     0.08  -0.01  -0.03     0.00   0.00  -0.01     0.01   0.09  -0.02
    29   6     0.00   0.08  -0.08     0.00   0.00   0.00     0.07  -0.05   0.02
    30   6     0.02   0.00  -0.23     0.00   0.00  -0.01    -0.06  -0.07   0.07
    31   1     0.07  -0.11  -0.21     0.00  -0.01  -0.01    -0.11  -0.06   0.06
    32   1    -0.01   0.01  -0.30     0.00   0.00  -0.01    -0.06  -0.14   0.13
    33   1    -0.01   0.03  -0.27     0.00   0.00  -0.01    -0.10  -0.03   0.04
    34   8     0.02   0.06   0.02     0.00   0.00   0.00     0.07   0.01  -0.09
    35   8    -0.02   0.17  -0.05     0.00   0.01   0.00     0.18  -0.10   0.07
                      7                      8                      9
                      A                      A                      A
 Frequencies --     94.9885               122.5412               146.4199
 Red. masses --      3.6627                 8.2835                 4.9144
 Frc consts  --      0.0195                 0.0733                 0.0621
 IR Inten    --      2.3824                 0.2808                 0.9467
  Atom  AN      X      Y      Z        X      Y      Z        X      Y      Z
     1   6     0.04   0.04  -0.06     0.06  -0.02   0.00    -0.10  -0.01   0.02
     2   6     0.03   0.02  -0.10     0.06  -0.03   0.00    -0.13   0.07   0.05
     3   6     0.03   0.02  -0.09     0.06   0.02   0.07    -0.12   0.05  -0.06
     4   6     0.03   0.04  -0.06     0.06   0.00   0.07    -0.05   0.10  -0.01
     5   1     0.03   0.02  -0.10     0.06   0.00   0.03    -0.17   0.04   0.03
     6   1     0.04   0.02  -0.09     0.06   0.01   0.08    -0.11   0.14  -0.01
     7   6     0.05   0.22   0.26     0.07  -0.05  -0.03     0.01  -0.02  -0.02
     8   1     0.06   0.34   0.34     0.08  -0.09  -0.08     0.05   0.01  -0.04
     9   1     0.02   0.07   0.42     0.04   0.00  -0.07     0.05  -0.01  -0.03
    10   1     0.06   0.34   0.22     0.08  -0.08   0.02     0.00  -0.08   0.00
    11   7     0.04   0.09   0.02     0.06  -0.02   0.02    -0.06   0.03   0.01
    12   8     0.02   0.02  -0.08     0.07   0.03   0.11    -0.02   0.15   0.04
    13   8     0.04   0.02  -0.06     0.06  -0.03  -0.01    -0.10  -0.08  -0.01
    14   6    -0.04  -0.06   0.08    -0.02   0.07   0.10    -0.03  -0.05   0.13
    15   1    -0.04  -0.02   0.15     0.04   0.10   0.14    -0.04  -0.04   0.16
    16   6    -0.04  -0.06   0.07    -0.04   0.00   0.08     0.00   0.03   0.18
    17   1    -0.04  -0.02   0.14    -0.02  -0.01   0.10    -0.04   0.11   0.22
    18   6    -0.04  -0.09  -0.01    -0.05   0.14   0.06    -0.02  -0.12  -0.04
    19   1    -0.04  -0.13  -0.06    -0.12   0.08  -0.01    -0.09  -0.09   0.00
    20   6    -0.04  -0.08   0.00    -0.01   0.16  -0.05     0.02  -0.10  -0.21
    21   1    -0.01  -0.06  -0.09     0.06   0.19  -0.24    -0.02  -0.13  -0.08
    22   1    -0.03  -0.01   0.08     0.07   0.26   0.06     0.12  -0.27  -0.38
    23   1    -0.07  -0.18   0.03    -0.16   0.03  -0.07     0.01   0.14  -0.33
    24   6    -0.04  -0.08  -0.02    -0.08  -0.03  -0.01     0.10   0.05   0.13
    25   1    -0.04  -0.13  -0.06    -0.06  -0.02   0.02     0.11  -0.07   0.05
    26   6    -0.03  -0.07  -0.01    -0.07  -0.04  -0.11     0.11   0.03  -0.01
    27   1    -0.04  -0.07  -0.01     0.10   0.16  -0.26     0.20   0.04  -0.05
    28   1    -0.01  -0.07  -0.03    -0.08  -0.05   0.13     0.07   0.04   0.02
    29   6    -0.02  -0.01   0.01    -0.04  -0.03  -0.05     0.09  -0.03  -0.03
    30   6     0.01  -0.01   0.00    -0.07  -0.03  -0.03     0.06  -0.04  -0.02
    31   1    -0.01  -0.02   0.00    -0.08  -0.01  -0.03     0.13   0.00  -0.03
    32   1     0.02   0.02   0.01    -0.06  -0.04   0.00     0.03  -0.09  -0.06
    33   1     0.03  -0.02  -0.02    -0.09  -0.02  -0.02     0.02  -0.01   0.04
    34   8    -0.03  -0.04   0.00    -0.26  -0.28  -0.36     0.06  -0.03  -0.09
    35   8    -0.02   0.01   0.02     0.14   0.15   0.18     0.14  -0.04   0.00
                     10                     11                     12
                      A                      A                      A
 Frequencies --    158.1689               171.5635               172.3137
 Red. masses --      5.4451                 3.0876                 4.0824
 Frc consts  --      0.0803                 0.0535                 0.0714
 IR Inten    --      2.6743                 8.1364                 4.2664
  Atom  AN      X      Y      Z        X      Y      Z        X      Y      Z
     1   6     0.07   0.09   0.06     0.00  -0.01  -0.02     0.00  -0.02   0.04
     2   6     0.12  -0.02  -0.02    -0.01  -0.02  -0.05     0.00  -0.02   0.06
     3   6     0.09  -0.07   0.02     0.00   0.01  -0.03     0.00  -0.01   0.08
     4   6     0.02  -0.08  -0.01     0.01   0.01   0.01    -0.02  -0.04   0.04
     5   1     0.16   0.00  -0.01    -0.02   0.00  -0.03     0.01  -0.01   0.06
     6   1     0.12  -0.10   0.05    -0.02  -0.02  -0.07    -0.02  -0.05   0.04
     7   6    -0.11   0.03  -0.09     0.03  -0.02  -0.02    -0.03  -0.02   0.04
     8   1    -0.20  -0.04  -0.03     0.06   0.01  -0.03    -0.05  -0.09   0.01
     9   1    -0.09   0.06  -0.13     0.02  -0.06   0.02    -0.01   0.06  -0.05
    10   1    -0.13   0.08  -0.16     0.05   0.00  -0.01    -0.04  -0.08   0.05
    11   7     0.01   0.00  -0.02     0.01  -0.05  -0.10    -0.01   0.05   0.19
    12   8    -0.03  -0.15  -0.05     0.03   0.10   0.17    -0.04  -0.15  -0.17
    13   8     0.05   0.26   0.23    -0.02   0.04   0.10     0.02  -0.12  -0.14
    14   6    -0.10  -0.03   0.03    -0.04  -0.01   0.08    -0.04   0.05   0.10
    15   1    -0.14  -0.03   0.04    -0.01   0.04   0.17    -0.02   0.08   0.15
    16   6    -0.07   0.04   0.05    -0.05  -0.05   0.02    -0.03   0.04   0.05
    17   1    -0.10   0.11   0.07    -0.05  -0.02   0.08    -0.05   0.07   0.07
    18   6    -0.06  -0.10  -0.03    -0.07   0.03   0.01    -0.06   0.08   0.05
    19   1    -0.05  -0.10  -0.03    -0.13  -0.03  -0.06    -0.12   0.05   0.01
    20   6    -0.07  -0.18  -0.11    -0.03   0.09  -0.04    -0.03   0.10  -0.08
    21   1     0.04  -0.19  -0.28     0.07   0.19  -0.42     0.13   0.17  -0.49
    22   1    -0.06  -0.08   0.00     0.06   0.36   0.26     0.08   0.35   0.20
    23   1    -0.22  -0.34  -0.12    -0.22  -0.26   0.02    -0.29  -0.25  -0.06
    24   6     0.02   0.05   0.02    -0.04  -0.09  -0.11     0.01   0.01  -0.04
    25   1     0.04  -0.02   0.00    -0.01  -0.12  -0.09     0.05  -0.01  -0.01
    26   6     0.05   0.12   0.00    -0.02  -0.05  -0.07     0.03   0.04  -0.06
    27   1     0.09   0.21  -0.06    -0.12  -0.13   0.00    -0.01  -0.01  -0.03
    28   1     0.07   0.11   0.10     0.02  -0.05  -0.19     0.04   0.04  -0.12
    29   6     0.01   0.01  -0.02     0.04   0.00   0.00     0.05   0.01  -0.01
    30   6    -0.05   0.00   0.02     0.03  -0.01   0.00    -0.01   0.00   0.02
    31   1    -0.01   0.04   0.01    -0.18  -0.10   0.02    -0.14  -0.03   0.02
    32   1    -0.08  -0.07   0.00     0.11   0.10   0.14     0.03   0.03   0.11
    33   1    -0.11   0.04   0.07     0.13  -0.06  -0.19     0.03  -0.01  -0.09
    34   8     0.00   0.03  -0.08     0.09   0.07   0.06     0.08   0.10  -0.01
    35   8     0.08  -0.02   0.01     0.02  -0.06  -0.05     0.07  -0.07  -0.04
                     13                     14                     15
                      A                      A                      A
 Frequencies --    186.8206               193.7326               203.0483
 Red. masses --      2.7023                 1.2199                 1.5514
 Frc consts  --      0.0556                 0.0270                 0.0377
[...]
 -0.00001580,-0.00001433,-0.00001849,0.00002287,-0.00002130,-0.00009532
 ,-0.00003021,-0.00004082,0.00000659,0.00000082,-0.00000087,-0.00002516
 ,0.00003299,-0.00006327,-0.00000687,0.00001195,0.00000251,-0.00000359,
 -0.00000100,0.00000255,0.00000165,-0.00000403,-0.00000099,0.00000351,-
 0.00000147,-0.00000091,0.00007898,0.00001840,0.00000538,0.00008240,0.0
 0010889,0.00004480,0.00006433,0.00000431,0.00000741,0.00001104,0.00000
 542,-0.00002734,0.00001484,0.00001056,0.00000972,0.00015744,0.00007454
 ,0.00000750,0.00002881,-0.00004991,-0.00000752,-0.00000272,-0.00000155
 ,0.00002002,-0.00000110,0.00000644,0.00000228,0.00000665,-0.00000461,-
 0.00000990,0.00000164,-0.00000016,0.00000266,0.00000106,0.00000378,0.0
 0000362,0.00000869,0.00000463,0.00000112,-0.00020464,0.00006193,-0.000
 20902,0.00005307,0.00003050,-0.00002022,0.00027528,0.00115237,0.000658
 04,0.00049734,0.00028663,-0.00003838,0.00005774,0.00037396,0.00016626,
 -0.01972191,-0.03434547,-0.10934086,-0.04178874,-0.03065275,0.54545544
 ,-0.00009925,0.00002284,0.00000680,0.00005748,-0.00001564,0.00001237,-
 0.00000288,0.00000795,-0.00006232,-0.00009244,0.00006671,0.00001646,0.
 00001146,-0.00000357,-0.00000035,0.00001443,0.00000508,-0.00000195,-0.
 00001258,0.00001887,0.00000537,-0.00000256,0.00000155,-0.00000117,0.00
 000417,-0.00000597,0.00000190,0.00000264,-0.00000110,-0.00000151,0.000
 06473,0.00001063,-0.00001572,0.00002612,-0.00003733,0.00009190,0.00008
 862,-0.00000838,0.00000477,-0.00001279,0.00002176,-0.00001021,0.000017
 89,0.00001499,0.00000855,0.00018333,0.00002162,0.00005459,0.00000610,0
 .00000896,0.00001119,-0.00000365,-0.00002460,0.00003956,-0.00000433,0.
 00000776,-0.00000154,0.00001109,0.00000355,-0.00002637,0.00000225,-0.0
 0000094,0.00000550,0.00000223,0.00000492,0.00000505,0.00001391,0.00000
 868,0.00000385,-0.00030058,0.00007996,0.00015872,0.00001133,-0.0000001
 5,-0.00000406,-0.00087187,-0.00069781,-0.00136988,-0.00058578,-0.00085
 344,0.00040286,-0.00117664,0.00014048,-0.00048021,-0.00139602,0.006667
 56,-0.00869509,-0.04633348,-0.00370465,-0.00701686,0.04677411,-0.00001
 783,0.00002494,0.00002055,0.00002079,-0.00001254,-0.00000088,-0.000003
 26,0.00000347,-0.00002540,-0.00001463,0.00002993,0.00002601,0.00000394
 ,-0.00000345,0.00000104,-0.00000304,-0.00000060,-0.00000596,-0.0000008
 6,0.00001327,0.00001111,-0.00000006,-0.00000204,0.00000064,0.00000007,
 -0.00000306,-0.00000156,0.00000224,-0.00000090,-0.00000058,0.00001800,
 -0.00000911,-0.00001357,0.00002949,-0.00001740,-0.00006949,0.00002310,
 -0.00000733,-0.00000519,0.00000593,-0.00002015,-0.00002224,-0.00000388
 ,-0.00000092,0.00000082,-0.00001634,0.00002759,0.00001015,0.00001781,-
 0.00000330,0.00000088,-0.00000101,-0.00000486,0.00001220,0.00000081,0.
 00000222,-0.00000210,0.00000457,-0.00000015,-0.00000827,0.00000076,0.0
 0000014,0.00000252,0.00000057,0.00000059,0.00000117,0.00000431,0.00000
 327,0.00000197,-0.00005515,-0.00025374,0.00010247,0.00001575,0.0000140
 9,-0.00000211,-0.00158246,0.00032887,-0.00068070,-0.00055452,-0.000325
 87,0.00045577,-0.00013430,-0.00039367,0.00031860,0.00053491,0.01005941
 ,-0.02980291,-0.00334960,-0.05076974,0.04265414,0.00188681,0.05460187,
 -0.00002887,0.00002152,0.00001299,0.00002718,-0.00000800,0.00000974,0.
 00000650,0.00000257,-0.00004837,-0.00000939,0.00004587,0.00001342,0.00
 000627,-0.00000082,-0.00000064,0.00000744,0.00000418,-0.00000340,-0.00
 000427,0.00000537,-0.00000025,-0.00000002,0.00000053,-0.00000101,0.000
 00169,-0.00000194,0.00000067,0.00000017,-0.00000061,-0.00000026,0.0000
 0288,-0.00000383,-0.00000619,-0.00001610,-0.00004948,0.00002894,0.0000
 2432,-0.00000573,-0.00000059,-0.00001956,0.00003117,-0.00000541,0.0000
 1192,0.00000793,0.00000248,0.00015337,-0.00000773,0.00001255,-0.000004
 06,0.00001087,-0.00000056,0.00000217,-0.00001190,0.00001248,-0.0000016
 5,0.00000299,-0.00000204,0.00000270,0.00000129,-0.00000789,0.00000125,
 -0.00000033,0.00000144,0.00000083,0.00000195,0.00000128,0.00000418,0.0
 0000299,0.00000176,-0.00007520,0.00023579,0.00030697,-0.00002417,-0.00
 000974,-0.00001845,0.00072922,-0.00002903,0.00049169,-0.00003368,-0.00
 004755,0.00019571,-0.00013903,0.00047448,-0.00021516,0.00243599,0.0039
 7096,-0.01477624,-0.00837874,0.04428068,-0.30889831,0.00737926,-0.0468
 1866,0.33361625,0.00009342,-0.00002172,-0.00000296,-0.00004396,0.00003
 389,0.00000340,0.00002734,-0.00000872,0.00001393,0.00015319,0.00001897
 ,0.00001909,-0.00000734,-0.00000151,0.00000209,0.00001677,-0.00000347,
 0.00003484,0.00001191,-0.00002954,-0.00001240,0.00000326,-0.00000047,0
 .00000029,-0.00000492,0.00000787,-0.00000080,-0.00000442,0.00000280,0.
 00000125,-0.00009191,-0.00000972,0.00001508,-0.00014640,0.00001308,-0.
 00004444,-0.00008566,0.00000967,-0.00000647,0.00000309,0.00000157,0.00
 001547,-0.00001204,-0.00000922,-0.00000615,-0.00011229,-0.00003450,-0.
 00003773,0.00000285,0.00003803,0.00001453,0.00000566,0.00000383,-0.000
 01817,0.00000215,-0.00000493,-0.00000105,-0.00000698,0.00000264,0.0000
 1442,-0.00000205,0.00000070,-0.00000412,-0.00000050,-0.00000351,-0.000
 00305,-0.00000886,-0.00000619,-0.00000116,0.00018092,-0.00005948,0.000
 08271,-0.00003579,-0.00000990,-0.00000235,0.00042721,0.00004998,-0.000
 86375,0.00000077,-0.00004188,0.00008721,0.00025032,-0.00012153,-0.0000
 7822,-0.00980357,0.00010982,0.00467093,-0.28165394,-0.06794711,0.08282
 960,0.00401152,0.00143702,-0.00122273,0.30010423,0.00001612,-0.0000686
 3,-0.00004459,-0.00004436,0.00002783,0.00001054,0.00001715,0.00001579,
 0.00002025,-0.00012992,-0.00017612,-0.00007330,-0.00000048,0.00000224,
 0.00000093,0.00003638,-0.00002647,0.00003511,-0.00000027,0.00000077,-0
 .00000099,-0.00000238,0.00000241,0.00000167,-0.00000066,0.00000073,0.0
 0000104,0.00000016,0.00000033,0.00000053,0.00006225,0.00005263,0.00003
 119,0.00016977,0.00011022,0.00004342,-0.00001127,0.00001716,0.00000943
 ,-0.00000491,0.00003770,0.00005707,0.00000206,-0.00000168,-0.00000043,
 0.00004437,-0.00005339,-0.00003203,-0.00000580,0.00007179,0.00000795,-
 0.00001250,0.00000893,-0.00002037,0.00000056,-0.00000681,0.00000383,-0
 .00000177,0.00000546,0.00000327,-0.00000308,-0.00000032,-0.00000192,-0
 .00000051,-0.00000136,-0.00000161,-0.00000330,-0.00000238,-0.00000033,
 -0.00009204,0.00034228,0.00005430,-0.00006118,-0.00004046,0.00001237,0
 .00198166,-0.00067846,-0.00147464,0.00001311,0.00004987,0.00003032,-0.
 00013686,0.00036337,0.00010410,-0.02714954,-0.00812136,0.01123880,-0.0
 6278545,-0.06426660,0.02264967,-0.00389290,-0.00217163,0.00135293,0.07
 285844,0.06981993,-0.00001396,0.00000246,0.00000147,0.00000911,0.00000
 618,0.00000440,0.00000535,-0.00000053,-0.00002666,-0.00001032,0.000023
 41,0.00001076,0.00000188,-0.00000213,0.00000096,0.00001477,-0.00000440
 ,0.00001637,-0.00000215,0.00000175,0.00000118,-0.00000052,0.00000082,-
 0.00000032,0.00000019,-0.00000044,0.00000067,0.00000020,0.00000043,-0.
 00000041,0.00000283,0.00000035,-0.00000187,-0.00002756,-0.00001425,0.0
 0001172,0.00001246,-0.00000082,-0.00000093,-0.00001997,0.00003828,-0.0
 0000089,0.00000789,0.00000409,0.00000192,0.00010461,-0.00003927,0.0000
 0848,-0.00000053,0.00003424,0.00002194,-0.00000525,-0.00001258,0.00000
 857,-0.00000152,0.00000131,-0.00000182,0.00000182,0.00000227,-0.000005
 72,0.00000019,-0.00000017,0.00000140,0.00000054,0.00000082,0.00000112,
 0.00000299,0.00000221,0.00000086,-0.00014485,0.00017053,0.00022520,-0.
 00002915,-0.00001277,-0.00000875,0.00108742,-0.00040297,-0.00098807,-0
 .00008330,-0.00029424,0.00027008,0.00006313,0.00051112,-0.00025743,-0.
 01689161,-0.00364912,0.00425468,0.08712305,0.02569372,-0.07895030,0.02
 848027,0.00738508,-0.00724195,-0.09117174,-0.02306275,0.08085948,-0.00
 010382,-0.00011254,-0.00008380,-0.00002210,-0.00000995,0.00000360,0.00
 002461,0.00006928,0.00006131,-0.00041509,-0.00038632,-0.00017938,0.000
 00690,0.00000676,-0.00000024,0.00002365,-0.00002063,-0.00001497,-0.000
 01429,0.00004265,0.00001785,-0.00000829,0.00000310,0.00000404,0.000003
 88,-0.00000973,0.00000134,0.00000695,-0.00000290,-0.00000119,0.0002600
 9,0.00012326,0.00003446,0.00064927,0.00020110,0.00014828,0.00010240,0.
 00002302,0.00002764,0.00004615,0.00000606,-0.00002476,0.00000038,0.000
 00057,0.00000566,-0.00003478,-0.00000622,0.00001318,0.00000518,0.00000
 146,0.00000282,-0.00002679,0.00002334,-0.00000307,0.00000056,-0.000003
 85,0.00000791,0.00000688,-0.00000034,-0.00000688,-0.00000210,-0.000000
 96,0.00000233,-0.00000041,0.00000313,0.00000174,0.00000428,0.00000403,
 0.00000038,-0.00000406,-0.00008108,0.00010692,-0.00000815,-0.00000817,
 0.00000882,-0.00057626,-0.00177512,-0.00008117,0.00003609,0.00028122,0
 .00005020,-0.00119393,-0.00111085,0.00074383,0.00907815,-0.00708433,0.
 00725778,-0.15734972,0.12694513,-0.03135990,-0.00084508,-0.00019836,0.
 00043623,-0.01541976,0.02152295,-0.00638033,0.16768745,-0.00010342,-0.
 00000750,-0.00001788,0.00003380,-0.00002754,-0.00001157,-0.00002596,0.
 00003714,0.00001820,-0.00033340,-0.00013301,-0.00005868,0.00001015,0.0
 0000093,-0.00000082,-0.00000109,-0.00004110,-0.00002672,-0.00001480,0.
 00003995,0.00001976,-0.00000456,0.00000241,-0.00000033,0.00000636,-0.0
 0000998,0.00000124,0.00000559,-0.00000357,-0.00000160,0.00015841,0.000
 03904,-0.00000168,0.00038603,-0.00005155,0.00003729,0.00010195,-0.0000
 0343,0.00001087,-0.00000051,0.00003141,0.00001686,0.00001867,0.0000126
 1,0.00000886,0.00021211,0.00004124,0.00003838,0.00000100,0.00000259,-0
 .00001681,-0.00001571,-0.00000241,0.00001592,-0.00000130,0.00000065,0.
 00000420,0.00000888,0.00000157,-0.00002137,0.00000017,-0.00000136,0.00
 000477,0.00000021,0.00000368,0.00000353,0.00001145,0.00000735,0.000001
 62,-0.00033190,0.00034413,0.00005294,-0.00001539,-0.00002518,0.0000091
 6,0.00030221,-0.00097726,0.00008315,0.00001872,0.00018400,0.00000784,-
 0.00128800,0.00001346,0.00059154,0.02103832,-0.01920508,0.00688255,0.1
 2848903,-0.19730998,0.03606862,0.00251721,-0.00297528,0.00063469,-0.00
 601633,0.00833419,-0.00224748,-0.13977750,0.21120288,0.00005603,-0.000
 00330,0.00000962,-0.00003356,-0.00000813,-0.00001688,0.00000750,0.0000
 2080,0.00004272,0.00002888,-0.00001531,0.00001075,-0.00000648,-0.00000
 034,0.00000080,-0.00000043,-0.00002875,-0.00000003,0.00001077,-0.00000
 333,0.00000777,0.00000163,-0.00000274,0.00000158,-0.00000449,0.0000027
 4,-0.00000275,0.00000004,0.00000089,0.00000023,-0.00003339,-0.00002672
 ,0.00000847,0.00000426,0.00000505,-0.00022570,-0.00004370,0.00000156,-
 0.00000919,0.00002623,-0.00002854,-0.00000958,-0.00001486,-0.00001146,
 -0.00000300,-0.00013654,-0.00000162,-0.00003636,0.00000887,-0.00000467
 ,-0.00000859,-0.00000409,0.00001741,-0.00000601,0.00000362,-0.00000529
 ,0.00000073,-0.00000222,-0.00000079,0.00000571,-0.00000185,0.00000064,
 -0.00000137,-0.00000124,-0.00000304,-0.00000207,-0.00000507,-0.0000030
 4,-0.00000118,0.00016998,-0.00024166,0.00002122,-0.00001192,0.00000089
 ,0.00000446,-0.00066218,0.00088080,0.00026678,-0.00014562,0.00007201,0
 .00003266,0.00070975,0.00003999,0.00030202,0.01392804,-0.01334067,0.00
 322510,-0.02939694,0.03382563,-0.04819785,-0.02066801,0.02481451,-0.00
 435662,0.00605826,-0.00906942,0.00147852,0.03263317,-0.03670731,0.0527
 3103,0.00247831,-0.00151092,-0.00062576,-0.00167939,0.00101994,0.00063
 701,0.00161280,0.00030749,0.00097862,0.00110268,-0.00282424,-0.0005934
 0,-0.00019860,0.00000831,0.00005631,0.00059636,-0.00022777,0.00135346,
 0.00024785,-0.00067145,-0.00029231,0.00004044,0.00001938,0.00003705,-0
 .00011906,0.00019730,-0.00000723,-0.00009345,0.00006233,0.00004070,-0.
 00104972,0.00066880,0.00066292,-0.00021047,0.00197407,-0.00054149,-0.0
 0221982,0.00048424,-0.00003494,-0.00002459,0.00085877,0.00062965,-0.00
 020732,-0.00032743,-0.00007782,-0.00031165,0.00024613,-0.00047123,-0.0
 0095056,-0.00015060,0.00048677,-0.00010507,0.00057827,-0.00045871,0.00
 023926,-0.00049271,-0.00000935,-0.00009989,-0.00001913,0.00020263,-0.0
 0007631,0.00001354,-0.00012959,-0.00010553,-0.00012382,-0.00013054,-0.
 00023905,-0.00015744,-0.00002343,-0.03252743,0.01769901,0.03806464,-0.
 00700568,-0.00514588,-0.00029805,-0.08484028,0.01758820,0.04071369,0.0
 0272869,-0.00215495,0.00706182,-0.00753188,0.00582210,0.01112332,-0.17
 664689,-0.10506469,0.00401679,-0.01437197,-0.01652047,0.00838869,-0.00
 072599,0.00092535,0.00001928,0.00007282,-0.00388700,-0.00187652,-0.002
 11690,-0.00229761,-0.00008376,0.39750823,0.00060209,-0.00103328,-0.000
 61329,-0.00064029,0.00040725,-0.00007620,0.00034988,0.00035956,0.00042
 047,-0.00115323,-0.00222301,-0.00080906,-0.00005616,0.00002105,0.00004
 400,0.00023854,-0.00034561,0.00011567,0.00006222,-0.00015285,-0.000072
 69,-0.00001035,0.00002346,0.00002772,-0.00003913,0.00005052,0.00000417
 ,-0.00001572,0.00001581,0.00001034,0.00040335,0.00062407,0.00034801,0.
 00134472,0.00094230,0.00107358,-0.00045324,0.00026957,0.00010351,-0.00
 026091,0.00112481,0.00055135,0.00002988,-0.00004176,-0.00005035,-0.000
 97209,-0.00252915,-0.00000859,-0.00172738,0.00020082,0.00097511,-0.000
 29143,0.00004175,-0.00016668,0.00006142,-0.00018663,0.00004153,-0.0000
 4444,0.00007347,0.00005913,-0.00006340,-0.00000977,-0.00004507,-0.0000
 2355,-0.00003385,-0.00003744,-0.00008219,-0.00005206,-0.00000266,-0.00
 426914,0.00987966,0.01243056,-0.00360318,-0.00085913,-0.00073237,0.005
 16619,-0.10081927,-0.04073965,-0.00452696,0.00488847,0.00181037,0.0200
 8999,-0.00602793,-0.03198543,-0.07055730,-0.13942049,-0.02913647,-0.03
 347248,-0.00595905,0.00354310,-0.00125071,-0.00087298,-0.00086839,-0.0
 0175566,-0.00520698,-0.00444988,0.00136959,0.00131727,0.00104686,0.087
 68332,0.21632895,-0.00085151,0.00012385,-0.00002561,0.00028669,0.00035
 811,0.00029943,-0.00062601,-0.00031890,-0.00091770,-0.00099313,0.00038
 097,0.00011918,0.00014176,-0.00003866,-0.00002662,0.00036209,-0.000287
 61,0.00076967,-0.00011645,0.00015287,0.00005147,-0.00000907,0.00001354
 ,-0.00001104,0.00003397,-0.00005194,0.00001202,0.00000964,-0.00000486,
 -0.00001010,0.00044480,0.00028774,-0.00004158,0.00052186,-0.00054676,0
 .00076787,0.00061148,-0.00002159,0.00008317,-0.00009691,-0.00022730,-0
 .00019454,0.00014409,0.00017345,-0.00001946,0.00000377,-0.00143800,0.0
 0136124,-0.00030588,-0.00006197,0.00002968,0.00014362,-0.00024667,0.00
 020263,-0.00005984,0.00021234,-0.00003496,0.00007772,0.00004211,-0.000
 17674,0.00003380,0.00000125,0.00005080,0.00003798,0.00005280,0.0000520
 0,0.00011239,0.00006819,0.00003714,0.01113682,-0.00046798,-0.00512374,
 -0.00000617,0.00109374,-0.00009297,0.03119378,-0.05226353,-0.13099235,
 0.02719269,-0.01604865,-0.03280901,0.00705558,-0.00643571,-0.00825363,
 0.03451891,-0.00367731,-0.07666957,-0.00506383,-0.00794478,0.01325148,
 0.00163454,0.00256266,0.00084648,-0.00017130,-0.00299412,0.00001444,-0
 .00053876,-0.00174388,-0.00096432,-0.17723512,0.07886919,0.26782655,0.
 00110859,-0.00060389,-0.00024838,-0.00067273,0.00045462,0.00015578,0.0
 0041986,0.00003565,0.00018331,0.00085629,-0.00104193,-0.00024595,-0.00
 008818,0.00000879,0.00002257,0.00044760,-0.00015190,0.00049360,0.00011
 970,-0.00029303,-0.00012815,0.00002169,0.00000754,0.00001177,-0.000050
 62,0.00008674,-0.00000460,-0.00004337,0.00002604,0.00001869,-0.0006008
 5,0.00022000,0.00029175,-0.00036167,0.00080035,-0.00021817,-0.00099615
 ,0.00019743,-0.00001307,-0.00000418,0.00006392,0.00029967,-0.00012805,
 -0.00012612,-0.00007964,-0.00049148,0.00009070,-0.00063382,0.00021354,
 0.00037673,0.00003245,0.00004121,0.00016974,-0.00023548,0.00004493,-0.
 00012785,0.00001706,-0.00008364,0.00000711,0.00018362,-0.00002981,0.00
 000785,-0.00006196,-0.00002028,-0.00004994,-0.00005269,-0.00012786,-0.
 00008576,-0.00001949,0.00023423,0.00229074,0.00313875,-0.00132135,-0.0
 0069680,-0.00016465,0.00467216,-0.00855217,-0.00675635,-0.00234595,0.0
 0067629,0.00306456,-0.00107434,0.00034127,0.00116275,-0.23354587,0.134
 66215,0.23534599,0.01303599,-0.00193900,0.00770315,0.00116249,0.001003
 07,-0.00129540,0.00207294,0.00150118,-0.00025942,0.00019867,-0.0030928
 0,-0.00239064,-0.07316990,0.00786778,0.07037600,0.29050634,-0.00025987
 ,-0.00015416,-0.00009779,0.00006813,-0.00004285,-0.00003928,-0.0000260
 6,0.00011009,0.00001825,-0.00066057,-0.00034012,-0.00014841,0.00003604
 ,-0.00000028,0.00000222,-0.00010074,-0.00001673,-0.00015607,-0.0000235
 8,0.00004112,0.00001101,-0.00001409,0.00000338,0.00001020,0.00000037,-
 0.00001359,0.00000213,0.00000981,-0.00000111,-0.00000461,0.00037452,0.
 00016469,0.00005052,0.00053887,0.00023947,0.00017434,0.00025770,0.0000
 3554,0.00004300,-0.00001973,0.00001914,-0.00007491,0.00005552,0.000044
 52,0.00002018,0.00038477,-0.00001550,0.00004365,0.00001373,-0.00014978
 ,-0.00003688,-0.00000984,-0.00003174,0.00006779,-0.00000253,0.00002179
 ,0.00001128,0.00002135,-0.00000080,-0.00005767,-0.00000031,-0.00000315
 ,0.00001205,0.00000575,0.00001706,0.00001579,0.00003063,0.00001770,0.0
 0000681,-0.00063145,0.00023782,0.00029580,-0.00002016,-0.00005462,-0.0
 0003759,-0.00467771,0.00280505,-0.00060221,0.00092423,-0.00047003,-0.0
 0037014,-0.00067102,0.00042091,0.00057976,0.11909899,-0.21557721,-0.21
 182734,0.01357367,-0.00923963,-0.04200465,-0.00102070,-0.00726092,-0.0
 0322502,0.00149707,0.00155902,0.00031473,-0.00003780,-0.00084228,-0.00
 122366,0.00541955,0.02920500,0.01042742,-0.13413450,0.19927220,-0.0010
 3155,0.00036434,0.00011120,0.00060119,-0.00035969,-0.00007919,-0.00027
 795,0.00004473,-0.00029372,-0.00108734,0.00051549,0.00001266,0.0001218
 1,0.00000118,-0.00002466,-0.00027259,0.00008981,-0.00058299,-0.0001079
 9,0.00023786,0.00008077,-0.00002282,-0.00000051,-0.00000399,0.00004141
 ,-0.00007378,0.00000609,0.00003358,-0.00002010,-0.00001557,0.00067801,
 0.00000019,-0.00013984,0.00065781,-0.00042835,0.00040718,0.00092823,-0
 .00011871,0.00005915,-0.00002378,-0.00007610,-0.00026888,0.00014048,0.
 00014429,0.00005653,0.00062537,-0.00003329,0.00063682,-0.00017783,-0.0
 0037879,-0.00012389,0.00000483,-0.00015694,0.00023140,-0.00004868,0.00
 011527,-0.00000615,0.00007152,-0.00000882,-0.00017256,0.00002852,-0.00
 000925,0.00004983,0.00002256,0.00005607,0.00004753,0.00011195,0.000074
 31,0.00002406,-0.00005167,-0.00207296,-0.00271192,0.00116087,0.0006735
 1,-0.00000619,-0.00250613,0.00283462,0.01211702,0.00084953,-0.00005462
 ,-0.00130084,0.00076524,-0.00005625,-0.00136225,0.22172723,-0.22364858
 ,-0.43351453,0.02139377,-0.03030302,-0.01378541,0.00003171,-0.00092265
 ,0.00002850,-0.00021451,0.00110778,0.00029089,-0.00289503,-0.00365589,
 -0.00430869,0.06841589,0.00831956,-0.02941128,-0.30969358,0.24779929,0
 .47395288\\-0.00000151,-0.00000337,-0.00000091,-0.00000019,-0.00000447
 ,0.00000030,0.00000043,-0.00000254,-0.00000096,-0.00000244,-0.00000115
 ,-0.00000315,0.00000118,-0.00000574,0.00000143,0.00000060,-0.00000253,
 -0.00000011,-0.00000335,0.00000057,-0.00000589,-0.00000371,0.00000090,
 -0.00000695,-0.00000327,-0.00000384,-0.00000751,-0.00000236,-0.0000005
 0,-0.00000571,-0.00000044,-0.00000387,-0.00000552,-0.00000145,0.000000
 93,-0.00000472,-0.00000024,-0.00000566,-0.00000250,0.00000271,-0.00000
 069,0.00000505,0.00000343,-0.00000162,0.00000707,0.00000176,0.00000160
 ,0.00000382,0.00000251,0.00000157,0.00000553,0.00000179,0.00000025,0.0
 0000348,0.00000080,-0.00000027,0.00000166,0.00000141,-0.00000356,0.000
 00479,0.00000180,-0.00000481,0.00000275,0.00000313,-0.00000463,0.00000
 609,0.00000274,-0.00000170,0.00000480,0.00000121,0.00000217,0.00000154
 ,-0.00000025,0.00000281,0.00000119,-0.00000027,0.00000342,0.00000029,0
 .00000006,0.00000624,0.00000124,-0.00000109,0.00000401,-0.00000161,-0.
 00000034,0.00000288,-0.00000036,-0.00000018,0.00000502,-0.00000116,-0.
 00000163,0.00000716,-0.00000182,-0.00000154,0.00000386,-0.00000277,-0.
 00000196,0.00000351,-0.00000338,0.00000020,0.00000208,0.00000168,0.000
 00048,0.00000196,0.00000232\\\@


  ON THE CHOICE OF THE CORRECT LANGUAGE -
 I SPEAK SPANISH TO GOD, ITALIAN TO WOMEN,
 FRENCH TO MEN, AND GERMAN TO MY HORSE.
          -- CHARLES V
 Job cpu time:       0 days  3 hours 43 minutes 44.1 seconds.
 File lengths (MBytes):  RWF=    658 Int=      0 D2E=      0 Chk=     20 Scr=      1
 Normal termination of Gaussian 09 at Fri Aug 28 01:42:46 2020.
