 Entering Gaussian System, Link 0=g09
 Input=dmad_water_ma.com
 Output=dmad_water_ma.log
 Initial command:
 /apps/applications/gaussian/G09.D01/2/default/g09/l1.exe "/nobackup/pmmass/Temp/Gau-63386.inp" -scrdir="/nobackup/pmmass/Temp/"
 Entering Link 1 = /apps/applications/gaussian/G09.D01/2/default/g09/l1.exe PID=     63387.
  
 Copyright (c) 1988,1990,1992,1993,1995,1998,2003,2009,2013,
            Gaussian, Inc.  All Rights Reserved.
  
 This is part of the Gaussian(R) 09 program.  It is based on
 the Gaussian(R) 03 system (copyright 2003, Gaussian, Inc.),
 the Gaussian(R) 98 system (copyright 1998, Gaussian, Inc.),
 the Gaussian(R) 94 system (copyright 1995, Gaussian, Inc.),
 the Gaussian 92(TM) system (copyright 1992, Gaussian, Inc.),
 the Gaussian 90(TM) system (copyright 1990, Gaussian, Inc.),
 the Gaussian 88(TM) system (copyright 1988, Gaussian, Inc.),
 the Gaussian 86(TM) system (copyright 1986, Carnegie Mellon
 University), and the Gaussian 82(TM) system (copyright 1983,
 Carnegie Mellon University). Gaussian is a federally registered
 trademark of Gaussian, Inc.
  
 This software contains proprietary and confidential information,
 including trade secrets, belonging to Gaussian, Inc.
  
 This software is provided under written license and may be
 used, copied, transmitted, or stored only in accord with that
 written license.
  
 The following legend is applicable only to US Government
 contracts under FAR:
  
                    RESTRICTED RIGHTS LEGEND
  
 Use, reproduction and disclosure by the US Government is
 subject to restrictions as set forth in subparagraphs (a)
 and (c) of the Commercial Computer Software - Restricted
 Rights clause in FAR 52.227-19.
  
 Gaussian, Inc.
 340 Quinnipiac St., Bldg. 40, Wallingford CT 06492
  
  
 ---------------------------------------------------------------
 Warning -- This program may not be used in any manner that
 competes with the business of Gaussian, Inc. or will provide
 assistance to any competitor of Gaussian, Inc.  The licensee
 of this program is prohibited from giving any competitor of
 Gaussian, Inc. access to this program.  By using this program,
 the user acknowledges that Gaussian, Inc. is engaged in the
 business of creating and licensing software in the field of
 computational chemistry and represents and warrants to the
 licensee that it is not a competitor of Gaussian, Inc. and that
 it will not use this program in any manner prohibited above.
 ---------------------------------------------------------------
  

 Cite this work as:
 Gaussian 09, Revision D.01,
 M. J. Frisch, G. W. Trucks, H. B. Schlegel, G. E. Scuseria, 
 M. A. Robb, J. R. Cheeseman, G. Scalmani, V. Barone, B. Mennucci, 
 G. A. Petersson, H. Nakatsuji, M. Caricato, X. Li, H. P. Hratchian, 
 A. F. Izmaylov, J. Bloino, G. Zheng, J. L. Sonnenberg, M. Hada, 
 M. Ehara, K. Toyota, R. Fukuda, J. Hasegawa, M. Ishida, T. Nakajima, 
 Y. Honda, O. Kitao, H. Nakai, T. Vreven, J. A. Montgomery, Jr., 
 J. E. Peralta, F. Ogliaro, M. Bearpark, J. J. Heyd, E. Brothers, 
 K. N. Kudin, V. N. Staroverov, T. Keith, R. Kobayashi, J. Normand, 
 K. Raghavachari, A. Rendell, J. C. Burant, S. S. Iyengar, J. Tomasi, 
 M. Cossi, N. Rega, J. M. Millam, M. Klene, J. E. Knox, J. B. Cross, 
 V. Bakken, C. Adamo, J. Jaramillo, R. Gomperts, R. E. Stratmann, 
 O. Yazyev, A. J. Austin, R. Cammi, C. Pomelli, J. W. Ochterski, 
 R. L. Martin, K. Morokuma, V. G. Zakrzewski, G. A. Voth, 
 P. Salvador, J. J. Dannenberg, S. Dapprich, A. D. Daniels, 
 O. Farkas, J. B. Foresman, J. V. Ortiz, J. Cioslowski, 
 and D. J. Fox, Gaussian, Inc., Wallingford CT, 2013.
 
 ******************************************
 Gaussian 09:  ES64L-G09RevD.01 24-Apr-2013
                 9-Feb-2022 
 ******************************************
 %nprocshared=8
 Will use up to    8 processors via shared memory.
 %mem=4GB
 %NoSave
 %chk="dmad_water_ma.chk"
 -------------------------------------------
 #n wB97XD/Gen scrf(smd,solvent=toluene) opt
 -------------------------------------------
 1/14=-1,18=20,19=15,26=3,38=1/1,3;
 2/9=110,12=2,17=6,18=5,40=1/2;
 3/5=7,11=2,16=1,25=1,30=1,70=32201,71=1,72=13,74=-58/1,2,3;
 4//1;
 5/5=2,38=5,53=13/2;
 6/7=2,8=2,9=2,10=2,28=1/1;
 7//1,2,3,16;
 1/14=-1,18=20,19=15,26=3/3(2);
 2/9=110/2;
 99//99;
 2/9=110/2;
 3/5=7,6=1,11=2,16=1,25=1,30=1,70=32205,71=1,72=13,74=-58,82=7/1,2,3;
 4/5=5,16=3,69=1/1;
 5/5=2,38=5,53=13/2;
 7//1,2,3,16;
 1/14=-1,18=20,19=15,26=3/3(-5);
 2/9=110/2;
 6/7=2,8=2,9=2,10=2,19=2,28=1/1;
 99/9=1/99;
 -------------------------------------------
 dmad cycloaddition toluene with water - opt
 -------------------------------------------
 Symbolic Z-matrix:
 Charge =  0 Multiplicity = 1
 N                     0.18967  -0.78997   0.85809 
 N                     0.45113  -0.66139  -0.33307 
 C                    -1.22906  -0.89048   1.10469 
 C                     1.90058  -0.48048  -0.54274 
 O                     2.71503  -0.37358   0.33164 
 O                    -1.84757   0.06321   1.50237 
 O                     2.10739  -0.50274  -1.83397 
 O                    -1.6489   -2.11505   0.93431 
 C                    -3.06374  -2.32773   1.15895 
 H                    -3.22233  -3.39169   0.99591 
 H                    -3.32235  -2.05059   2.18205 
 H                    -3.63344  -1.73609   0.44136 
 C                     3.46984  -0.26747  -2.24501 
 H                     3.79122   0.71539  -1.89609 
 H                     4.1216   -1.04463  -1.84193 
 H                     3.45531  -0.30383  -3.33247 
 O                    -1.80216   2.24312  -0.34491 
 H                    -1.91568   1.73621   0.47527 
 H                    -2.34257   3.03632  -0.25528 
 O                    -2.23757  -0.29316  -1.79528 
 H                    -2.22572   0.63516  -1.51748 
 H                    -1.30461  -0.54409  -1.79478 
 O                     1.13325   2.20724  -0.47375 
 H                     1.32609   2.23157   0.47837 
 H                     0.17736   2.354    -0.53828 
 O                     1.83984   1.59687   2.2731 
 H                     2.14824   0.75886   1.89298 
 H                     1.12752   1.35341   2.8748 
 
 Add virtual bond connecting atoms H18        and O6         Dist= 3.71D+00.
 Add virtual bond connecting atoms O26        and H24        Dist= 3.73D+00.
 Add virtual bond connecting atoms H25        and O17        Dist= 3.76D+00.
 Add virtual bond connecting atoms H27        and O5         Dist= 3.80D+00.
 Add virtual bond connecting atoms H21        and O17        Dist= 3.84D+00.

 GradGradGradGradGradGradGradGradGradGradGradGradGradGradGradGradGradGrad
 Berny optimization.
 Initialization pass.
                           ----------------------------
                           !    Initial Parameters    !
                           ! (Angstroms and Degrees)  !
 --------------------------                            --------------------------
 ! Name  Definition              Value          Derivative Info.                !
 --------------------------------------------------------------------------------
 ! R1    R(1,2)                  1.2263         estimate D2E/DX2                !
 ! R2    R(1,3)                  1.4435         estimate D2E/DX2                !
 ! R3    R(2,4)                  1.4757         estimate D2E/DX2                !
 ! R4    R(3,6)                  1.2043         estimate D2E/DX2                !
 ! R5    R(3,8)                  1.3057         estimate D2E/DX2                !
 ! R6    R(4,5)                  1.1997         estimate D2E/DX2                !
 ! R7    R(4,7)                  1.3079         estimate D2E/DX2                !
 ! R8    R(5,27)                 2.0103         estimate D2E/DX2                !
 ! R9    R(6,18)                 1.9643         estimate D2E/DX2                !
 ! R10   R(7,13)                 1.4424         estimate D2E/DX2                !
 ! R11   R(8,9)                  1.4483         estimate D2E/DX2                !
 ! R12   R(9,10)                 1.088          estimate D2E/DX2                !
 ! R13   R(9,11)                 1.0911         estimate D2E/DX2                !
 ! R14   R(9,12)                 1.0907         estimate D2E/DX2                !
 ! R15   R(13,14)                1.0913         estimate D2E/DX2                !
 ! R16   R(13,15)                1.0914         estimate D2E/DX2                !
 ! R17   R(13,16)                1.0882         estimate D2E/DX2                !
 ! R18   R(17,18)                0.9708         estimate D2E/DX2                !
 ! R19   R(17,19)                0.964          estimate D2E/DX2                !
 ! R20   R(17,21)                2.0347         estimate D2E/DX2                !
 ! R21   R(17,25)                1.992          estimate D2E/DX2                !
 ! R22   R(20,21)                0.9691         estimate D2E/DX2                !
 ! R23   R(20,22)                0.9661         estimate D2E/DX2                !
 ! R24   R(23,24)                0.9718         estimate D2E/DX2                !
 ! R25   R(23,25)                0.9692         estimate D2E/DX2                !
 ! R26   R(24,26)                1.9718         estimate D2E/DX2                !
 ! R27   R(26,27)                0.9705         estimate D2E/DX2                !
 ! R28   R(26,28)                0.9637         estimate D2E/DX2                !
 ! A1    A(2,1,3)              112.5071         estimate D2E/DX2                !
 ! A2    A(1,2,4)              111.1184         estimate D2E/DX2                !
 ! A3    A(1,3,6)              120.4018         estimate D2E/DX2                !
 ! A4    A(1,3,8)              111.0409         estimate D2E/DX2                !
 ! A5    A(6,3,8)              128.365          estimate D2E/DX2                !
 ! A6    A(2,4,5)              125.0423         estimate D2E/DX2                !
 ! A7    A(2,4,7)              107.068          estimate D2E/DX2                !
 ! A8    A(5,4,7)              127.859          estimate D2E/DX2                !
 ! A9    A(4,5,27)             115.1407         estimate D2E/DX2                !
 ! A10   A(3,6,18)             121.3073         estimate D2E/DX2                !
 ! A11   A(4,7,13)             115.3358         estimate D2E/DX2                !
 ! A12   A(3,8,9)              115.5697         estimate D2E/DX2                !
 ! A13   A(8,9,10)             105.234          estimate D2E/DX2                !
 ! A14   A(8,9,11)             109.8587         estimate D2E/DX2                !
 ! A15   A(8,9,12)             109.1824         estimate D2E/DX2                !
 ! A16   A(10,9,11)            110.7546         estimate D2E/DX2                !
 ! A17   A(10,9,12)            110.839          estimate D2E/DX2                !
 ! A18   A(11,9,12)            110.8155         estimate D2E/DX2                !
 ! A19   A(7,13,14)            109.508          estimate D2E/DX2                !
 ! A20   A(7,13,15)            110.0394         estimate D2E/DX2                !
 ! A21   A(7,13,16)            105.4691         estimate D2E/DX2                !
 ! A22   A(14,13,15)           110.3248         estimate D2E/DX2                !
 ! A23   A(14,13,16)           110.7035         estimate D2E/DX2                !
 ! A24   A(15,13,16)           110.6864         estimate D2E/DX2                !
 ! A25   A(18,17,19)           106.5907         estimate D2E/DX2                !
 ! A26   A(18,17,21)            92.8595         estimate D2E/DX2                !
 ! A27   A(18,17,25)           103.1361         estimate D2E/DX2                !
 ! A28   A(19,17,21)           125.9558         estimate D2E/DX2                !
 ! A29   A(19,17,25)           121.3531         estimate D2E/DX2                !
 ! A30   A(21,17,25)           101.2395         estimate D2E/DX2                !
 ! A31   A(6,18,17)            151.931          estimate D2E/DX2                !
 ! A32   A(21,20,22)           103.7009         estimate D2E/DX2                !
 ! A33   A(17,21,20)           157.6388         estimate D2E/DX2                !
 ! A34   A(24,23,25)           104.9012         estimate D2E/DX2                !
 ! A35   A(23,24,26)           159.3042         estimate D2E/DX2                !
 ! A36   A(17,25,23)           164.8271         estimate D2E/DX2                !
 ! A37   A(24,26,27)            90.2429         estimate D2E/DX2                !
 ! A38   A(24,26,28)           117.1962         estimate D2E/DX2                !
 ! A39   A(27,26,28)           105.1466         estimate D2E/DX2                !
 ! A40   A(5,27,26)            151.6665         estimate D2E/DX2                !
 ! D1    D(3,1,2,4)            176.5938         estimate D2E/DX2                !
 ! D2    D(2,1,3,6)           -101.1089         estimate D2E/DX2                !
 ! D3    D(2,1,3,8)             83.521          estimate D2E/DX2                !
 ! D4    D(1,2,4,5)             -5.0779         estimate D2E/DX2                !
 ! D5    D(1,2,4,7)            173.0392         estimate D2E/DX2                !
 ! D6    D(1,3,6,18)            59.1834         estimate D2E/DX2                !
 ! D7    D(8,3,6,18)          -126.3304         estimate D2E/DX2                !
 ! D8    D(1,3,8,9)            179.9316         estimate D2E/DX2                !
 ! D9    D(6,3,8,9)              5.0258         estimate D2E/DX2                !
 ! D10   D(2,4,5,27)           -40.6701         estimate D2E/DX2                !
 ! D11   D(7,4,5,27)           141.6099         estimate D2E/DX2                !
 ! D12   D(2,4,7,13)           176.803          estimate D2E/DX2                !
 ! D13   D(5,4,7,13)            -5.1496         estimate D2E/DX2                !
 ! D14   D(4,5,27,26)          -58.0638         estimate D2E/DX2                !
 ! D15   D(3,6,18,17)           17.1951         estimate D2E/DX2                !
 ! D16   D(4,7,13,14)          -59.8957         estimate D2E/DX2                !
 ! D17   D(4,7,13,15)           61.5349         estimate D2E/DX2                !
 ! D18   D(4,7,13,16)         -179.0527         estimate D2E/DX2                !
 ! D19   D(3,8,9,10)          -178.7351         estimate D2E/DX2                !
 ! D20   D(3,8,9,11)           -59.4698         estimate D2E/DX2                !
 ! D21   D(3,8,9,12)            62.2449         estimate D2E/DX2                !
 ! D22   D(19,17,18,6)         158.5423         estimate D2E/DX2                !
 ! D23   D(21,17,18,6)          29.6165         estimate D2E/DX2                !
 ! D24   D(25,17,18,6)         -72.6263         estimate D2E/DX2                !
 ! D25   D(18,17,21,20)        -36.4688         estimate D2E/DX2                !
 ! D26   D(19,17,21,20)       -149.3867         estimate D2E/DX2                !
 ! D27   D(25,17,21,20)         67.5313         estimate D2E/DX2                !
 ! D28   D(18,17,25,23)         20.1198         estimate D2E/DX2                !
 ! D29   D(19,17,25,23)        139.1669         estimate D2E/DX2                !
 ! D30   D(21,17,25,23)        -75.5391         estimate D2E/DX2                !
 ! D31   D(22,20,21,17)        -54.4107         estimate D2E/DX2                !
 ! D32   D(25,23,24,26)        111.6045         estimate D2E/DX2                !
 ! D33   D(24,23,25,17)        -55.1019         estimate D2E/DX2                !
 ! D34   D(23,24,26,27)         11.5188         estimate D2E/DX2                !
 ! D35   D(23,24,26,28)        -95.6956         estimate D2E/DX2                !
 ! D36   D(24,26,27,5)          16.1496         estimate D2E/DX2                !
 ! D37   D(28,26,27,5)         134.4856         estimate D2E/DX2                !
 --------------------------------------------------------------------------------
 Trust Radius=3.00D-01 FncErr=1.00D-07 GrdErr=1.00D-06
 Number of steps in this run=    115 maximum allowed number of steps=    168.
 GradGradGradGradGradGradGradGradGradGradGradGradGradGradGradGradGradGrad

                          Input orientation:                          
 ---------------------------------------------------------------------
 Center     Atomic      Atomic             Coordinates (Angstroms)
 Number     Number       Type             X           Y           Z
 ---------------------------------------------------------------------
      1          7           0        0.189670   -0.789970    0.858090
      2          7           0        0.451130   -0.661390   -0.333070
      3          6           0       -1.229060   -0.890480    1.104690
      4          6           0        1.900580   -0.480480   -0.542740
      5          8           0        2.715030   -0.373580    0.331640
      6          8           0       -1.847570    0.063210    1.502370
      7          8           0        2.107390   -0.502740   -1.833970
      8          8           0       -1.648900   -2.115050    0.934310
      9          6           0       -3.063740   -2.327730    1.158950
     10          1           0       -3.222330   -3.391690    0.995910
     11          1           0       -3.322350   -2.050590    2.182050
     12          1           0       -3.633440   -1.736090    0.441360
     13          6           0        3.469840   -0.267470   -2.245010
     14          1           0        3.791220    0.715390   -1.896090
     15          1           0        4.121600   -1.044630   -1.841930
     16          1           0        3.455310   -0.303830   -3.332470
     17          8           0       -1.802160    2.243120   -0.344910
     18          1           0       -1.915680    1.736210    0.475270
     19          1           0       -2.342570    3.036320   -0.255280
     20          8           0       -2.237570   -0.293160   -1.795280
     21          1           0       -2.225720    0.635160   -1.517480
     22          1           0       -1.304610   -0.544090   -1.794780
     23          8           0        1.133250    2.207240   -0.473750
     24          1           0        1.326090    2.231570    0.478370
     25          1           0        0.177360    2.354000   -0.538280
     26          8           0        1.839840    1.596870    2.273100
     27          1           0        2.148240    0.758860    1.892980
     28          1           0        1.127520    1.353410    2.874800
 ---------------------------------------------------------------------
                    Distance matrix (angstroms):
                    1          2          3          4          5
     1  N    0.000000
     2  N    1.226277   0.000000
     3  C    1.443506   2.223213   0.000000
     4  C    2.232783   1.475668   3.560445   0.000000
     5  O    2.613039   2.376955   4.052239   1.199707   0.000000
     6  O    2.300730   3.029506   1.204254   4.304266   4.730614
     7  O    3.317731   2.240774   4.462955   1.307876   2.252948
     8  O    2.267595   2.851229   1.305705   4.177595   4.737068
     9  C    3.611080   4.166188   2.331241   5.563502   6.156080
    10  H    4.292981   4.766029   3.200158   6.089893   6.693466
    11  H    3.959333   4.742874   2.624581   6.096616   6.533478
    12  H    3.960426   4.294000   2.633649   5.759374   6.493962
    13  C    4.545520   3.594899   5.804162   2.325010   2.687029
    14  H    4.777319   3.936338   6.065205   2.614609   2.703113
    15  H    4.776508   3.986964   6.110310   2.634215   2.674538
    16  H    5.334935   4.260205   6.478879   3.198591   3.738794
    17  O    3.822856   3.676090   3.499890   4.600806   5.264014
    18  H    3.310685   3.464634   2.786955   4.529227   5.090709
    19  H    4.721475   4.635070   4.302230   5.518590   6.127904
    20  O    3.630246   3.082655   3.127892   4.327613   5.390594
    21  H    3.675383   3.201468   3.193225   4.384190   5.371016
    22  H    3.054677   2.287570   2.921065   3.441641   4.550631
    23  O    3.412830   2.951968   4.203314   2.795960   3.132302
    24  H    3.250437   3.129410   4.082679   2.954305   2.955925
    25  H    3.440138   3.034739   3.899233   3.317195   3.825732
    26  O    3.228362   3.717577   4.119495   3.499718   2.901361
    27  H    2.702937   3.138884   3.840297   2.744090   2.010337
    28  H    3.088812   3.848032   3.704295   3.954789   3.459819
                    6          7          8          9         10
     6  O    0.000000
     7  O    5.205110   0.000000
     8  O    2.259863   4.936865   0.000000
     9  C    2.704367   6.247299   1.448264   0.000000
    10  H    3.752706   6.690304   2.027137   1.088000   0.000000
    11  H    2.665538   6.928660   2.088407   1.091063   1.793176
    12  H    2.748191   6.297254   2.079666   1.090656   1.793753
    13  C    6.513605   1.442420   6.302629   7.649790   8.065324
    14  H    6.615952   2.079178   6.754070   8.098415   8.626799
    15  H    6.931280   2.085845   6.492455   7.891815   8.215554
    16  H    7.185467   2.025329   6.894845   8.171110   8.535844
    17  O    2.857711   5.004161   4.544616   4.974520   5.963704
    18  H    1.964307   5.150784   3.887685   4.277975   5.317307
    19  H    3.489089   5.900792   5.332252   5.594029   6.607478
    20  O    3.339700   4.350184   3.334138   3.680965   4.285018
    21  H    3.096711   4.491194   3.729296   4.079739   4.850349
    22  H    3.396295   3.412476   3.167709   3.873039   4.424300
    23  O    4.169796   3.184829   5.329651   6.391118   7.244239
    24  H    3.977748   3.665214   5.286923   6.365612   7.251002
    25  H    3.675910   3.683041   5.047391   5.941710   6.850152
    26  O    4.067325   4.620386   5.267069   6.378786   7.220977
    27  H    4.074678   3.934903   4.857641   6.101686   6.846519
    28  H    3.521270   5.155381   4.848116   5.836231   6.705773
                   11         12         13         14         15
    11  H    0.000000
    12  H    1.796020   0.000000
    13  C    8.301339   7.734986   0.000000
    14  H    8.653597   8.160821   1.091350   0.000000
    15  H    8.521547   8.113703   1.091440   1.791579   0.000000
    16  H    8.910543   8.157422   1.088165   1.792995   1.792885
    17  O    5.208882   4.450384   6.140637   6.002168   6.938393
    18  H    4.385393   3.874108   6.357553   6.263715   7.039264
    19  H    5.725138   4.992750   6.975540   6.760352   7.807503
    20  O    4.481569   3.005505   5.725159   6.113399   6.403587
    21  H    4.701316   3.382537   5.812353   6.029374   6.573845
    22  H    4.707015   3.441604   4.803603   5.250146   5.449451
    23  O    6.710794   6.253688   3.836822   3.363551   4.623506
    24  H    6.545794   6.351428   4.272899   3.743491   4.892050
    25  H    6.248886   5.675450   4.541526   4.193885   5.367236
    26  O    6.321429   6.664885   5.152279   4.686900   5.396056
    27  H    6.156616   6.462182   4.463512   4.130172   4.593069
    28  H    5.645216   6.175223   5.858854   5.501251   6.079692
                   16         17         18         19         20
    16  H    0.000000
    17  O    6.561514   0.000000
    18  H    6.892618   0.970845   0.000000
    19  H    7.364857   0.963972   1.551201   0.000000
    20  O    5.896775   2.953959   3.062246   3.669886   0.000000
    21  H    6.037383   2.034664   2.297714   2.715211   0.969067
    22  H    5.007899   3.180915   3.275103   4.033207   0.966116
    23  O    4.457546   2.938455   3.227767   3.580004   4.400099
    24  H    5.048201   3.234791   3.279400   3.826870   4.923761
    25  H    5.061276   1.992031   2.406193   2.625966   3.797287
    26  O    6.135537   4.531642   4.165998   5.094828   6.062112
    27  H    5.490270   4.776698   4.413679   5.474415   5.826263
    28  H    6.833392   4.443100   3.894271   4.967002   5.987042
                   21         22         23         24         25
    21  H    0.000000
    22  H    1.521831   0.000000
    23  O    3.852725   3.906162   0.000000
    24  H    4.375762   4.448829   0.971757   0.000000
    25  H    3.112561   3.489119   0.969241   1.538878   0.000000
    26  O    5.641113   5.569463   2.901208   1.971760   3.352752
    27  H    5.547798   5.217224   2.954559   2.201347   3.512814
    28  H    5.572452   5.596494   3.455698   2.559975   3.681453
                   26         27         28
    26  O    0.000000
    27  H    0.970496   0.000000
    28  H    0.963699   1.536011   0.000000
 Stoichiometry    C4H14N2O8
 Framework group  C1[X(C4H14N2O8)]
 Deg. of freedom    78
 Full point group                 C1      NOp   1
 Largest Abelian subgroup         C1      NOp   1
 Largest concise Abelian subgroup C1      NOp   1
                         Standard orientation:                         
 ---------------------------------------------------------------------
 Center     Atomic      Atomic             Coordinates (Angstroms)
 Number     Number       Type             X           Y           Z
 ---------------------------------------------------------------------
      1          7           0        0.317062   -0.312744   -1.010657
      2          7           0       -0.290820   -0.725897   -0.029056
      3          6           0        1.729833   -0.155170   -0.759745
      4          6           0       -1.740801   -0.798576   -0.293379
      5          8           0       -2.278354   -0.416171   -1.295427
      6          8           0        2.191501    0.934655   -0.537543
      7          8           0       -2.290287   -1.384291    0.738873
      8          8           0        2.361912   -1.287700   -0.910474
      9          6           0        3.791403   -1.240847   -0.682819
     10          1           0        4.144558   -2.252113   -0.873520
     11          1           0        4.253615   -0.533328   -1.372889
     12          1           0        3.980228   -0.952610    0.351974
     13          6           0       -3.728687   -1.484095    0.698612
     14          1           0       -4.161960   -0.484029    0.642160
     15          1           0       -4.038280   -2.080480   -0.161457
     16          1           0       -4.011750   -1.974079    1.628071
     17          8           0        1.115828    2.114891    1.832369
     18          1           0        1.571362    2.015667    0.980792
     19          1           0        1.456311    2.922246    2.234228
     20          8           0        1.713101   -0.737789    2.313362
     21          1           0        1.560707    0.214581    2.407488
     22          1           0        0.904609   -1.058429    1.892754
     23          8           0       -1.642616    1.730042    0.895673
     24          1           0       -1.560570    2.133987    0.015668
     25          1           0       -0.806150    1.932149    1.341661
     26          8           0       -1.384899    2.266985   -1.943742
     27          1           0       -1.580479    1.320292   -2.029675
     28          1           0       -0.495865    2.373792   -2.300011
 ---------------------------------------------------------------------
 Rotational constants (GHZ):      0.6994258      0.3784027      0.3626514
 General basis read from cards:  (5D, 7F)
 There are   644 symmetry adapted cartesian basis functions of A   symmetry.
 There are   574 symmetry adapted basis functions of A   symmetry.
   574 basis functions,   882 primitive gaussians,   644 cartesian basis functions
    58 alpha electrons       58 beta electrons
       nuclear repulsion energy      1047.3698263606 Hartrees.
 NAtoms=   28 NActive=   28 NUniq=   28 SFac= 1.00D+00 NAtFMM=   60 NAOKFM=F Big=F
 Integral buffers will be    131072 words long.
 Raffenetti 2 integral format.
 Two-electron integral symmetry is turned on.
 Nuclear repulsion after empirical dispersion term =     1047.3533847131 Hartrees.
 ------------------------------------------------------------------------------
 Polarizable Continuum Model (PCM)
 =================================
 Model                : PCM (using non-symmetric T matrix).
 Atomic radii         : SMD-Coulomb.
 Polarization charges : Total charges.
 Charge compensation  : None.
 Solution method      : On-the-fly selection.
 Cavity type          : VdW (van der Waals Surface) (Alpha=1.000).
 Cavity algorithm     : GePol (No added spheres)
                        Default sphere list used, NSphG=   28.
                        Lebedev-Laikov grids with approx.  5.0 points / Ang**2.
                        Smoothing algorithm: Karplus/York (Gamma=1.0000).
                        Polarization charges: spherical gaussians, with
                                              point-specific exponents (IZeta= 3).
                        Self-potential: point-specific (ISelfS= 7).
                        Self-field    : sphere-specific E.n sum rule (ISelfD= 2).
 1st derivatives      : Analytical E(r).r(x)/FMM algorithm (CHGder, D1EAlg=3).
                        Cavity 1st derivative terms included.
 Solvent              : Toluene, Eps=   2.374100 Eps(inf)=   2.238315
 ------------------------------------------------------------------------------
 ------------------------------------------------------------------------------
 Atomic radii for non-electrostatic terms: SMD-CDS.
 ------------------------------------------------------------------------------
 Nuclear repulsion after PCM non-electrostatic terms =     1047.3495423336 Hartrees.
 One-electron integrals computed using PRISM.
 NBasis=   574 RedAO= T EigKep=  1.54D-06  NBF=   574
 NBsUse=   574 1.00D-06 EigRej= -1.00D+00 NBFU=   574
 ExpMin= 3.17D-02 ExpMax= 2.70D+04 ExpMxC= 9.22D+02 IAcc=3 IRadAn=         5 AccDes= 0.00D+00
 Harris functional with IExCor= 4639 and IRadAn=       5 diagonalized for initial guess.
 HarFok:  IExCor= 4639 AccDes= 0.00D+00 IRadAn=         5 IDoV= 1 UseB2=F ITyADJ=14
 ICtDFT=  3500011 ScaDFX=  1.000000  1.000000  1.000000  1.000000
 FoFCou: FMM=F IPFlag=           0 FMFlag=      100000 FMFlg1=           0
         NFxFlg=           0 DoJE=T BraDBF=F KetDBF=T FulRan=T
         wScrn=  0.000000 ICntrl=     500 IOpCl=  0 I1Cent=   200000004 NGrid=           0
         NMat0=    1 NMatS0=      1 NMatT0=    0 NMatD0=    1 NMtDS0=    0 NMtDT0=    0
 Petite list used in FoFCou.
 Requested convergence on RMS density matrix=1.00D-08 within 128 cycles.
 Requested convergence on MAX density matrix=1.00D-06.
 Requested convergence on             energy=1.00D-06.
 No special actions if energy rises.
 Inv3:  Mode=1 IEnd=    15066243.
 Iteration    1 A*A^-1 deviation from unit magnitude is 5.66D-15 for    259.
 Iteration    1 A*A^-1 deviation from orthogonality  is 3.19D-15 for    258    175.
 Iteration    1 A^-1*A deviation from unit magnitude is 6.66D-15 for    263.
 Iteration    1 A^-1*A deviation from orthogonality  is 1.57D-14 for   1426    400.
 Error on total polarization charges =  0.00921
 SCF Done:  E(RwB97XD) =  -872.250930667     A.U. after   18 cycles
            NFock= 18  Conv=0.25D-08     -V/T= 2.0043
 SMD-CDS (non-electrostatic) energy       (kcal/mol) =      -2.41
 (included in total energy above)

 **********************************************************************

            Population analysis using the SCF density.

 **********************************************************************

 Orbital symmetries:
       Occupied  (A) (A) (A) (A) (A) (A) (A) (A) (A) (A) (A) (A)
                 (A) (A) (A) (A) (A) (A) (A) (A) (A) (A) (A) (A)
                 (A) (A) (A) (A) (A) (A) (A) (A) (A) (A) (A) (A)
                 (A) (A) (A) (A) (A) (A) (A) (A) (A) (A) (A) (A)
                 (A) (A) (A) (A) (A) (A) (A) (A) (A) (A)
       Virtual   (A) (A) (A) (A) (A) (A) (A) (A) (A) (A) (A) (A)
                 (A) (A) (A) (A) (A) (A) (A) (A) (A) (A) (A) (A)
                 (A) (A) (A) (A) (A) (A) (A) (A) (A) (A) (A) (A)
                 (A) (A) (A) (A) (A) (A) (A) (A) (A) (A) (A) (A)
                 (A) (A) (A) (A) (A) (A) (A) (A) (A) (A) (A) (A)
                 (A) (A) (A) (A) (A) (A) (A) (A) (A) (A) (A) (A)
                 (A) (A) (A) (A) (A) (A) (A) (A) (A) (A) (A) (A)
                 (A) (A) (A) (A) (A) (A) (A) (A) (A) (A) (A) (A)
                 (A) (A) (A) (A) (A) (A) (A) (A) (A) (A) (A) (A)
                 (A) (A) (A) (A) (A) (A) (A) (A) (A) (A) (A) (A)
                 (A) (A) (A) (A) (A) (A) (A) (A) (A) (A) (A) (A)
                 (A) (A) (A) (A) (A) (A) (A) (A) (A) (A) (A) (A)
                 (A) (A) (A) (A) (A) (A) (A) (A) (A) (A) (A) (A)
                 (A) (A) (A) (A) (A) (A) (A) (A) (A) (A) (A) (A)
                 (A) (A) (A) (A) (A) (A) (A) (A) (A) (A) (A) (A)
                 (A) (A) (A) (A) (A) (A) (A) (A) (A) (A) (A) (A)
                 (A) (A) (A) (A) (A) (A) (A) (A) (A) (A) (A) (A)
                 (A) (A) (A) (A) (A) (A) (A) (A) (A) (A) (A) (A)
                 (A) (A) (A) (A) (A) (A) (A) (A) (A) (A) (A) (A)
                 (A) (A) (A) (A) (A) (A) (A) (A) (A) (A) (A) (A)
                 (A) (A) (A) (A) (A) (A) (A) (A) (A) (A) (A) (A)
                 (A) (A) (A) (A) (A) (A) (A) (A) (A) (A) (A) (A)
                 (A) (A) (A) (A) (A) (A) (A) (A) (A) (A) (A) (A)
                 (A) (A) (A) (A) (A) (A) (A) (A) (A) (A) (A) (A)
                 (A) (A) (A) (A) (A) (A) (A) (A) (A) (A) (A) (A)
                 (A) (A) (A) (A) (A) (A) (A) (A) (A) (A) (A) (A)
                 (A) (A) (A) (A) (A) (A) (A) (A) (A) (A) (A) (A)
                 (A) (A) (A) (A) (A) (A) (A) (A) (A) (A) (A) (A)
                 (A) (A) (A) (A) (A) (A) (A) (A) (A) (A) (A) (A)
                 (A) (A) (A) (A) (A) (A) (A) (A) (A) (A) (A) (A)
                 (A) (A) (A) (A) (A) (A) (A) (A) (A) (A) (A) (A)
                 (A) (A) (A) (A) (A) (A) (A) (A) (A) (A) (A) (A)
                 (A) (A) (A) (A) (A) (A) (A) (A) (A) (A) (A) (A)
                 (A) (A) (A) (A) (A) (A) (A) (A) (A) (A) (A) (A)
                 (A) (A) (A) (A) (A) (A) (A) (A) (A) (A) (A) (A)
                 (A) (A) (A) (A) (A) (A) (A) (A) (A) (A) (A) (A)
                 (A) (A) (A) (A) (A) (A) (A) (A) (A) (A) (A) (A)
                 (A) (A) (A) (A) (A) (A) (A) (A) (A) (A) (A) (A)
                 (A) (A) (A) (A) (A) (A) (A) (A) (A) (A) (A) (A)
                 (A) (A) (A) (A) (A) (A) (A) (A) (A) (A) (A) (A)
                 (A) (A) (A) (A) (A) (A) (A) (A) (A) (A) (A) (A)
                 (A) (A) (A) (A) (A) (A) (A) (A) (A) (A) (A) (A)
                 (A) (A) (A) (A) (A) (A) (A) (A) (A) (A) (A) (A)
 The electronic state is 1-A.
 Alpha  occ. eigenvalues --  -19.33676 -19.32746 -19.27802 -19.27207 -19.26789
 Alpha  occ. eigenvalues --  -19.25028 -19.22979 -19.22240 -14.54336 -14.54039
 Alpha  occ. eigenvalues --  -10.47455 -10.46273 -10.35158 -10.34573  -1.26888
 Alpha  occ. eigenvalues --   -1.25246  -1.18947  -1.16701  -1.15303  -1.13216
 Alpha  occ. eigenvalues --   -1.11099  -1.09018  -1.08174  -0.91960  -0.85655
 Alpha  occ. eigenvalues --   -0.81180  -0.71167  -0.67731  -0.65856  -0.64797
 Alpha  occ. eigenvalues --   -0.63213  -0.62288  -0.61596  -0.60401  -0.59807
 Alpha  occ. eigenvalues --   -0.59500  -0.58985  -0.57567  -0.54707  -0.53998
 Alpha  occ. eigenvalues --   -0.53251  -0.51051  -0.50266  -0.48812  -0.48094
 Alpha  occ. eigenvalues --   -0.47727  -0.46902  -0.46553  -0.45464  -0.42983
 Alpha  occ. eigenvalues --   -0.42657  -0.42041  -0.41663  -0.41461  -0.40319
 Alpha  occ. eigenvalues --   -0.38572  -0.37888  -0.35850
 Alpha virt. eigenvalues --   -0.04345   0.04323   0.05437   0.05677   0.06080
 Alpha virt. eigenvalues --    0.06425   0.07050   0.08133   0.08417   0.08955
 Alpha virt. eigenvalues --    0.09524   0.09970   0.10501   0.10887   0.11627
 Alpha virt. eigenvalues --    0.12341   0.12502   0.13419   0.14743   0.14977
 Alpha virt. eigenvalues --    0.15128   0.15400   0.16256   0.16810   0.17135
 Alpha virt. eigenvalues --    0.17451   0.18184   0.18929   0.19409   0.19781
 Alpha virt. eigenvalues --    0.20464   0.20641   0.21104   0.21211   0.21292
 Alpha virt. eigenvalues --    0.21803   0.22245   0.22777   0.22856   0.23311
 Alpha virt. eigenvalues --    0.23789   0.24220   0.24482   0.25230   0.25605
 Alpha virt. eigenvalues --    0.25755   0.26213   0.26388   0.27005   0.27412
 Alpha virt. eigenvalues --    0.27879   0.28190   0.28852   0.29029   0.29660
 Alpha virt. eigenvalues --    0.30156   0.30214   0.30408   0.30904   0.31301
 Alpha virt. eigenvalues --    0.31719   0.32582   0.32736   0.33257   0.34776
 Alpha virt. eigenvalues --    0.34873   0.36156   0.36885   0.37888   0.38395
 Alpha virt. eigenvalues --    0.38905   0.39406   0.39621   0.40456   0.41663
 Alpha virt. eigenvalues --    0.41776   0.42948   0.43067   0.43473   0.44543
 Alpha virt. eigenvalues --    0.44703   0.45161   0.45581   0.46784   0.47484
 Alpha virt. eigenvalues --    0.48453   0.49778   0.50974   0.52508   0.53471
 Alpha virt. eigenvalues --    0.53977   0.54892   0.55580   0.55926   0.56434
 Alpha virt. eigenvalues --    0.57100   0.57743   0.58382   0.59019   0.59447
 Alpha virt. eigenvalues --    0.60062   0.60628   0.61022   0.61528   0.62294
 Alpha virt. eigenvalues --    0.62506   0.63484   0.64684   0.65136   0.67160
 Alpha virt. eigenvalues --    0.67912   0.68413   0.69047   0.70222   0.71009
 Alpha virt. eigenvalues --    0.71725   0.72833   0.74114   0.74598   0.75426
 Alpha virt. eigenvalues --    0.76312   0.76625   0.77124   0.78311   0.78674
 Alpha virt. eigenvalues --    0.79202   0.80279   0.80467   0.81057   0.82232
 Alpha virt. eigenvalues --    0.82993   0.83519   0.84075   0.84455   0.85529
 Alpha virt. eigenvalues --    0.85939   0.86318   0.88107   0.88895   0.89925
 Alpha virt. eigenvalues --    0.90860   0.91527   0.92715   0.93546   0.94173
 Alpha virt. eigenvalues --    0.95183   0.95891   0.96423   0.97278   0.98797
 Alpha virt. eigenvalues --    1.00961   1.01200   1.03292   1.04459   1.06375
 Alpha virt. eigenvalues --    1.06666   1.09088   1.10176   1.11544   1.13257
 Alpha virt. eigenvalues --    1.14124   1.15483   1.16664   1.17491   1.18418
 Alpha virt. eigenvalues --    1.19457   1.21964   1.24568   1.25771   1.27282
 Alpha virt. eigenvalues --    1.29343   1.31552   1.32782   1.34297   1.34496
 Alpha virt. eigenvalues --    1.36872   1.38708   1.38946   1.39623   1.41106
 Alpha virt. eigenvalues --    1.44002   1.45386   1.47238   1.50417   1.50809
 Alpha virt. eigenvalues --    1.53288   1.55379   1.56433   1.56907   1.59129
 Alpha virt. eigenvalues --    1.59669   1.60073   1.60650   1.61701   1.62835
 Alpha virt. eigenvalues --    1.63385   1.64733   1.65827   1.66555   1.67453
 Alpha virt. eigenvalues --    1.68365   1.70583   1.72538   1.74334   1.75637
 Alpha virt. eigenvalues --    1.77016   1.77572   1.79488   1.80559   1.81388
 Alpha virt. eigenvalues --    1.82021   1.83472   1.84691   1.85424   1.86352
 Alpha virt. eigenvalues --    1.87715   1.88232   1.89751   1.91162   1.92620
 Alpha virt. eigenvalues --    1.93611   1.95205   1.97049   1.97652   1.99265
 Alpha virt. eigenvalues --    2.01527   2.01617   2.05037   2.06599   2.07199
 Alpha virt. eigenvalues --    2.08499   2.09179   2.10345   2.11368   2.12515
 Alpha virt. eigenvalues --    2.13849   2.14646   2.16877   2.17401   2.18350
 Alpha virt. eigenvalues --    2.19791   2.20808   2.21241   2.21832   2.22615
 Alpha virt. eigenvalues --    2.23849   2.25928   2.28230   2.29405   2.30642
 Alpha virt. eigenvalues --    2.31829   2.32336   2.33825   2.34784   2.38250
 Alpha virt. eigenvalues --    2.38523   2.39464   2.41076   2.41861   2.42666
 Alpha virt. eigenvalues --    2.43948   2.44146   2.45011   2.48007   2.48595
 Alpha virt. eigenvalues --    2.49045   2.50018   2.51716   2.52172   2.53615
 Alpha virt. eigenvalues --    2.54124   2.55900   2.56429   2.57815   2.58708
 Alpha virt. eigenvalues --    2.60607   2.62542   2.62672   2.64055   2.64646
 Alpha virt. eigenvalues --    2.64944   2.66728   2.66818   2.70066   2.70579
 Alpha virt. eigenvalues --    2.72399   2.73918   2.75891   2.78251   2.79808
 Alpha virt. eigenvalues --    2.80107   2.81579   2.82661   2.83159   2.83750
 Alpha virt. eigenvalues --    2.84308   2.85015   2.86347   2.87335   2.88663
 Alpha virt. eigenvalues --    2.90262   2.91887   2.92610   2.93675   2.94657
 Alpha virt. eigenvalues --    2.95502   2.96324   2.98996   3.00613   3.02671
 Alpha virt. eigenvalues --    3.03817   3.04764   3.07411   3.08474   3.09976
 Alpha virt. eigenvalues --    3.14067   3.15899   3.17678   3.18556   3.20659
 Alpha virt. eigenvalues --    3.21251   3.21967   3.22515   3.25708   3.26882
 Alpha virt. eigenvalues --    3.27994   3.29652   3.30860   3.32501   3.34687
 Alpha virt. eigenvalues --    3.35182   3.35744   3.37009   3.38289   3.38886
 Alpha virt. eigenvalues --    3.41398   3.43852   3.44504   3.46130   3.46989
 Alpha virt. eigenvalues --    3.48156   3.48518   3.49076   3.52841   3.55310
 Alpha virt. eigenvalues --    3.57118   3.60639   3.61459   3.62549   3.65356
 Alpha virt. eigenvalues --    3.65890   3.67021   3.67663   3.69835   3.71043
 Alpha virt. eigenvalues --    3.74170   3.78165   3.82270   3.83033   3.84166
 Alpha virt. eigenvalues --    3.86591   3.90272   3.92269   3.93198   3.95693
 Alpha virt. eigenvalues --    3.99915   4.03429   4.05961   4.06193   4.07557
 Alpha virt. eigenvalues --    4.09281   4.17081   4.17320   4.23841   4.28016
 Alpha virt. eigenvalues --    4.28759   4.32695   4.37347   4.41428   4.42719
 Alpha virt. eigenvalues --    4.49760   4.50830   4.53309   4.55324   4.62953
 Alpha virt. eigenvalues --    4.64568   4.65948   4.72081   4.78796   4.83481
 Alpha virt. eigenvalues --    4.86804   4.90911   4.95577   4.97380   5.00003
 Alpha virt. eigenvalues --    5.02563   5.08789   5.11249   5.15724   5.17047
 Alpha virt. eigenvalues --    5.19142   5.20799   5.21851   5.22437   5.25055
 Alpha virt. eigenvalues --    5.25427   5.27260   5.27998   5.29918   5.32277
 Alpha virt. eigenvalues --    5.33182   5.36237   5.38737   5.39193   5.43673
 Alpha virt. eigenvalues --    5.46067   5.47671   5.48169   5.50253   5.50333
 Alpha virt. eigenvalues --    5.51687   5.52272   5.53579   5.54772   5.55499
 Alpha virt. eigenvalues --    5.56119   5.56725   5.58336   5.59038   5.59673
 Alpha virt. eigenvalues --    5.60268   5.66769   5.72614   5.74141   5.74892
 Alpha virt. eigenvalues --    5.77322   5.91352   5.92956   5.95714   5.98047
 Alpha virt. eigenvalues --    6.07590   6.10387   6.11367   6.12164   6.12782
 Alpha virt. eigenvalues --    6.15124   6.15428   6.19569   6.22610   6.27883
 Alpha virt. eigenvalues --    6.29738   6.31289   6.32089   6.32994   6.35283
 Alpha virt. eigenvalues --    6.37848   6.42651   6.44320   6.44987   6.46787
 Alpha virt. eigenvalues --    6.47784   6.48456   6.49472   6.51088   6.51635
 Alpha virt. eigenvalues --    6.53154   6.53651   6.55067   6.55837   6.56652
 Alpha virt. eigenvalues --    6.58195   6.59433   6.60053   6.61203   6.65902
 Alpha virt. eigenvalues --    6.72472   6.73475   6.78120   6.81593   6.84636
 Alpha virt. eigenvalues --    6.86901   6.93187   6.97442   6.98455   6.99984
 Alpha virt. eigenvalues --    7.01847   7.03176   7.04080   7.06389   7.09887
 Alpha virt. eigenvalues --    7.11168   7.13215   7.13909   7.16387   7.21337
 Alpha virt. eigenvalues --    7.24245   7.28439   7.31233   7.40451   7.46080
 Alpha virt. eigenvalues --    7.49809   7.53492  22.47638  22.49609  23.47018
 Alpha virt. eigenvalues --   23.57002  32.45020  32.55699  43.69868  43.74345
 Alpha virt. eigenvalues --   43.77880  43.85068  44.12115  44.13530  44.28503
 Alpha virt. eigenvalues --   44.32349
          Condensed to atoms (all electrons):
               1          2          3          4          5          6
     1  N   23.374633 -14.827737   0.546441  -0.948429   0.080208  -0.685511
     2  N  -14.827737  21.281111  -0.434449   0.855848  -0.233868   0.592004
     3  C    0.546441  -0.434449   4.899534  -0.155523  -0.002719   0.515172
     4  C   -0.948429   0.855848  -0.155523   5.032901   0.542304   0.036056
     5  O    0.080208  -0.233868  -0.002719   0.542304   8.177076   0.003174
     6  O   -0.685511   0.592004   0.515172   0.036056   0.003174   8.148233
     7  O   -0.494947   0.106258  -0.021087   0.363714  -0.107556   0.014904
     8  O    0.130874  -0.161957   0.232767  -0.049085  -0.015078  -0.180954
     9  C   -0.145379   0.133057  -0.103477   0.007084   0.000271   0.000629
    10  H    0.005766  -0.005878   0.013849  -0.000807  -0.000007   0.002955
    11  H    0.021415  -0.012915  -0.007459   0.000200   0.000009  -0.006201
    12  H   -0.026782   0.019742  -0.013971  -0.000058  -0.000025   0.001099
    13  C    0.024240  -0.019347  -0.003328  -0.075282  -0.021708  -0.000514
    14  H   -0.003540   0.004476  -0.000192  -0.007564  -0.002627   0.000011
    15  H   -0.002244   0.001066   0.000101  -0.014969  -0.004492   0.000003
    16  H    0.000328  -0.002900  -0.000353   0.011701   0.004479   0.000009
    17  O    0.024416  -0.043776   0.001068   0.006301   0.000024  -0.024385
    18  H    0.061555  -0.052702   0.001275  -0.007197  -0.000005  -0.000901
    19  H   -0.002695   0.004309  -0.001704  -0.000196  -0.000022   0.000743
    20  O   -0.230985   0.239367   0.058467   0.009925  -0.001878   0.030661
    21  H   -0.033736   0.040133  -0.010483   0.003017  -0.000088  -0.001629
    22  H    0.020252  -0.004797  -0.011374   0.007448  -0.000508  -0.003444
    23  O    0.424785  -0.312161   0.042175  -0.134140  -0.008520  -0.027128
    24  H   -0.034734  -0.003426  -0.002162   0.022379  -0.000598   0.000717
    25  H    0.031645  -0.041530  -0.003167   0.008613   0.001394   0.000165
    26  O    0.083447  -0.060967  -0.012320   0.026747  -0.041123  -0.003111
    27  H   -0.044040   0.068867  -0.003972  -0.001899  -0.002766   0.001513
    28  H    0.008162  -0.001685   0.008909  -0.007864  -0.002107   0.000090
               7          8          9         10         11         12
     1  N   -0.494947   0.130874  -0.145379   0.005766   0.021415  -0.026782
     2  N    0.106258  -0.161957   0.133057  -0.005878  -0.012915   0.019742
     3  C   -0.021087   0.232767  -0.103477   0.013849  -0.007459  -0.013971
     4  C    0.363714  -0.049085   0.007084  -0.000807   0.000200  -0.000058
     5  O   -0.107556  -0.015078   0.000271  -0.000007   0.000009  -0.000025
     6  O    0.014904  -0.180954   0.000629   0.002955  -0.006201   0.001099
     7  O    8.262598  -0.040762  -0.003370  -0.000067   0.000012  -0.000019
     8  O   -0.040762   8.238194   0.190040  -0.051929  -0.025936  -0.012770
     9  C   -0.003370   0.190040   4.928417   0.408519   0.408008   0.416177
    10  H   -0.000067  -0.051929   0.408519   0.491630  -0.018609  -0.016999
    11  H    0.000012  -0.025936   0.408008  -0.018609   0.493219  -0.025522
    12  H   -0.000019  -0.012770   0.416177  -0.016999  -0.025522   0.469321
    13  C    0.180222  -0.002888  -0.001020  -0.000010  -0.000006   0.000029
    14  H   -0.017586  -0.000011  -0.000009   0.000000   0.000000   0.000000
    15  H   -0.018109  -0.000033   0.000012   0.000000   0.000000   0.000000
    16  H   -0.054846  -0.000018  -0.000003   0.000000   0.000000   0.000000
    17  O    0.003039   0.000080   0.002188  -0.000039   0.000089  -0.000225
    18  H   -0.001420   0.003971  -0.000158   0.000009   0.000033  -0.000035
    19  H   -0.000079  -0.000009   0.000214   0.000000  -0.000002   0.000009
    20  O   -0.001373  -0.056866  -0.014920  -0.001000   0.000738  -0.002330
    21  H   -0.000496   0.000321   0.001133   0.000019  -0.000001  -0.000092
    22  H   -0.001615  -0.001290   0.001158   0.000009  -0.000019   0.000088
    23  O    0.000609  -0.010873  -0.003758  -0.000008   0.000000   0.000023
    24  H    0.009532  -0.000179   0.000422   0.000000   0.000000   0.000000
    25  H   -0.001769   0.000082  -0.000002   0.000000   0.000001  -0.000002
    26  O   -0.003014  -0.000130  -0.002085   0.000001   0.000019  -0.000010
    27  H    0.002150   0.001672  -0.000152   0.000000   0.000000   0.000000
    28  H   -0.000593   0.001013   0.000589   0.000000   0.000000   0.000000
              13         14         15         16         17         18
     1  N    0.024240  -0.003540  -0.002244   0.000328   0.024416   0.061555
     2  N   -0.019347   0.004476   0.001066  -0.002900  -0.043776  -0.052702
     3  C   -0.003328  -0.000192   0.000101  -0.000353   0.001068   0.001275
     4  C   -0.075282  -0.007564  -0.014969   0.011701   0.006301  -0.007197
     5  O   -0.021708  -0.002627  -0.004492   0.004479   0.000024  -0.000005
     6  O   -0.000514   0.000011   0.000003   0.000009  -0.024385  -0.000901
     7  O    0.180222  -0.017586  -0.018109  -0.054846   0.003039  -0.001420
     8  O   -0.002888  -0.000011  -0.000033  -0.000018   0.000080   0.003971
     9  C   -0.001020  -0.000009   0.000012  -0.000003   0.002188  -0.000158
    10  H   -0.000010   0.000000   0.000000   0.000000  -0.000039   0.000009
    11  H   -0.000006   0.000000   0.000000   0.000000   0.000089   0.000033
    12  H    0.000029   0.000000   0.000000   0.000000  -0.000225  -0.000035
    13  C    4.915451   0.410867   0.413111   0.412025  -0.000352  -0.000101
    14  H    0.410867   0.472614  -0.026516  -0.017130   0.000001   0.000000
    15  H    0.413111  -0.026516   0.499894  -0.019495   0.000007   0.000000
    16  H    0.412025  -0.017130  -0.019495   0.493976  -0.000003   0.000000
    17  O   -0.000352   0.000001   0.000007  -0.000003   8.194857   0.309298
    18  H   -0.000101   0.000000   0.000000   0.000000   0.309298   0.339144
    19  H    0.000010   0.000000   0.000000   0.000000   0.315864  -0.009969
    20  O    0.000306   0.000010   0.000005  -0.000010  -0.009040  -0.002614
    21  H    0.000377  -0.000001   0.000000   0.000000   0.000052  -0.004881
    22  H   -0.000295  -0.000003  -0.000001   0.000004   0.002678   0.000055
    23  O    0.013176  -0.001970   0.000420   0.000001  -0.002370  -0.001443
    24  H   -0.001097   0.000060   0.000007   0.000003   0.000848   0.000017
    25  H   -0.002073   0.000041  -0.000010  -0.000020  -0.025383  -0.000754
    26  O    0.001751   0.000051  -0.000019  -0.000035  -0.002261  -0.000265
    27  H   -0.000494  -0.000045   0.000038   0.000002   0.000170  -0.000034
    28  H   -0.000616   0.000001   0.000000   0.000000   0.000189   0.000009
              19         20         21         22         23         24
     1  N   -0.002695  -0.230985  -0.033736   0.020252   0.424785  -0.034734
     2  N    0.004309   0.239367   0.040133  -0.004797  -0.312161  -0.003426
     3  C   -0.001704   0.058467  -0.010483  -0.011374   0.042175  -0.002162
     4  C   -0.000196   0.009925   0.003017   0.007448  -0.134140   0.022379
     5  O   -0.000022  -0.001878  -0.000088  -0.000508  -0.008520  -0.000598
     6  O    0.000743   0.030661  -0.001629  -0.003444  -0.027128   0.000717
     7  O   -0.000079  -0.001373  -0.000496  -0.001615   0.000609   0.009532
     8  O   -0.000009  -0.056866   0.000321  -0.001290  -0.010873  -0.000179
     9  C    0.000214  -0.014920   0.001133   0.001158  -0.003758   0.000422
    10  H    0.000000  -0.001000   0.000019   0.000009  -0.000008   0.000000
    11  H   -0.000002   0.000738  -0.000001  -0.000019   0.000000   0.000000
    12  H    0.000009  -0.002330  -0.000092   0.000088   0.000023   0.000000
    13  C    0.000010   0.000306   0.000377  -0.000295   0.013176  -0.001097
    14  H    0.000000   0.000010  -0.000001  -0.000003  -0.001970   0.000060
    15  H    0.000000   0.000005   0.000000  -0.000001   0.000420   0.000007
    16  H    0.000000  -0.000010   0.000000   0.000004   0.000001   0.000003
    17  O    0.315864  -0.009040   0.000052   0.002678  -0.002370   0.000848
    18  H   -0.009969  -0.002614  -0.004881   0.000055  -0.001443   0.000017
    19  H    0.317725   0.000374   0.000382  -0.000029  -0.000929  -0.000007
    20  O    0.000374   8.011496   0.331824   0.330550  -0.004975  -0.000004
    21  H    0.000382   0.331824   0.337671  -0.029417  -0.001804   0.000021
    22  H   -0.000029   0.330550  -0.029417   0.335958   0.000302   0.000044
    23  O   -0.000929  -0.004975  -0.001804   0.000302   8.135859   0.343816
    24  H   -0.000007  -0.000004   0.000021   0.000044   0.343816   0.335824
    25  H    0.001068   0.000471  -0.001013  -0.000170   0.331464  -0.029299
    26  O    0.000055   0.000938  -0.000002  -0.000174  -0.030261  -0.014116
    27  H   -0.000002   0.000057  -0.000001   0.000001  -0.005054   0.001314
    28  H   -0.000001   0.000028   0.000001   0.000000  -0.003316  -0.000073
              25         26         27         28
     1  N    0.031645   0.083447  -0.044040   0.008162
     2  N   -0.041530  -0.060967   0.068867  -0.001685
     3  C   -0.003167  -0.012320  -0.003972   0.008909
     4  C    0.008613   0.026747  -0.001899  -0.007864
     5  O    0.001394  -0.041123  -0.002766  -0.002107
     6  O    0.000165  -0.003111   0.001513   0.000090
     7  O   -0.001769  -0.003014   0.002150  -0.000593
     8  O    0.000082  -0.000130   0.001672   0.001013
     9  C   -0.000002  -0.002085  -0.000152   0.000589
    10  H    0.000000   0.000001   0.000000   0.000000
    11  H    0.000001   0.000019   0.000000   0.000000
    12  H   -0.000002  -0.000010   0.000000   0.000000
    13  C   -0.002073   0.001751  -0.000494  -0.000616
    14  H    0.000041   0.000051  -0.000045   0.000001
    15  H   -0.000010  -0.000019   0.000038   0.000000
    16  H   -0.000020  -0.000035   0.000002   0.000000
    17  O   -0.025383  -0.002261   0.000170   0.000189
    18  H   -0.000754  -0.000265  -0.000034   0.000009
    19  H    0.001068   0.000055  -0.000002  -0.000001
    20  O    0.000471   0.000938   0.000057   0.000028
    21  H   -0.001013  -0.000002  -0.000001   0.000001
    22  H   -0.000170  -0.000174   0.000001   0.000000
    23  O    0.331464  -0.030261  -0.005054  -0.003316
    24  H   -0.029299  -0.014116   0.001314  -0.000073
    25  H    0.346136   0.001719   0.000329   0.000102
    26  O    0.001719   8.079679   0.308880   0.314817
    27  H    0.000329   0.308880   0.347694  -0.018889
    28  H    0.000102   0.314817  -0.018889   0.346616
 Mulliken charges:
               1
     1  N   -0.357408
     2  N   -0.126142
     3  C    0.467984
     4  C    0.468776
     5  O   -0.363246
     6  O   -0.414361
     7  O   -0.174329
     8  O   -0.188245
     9  C   -0.223585
    10  H    0.172597
    11  H    0.172928
    12  H    0.192352
    13  C   -0.242432
    14  H    0.189066
    15  H    0.171226
    16  H    0.172287
    17  O   -0.753335
    18  H    0.367114
    19  H    0.374887
    20  O   -0.689221
    21  H    0.368693
    22  H    0.354589
    23  O   -0.743919
    24  H    0.370693
    25  H    0.381961
    26  O   -0.648211
    27  H    0.344662
    28  H    0.354619
 Sum of Mulliken charges =   0.00000
 Mulliken charges with hydrogens summed into heavy atoms:
               1
     1  N   -0.357408
     2  N   -0.126142
     3  C    0.467984
     4  C    0.468776
     5  O   -0.363246
     6  O   -0.414361
     7  O   -0.174329
     8  O   -0.188245
     9  C    0.314292
    13  C    0.290146
    17  O   -0.011334
    20  O    0.034061
    23  O    0.008735
    26  O    0.051071
 Electronic spatial extent (au):  <R**2>=           3594.8769
 Charge=              0.0000 electrons
 Dipole moment (field-independent basis, Debye):
    X=              2.8439    Y=             -1.4710    Z=             -1.1971  Tot=              3.4183
 Quadrupole moment (field-independent basis, Debye-Ang):
   XX=            -66.5229   YY=            -77.8405   ZZ=            -89.6228
   XY=             14.1127   XZ=            -10.8425   YZ=              7.3468
 Traceless Quadrupole moment (field-independent basis, Debye-Ang):
   XX=             11.4725   YY=              0.1549   ZZ=            -11.6274
   XY=             14.1127   XZ=            -10.8425   YZ=              7.3468
 Octapole moment (field-independent basis, Debye-Ang**2):
  XXX=             14.5915  YYY=             20.0200  ZZZ=             -8.0079  XYY=             26.9703
  XXY=            -50.5894  XXZ=              2.8000  XZZ=              7.3142  YZZ=             23.1909
  YYZ=             19.8198  XYZ=             22.9063
 Hexadecapole moment (field-independent basis, Debye-Ang**3):
 XXXX=          -2053.8998 YYYY=           -895.6314 ZZZZ=           -870.0398 XXXY=             46.5526
 XXXZ=           -123.7414 YYYX=            107.4303 YYYZ=             85.1667 ZZZX=            -46.6175
 ZZZY=             52.3994 XXYY=           -525.8801 XXZZ=           -587.2560 YYZZ=           -273.3236
 XXYZ=             37.0463 YYXZ=              5.1880 ZZXY=             77.5550
 N-N= 1.047349542334D+03 E-N=-4.146632797871D+03  KE= 8.684843486383D+02
 D1PCM: PCM CHGder 1st derivatives, ID1Alg=3 FixD1E=F DoIter=F DoCFld=F I1PDM=0.
 Calling FoFJK, ICntrl=      2127 FMM=F ISym2X=0 I1Cent= 0 IOpClX= 0 NMat=1 NMatS=1 NMatT=0.
 ***** Axes restored to original set *****
 -------------------------------------------------------------------
 Center     Atomic                   Forces (Hartrees/Bohr)
 Number     Number              X              Y              Z
 -------------------------------------------------------------------
      1        7          -0.004336247   -0.000044212   -0.003615111
      2        7           0.003002237    0.000212248    0.003405894
      3        6          -0.001604850    0.000653250    0.000050944
      4        6           0.002549985    0.001063838    0.000311298
      5        8          -0.004480824   -0.001092403   -0.004751288
      6        8           0.003607154   -0.005015816   -0.001499268
      7        8           0.003616265    0.000372482    0.004295411
      8        8          -0.002456790    0.004868459    0.001934315
      9        6           0.002563786    0.000010570   -0.000538355
     10        1           0.000213868    0.001714906    0.000189744
     11        1           0.000252877   -0.000547443   -0.001498702
     12        1           0.000797524   -0.000952030    0.000896852
     13        6          -0.003295351   -0.000291574    0.000260182
     14        1          -0.000207618   -0.001545959   -0.000576110
     15        1          -0.000660572    0.001183700   -0.000648200
     16        1           0.000028451    0.000012088    0.001621403
     17        8          -0.002758430    0.002040908    0.003090268
     18        1           0.000806229    0.000725743   -0.002611111
     19        1           0.002473701   -0.003478474   -0.000598910
     20        8           0.003126626    0.001897337    0.000743226
     21        1           0.000271814   -0.002768921   -0.000546149
     22        1          -0.003035988    0.001097043    0.000398909
     23        8          -0.002632096    0.001161896    0.002827737
     24        1          -0.000351984   -0.000540376   -0.002624648
     25        1           0.002461847   -0.001006349    0.000112230
     26        8          -0.002127259   -0.003203163    0.001723787
     27        1          -0.000857220    0.002453817    0.000672687
     28        1           0.003032866    0.001018436   -0.003027036
 -------------------------------------------------------------------
 Cartesian Forces:  Max     0.005015816 RMS     0.002186693

 GradGradGradGradGradGradGradGradGradGradGradGradGradGradGradGradGradGrad
 Berny optimization.
 FormGI is forming the generalized inverse of G from B-inverse, IUseBI=4.
 Internal  Forces:  Max     0.006829518 RMS     0.001817035
 Search for a local minimum.
 Step number   1 out of a maximum of  115
 All quantities printed in internal units (Hartrees-Bohrs-Radians)
 Mixed Optimization -- RFO/linear search
 Second derivative matrix not updated -- first step.
 ITU=  0
     Eigenvalues ---    0.00230   0.00346   0.00568   0.00865   0.01000
     Eigenvalues ---    0.01053   0.01131   0.01166   0.01438   0.01535
     Eigenvalues ---    0.02877   0.02910   0.02923   0.02939   0.03326
     Eigenvalues ---    0.03835   0.04069   0.04131   0.04258   0.04432
     Eigenvalues ---    0.04570   0.04915   0.05690   0.07373   0.08408
     Eigenvalues ---    0.09321   0.10252   0.10259   0.10688   0.10709
     Eigenvalues ---    0.11030   0.11599   0.11963   0.14701   0.15479
     Eigenvalues ---    0.16000   0.16000   0.16000   0.16000   0.16000
     Eigenvalues ---    0.16000   0.16000   0.18493   0.18638   0.20398
     Eigenvalues ---    0.21077   0.23584   0.24926   0.24969   0.24994
     Eigenvalues ---    0.24997   0.24999   0.25000   0.25000   0.25000
     Eigenvalues ---    0.34647   0.34657   0.34690   0.34737   0.34751
     Eigenvalues ---    0.35026   0.35045   0.38473   0.38773   0.39255
     Eigenvalues ---    0.52257   0.52690   0.52910   0.53241   0.53568
     Eigenvalues ---    0.54178   0.54628   0.54685   0.65052   0.65633
     Eigenvalues ---    0.91803   1.01701   1.03967
 RFO step:  Lambda=-8.34890231D-04 EMin= 2.30000000D-03
 Linear search not attempted -- first point.
 Iteration  1 RMS(Cart)=  0.04933260 RMS(Int)=  0.00083274
 Iteration  2 RMS(Cart)=  0.00104189 RMS(Int)=  0.00003130
 Iteration  3 RMS(Cart)=  0.00000091 RMS(Int)=  0.00003130
 Variable       Old X    -DE/DX   Delta X   Delta X   Delta X     New X
                                 (Linear)    (Quad)   (Total)
    R1        2.31733  -0.00347   0.00000  -0.00383  -0.00382   2.31351
    R2        2.72783  -0.00357   0.00000  -0.00964  -0.00965   2.71818
    R3        2.78861  -0.00231   0.00000  -0.00715  -0.00715   2.78146
    R4        2.27571  -0.00683   0.00000  -0.00684  -0.00686   2.26885
    R5        2.46743  -0.00537   0.00000  -0.00816  -0.00816   2.45926
    R6        2.26712  -0.00663   0.00000  -0.00641  -0.00642   2.26070
    R7        2.47153  -0.00497   0.00000  -0.00763  -0.00763   2.46389
    R8        3.79899  -0.00019   0.00000  -0.00087  -0.00086   3.79812
    R9        3.71200  -0.00071   0.00000  -0.01682  -0.01684   3.69516
   R10        2.72578  -0.00420   0.00000  -0.01068  -0.01068   2.71510
   R11        2.73682  -0.00392   0.00000  -0.01017  -0.01017   2.72665
   R12        2.05602  -0.00174   0.00000  -0.00495  -0.00495   2.05107
   R13        2.06181  -0.00160   0.00000  -0.00459  -0.00459   2.05722
   R14        2.06104  -0.00153   0.00000  -0.00439  -0.00439   2.05666
   R15        2.06235  -0.00164   0.00000  -0.00473  -0.00473   2.05763
   R16        2.06252  -0.00147   0.00000  -0.00424  -0.00424   2.05828
   R17        2.05633  -0.00162   0.00000  -0.00462  -0.00462   2.05171
   R18        1.83463  -0.00325   0.00000  -0.00609  -0.00610   1.82853
   R19        1.82164  -0.00431   0.00000  -0.00787  -0.00787   1.81377
   R20        3.84496  -0.00058   0.00000  -0.01403  -0.01403   3.83093
   R21        3.76439  -0.00064   0.00000  -0.00981  -0.00980   3.75459
   R22        1.83127  -0.00319   0.00000  -0.00594  -0.00594   1.82533
   R23        1.82569  -0.00321   0.00000  -0.00592  -0.00592   1.81977
   R24        1.83635  -0.00311   0.00000  -0.00586  -0.00585   1.83050
   R25        1.83160  -0.00322   0.00000  -0.00560  -0.00559   1.82601
   R26        3.72609  -0.00052   0.00000  -0.01013  -0.01012   3.71597
   R27        1.83397  -0.00277   0.00000  -0.00486  -0.00485   1.82913
   R28        1.82113  -0.00439   0.00000  -0.00802  -0.00802   1.81311
    A1        1.96362   0.00180   0.00000   0.00747   0.00738   1.97100
    A2        1.93938   0.00178   0.00000   0.00490   0.00497   1.94435
    A3        2.10141   0.00025   0.00000  -0.00256  -0.00263   2.09878
    A4        1.93803  -0.00028   0.00000   0.00041   0.00044   1.93847
    A5        2.24039   0.00001   0.00000   0.00166   0.00168   2.24208
    A6        2.18240   0.00074   0.00000   0.00129   0.00129   2.18369
    A7        1.86869  -0.00111   0.00000  -0.00374  -0.00378   1.86491
    A8        2.23156   0.00035   0.00000   0.00202   0.00198   2.23354
    A9        2.00958  -0.00033   0.00000  -0.00146  -0.00147   2.00812
   A10        2.11721  -0.00091   0.00000  -0.01264  -0.01271   2.10450
   A11        2.01299   0.00202   0.00000   0.00805   0.00805   2.02104
   A12        2.01707   0.00136   0.00000   0.00540   0.00540   2.02247
   A13        1.83668  -0.00006   0.00000  -0.00064  -0.00064   1.83604
   A14        1.91740   0.00030   0.00000   0.00209   0.00209   1.91948
   A15        1.90559  -0.00004   0.00000  -0.00020  -0.00020   1.90540
   A16        1.93303  -0.00010   0.00000  -0.00061  -0.00061   1.93242
   A17        1.93451  -0.00015   0.00000  -0.00147  -0.00147   1.93304
   A18        1.93410   0.00005   0.00000   0.00080   0.00080   1.93489
   A19        1.91128   0.00038   0.00000   0.00247   0.00247   1.91374
   A20        1.92055   0.00033   0.00000   0.00207   0.00207   1.92262
   A21        1.84078  -0.00013   0.00000  -0.00089  -0.00089   1.83989
   A22        1.92553  -0.00030   0.00000  -0.00171  -0.00172   1.92382
   A23        1.93214  -0.00009   0.00000  -0.00054  -0.00054   1.93160
   A24        1.93184  -0.00017   0.00000  -0.00126  -0.00126   1.93058
   A25        1.86036   0.00035   0.00000   0.00447   0.00446   1.86482
   A26        1.62070  -0.00095   0.00000  -0.00994  -0.00989   1.61081
   A27        1.80006   0.00043   0.00000   0.00753   0.00741   1.80748
   A28        2.19834   0.00064   0.00000   0.00387   0.00387   2.20221
   A29        2.11801  -0.00003   0.00000   0.00127   0.00127   2.11928
   A30        1.76696  -0.00059   0.00000  -0.00759  -0.00758   1.75938
   A31        2.65170  -0.00076   0.00000  -0.00489  -0.00489   2.64680
   A32        1.80992  -0.00068   0.00000  -0.00422  -0.00422   1.80570
   A33        2.75132  -0.00093   0.00000  -0.00371  -0.00371   2.74760
   A34        1.83087   0.00037   0.00000   0.00524   0.00521   1.83608
   A35        2.78038  -0.00031   0.00000   0.00093   0.00090   2.78128
   A36        2.87678   0.00025   0.00000   0.00391   0.00384   2.88062
   A37        1.57504  -0.00066   0.00000   0.00184   0.00187   1.57691
   A38        2.04546  -0.00028   0.00000  -0.00351  -0.00354   2.04192
   A39        1.83515  -0.00019   0.00000  -0.00228  -0.00228   1.83287
   A40        2.64708  -0.00003   0.00000   0.00365   0.00365   2.65073
    D1        3.08214   0.00071   0.00000   0.00180   0.00169   3.08384
    D2       -1.76468  -0.00027   0.00000   0.01289   0.01287  -1.75182
    D3        1.45772   0.00002   0.00000   0.01872   0.01866   1.47637
    D4       -0.08863  -0.00011   0.00000  -0.01449  -0.01456  -0.10319
    D5        3.02010  -0.00058   0.00000  -0.02763  -0.02767   2.99243
    D6        1.03294   0.00054   0.00000   0.01359   0.01349   1.04643
    D7       -2.20488   0.00018   0.00000   0.00653   0.00646  -2.19842
    D8        3.14040   0.00027   0.00000   0.01076   0.01077  -3.13202
    D9        0.08772   0.00058   0.00000   0.01743   0.01742   0.10513
   D10       -0.70983  -0.00044   0.00000  -0.00511  -0.00513  -0.71496
   D11        2.47156   0.00015   0.00000   0.01092   0.01090   2.48246
   D12        3.08579   0.00017   0.00000   0.00444   0.00443   3.09022
   D13       -0.08988  -0.00031   0.00000  -0.00921  -0.00920  -0.09908
   D14       -1.01341   0.00016   0.00000   0.00709   0.00714  -1.00626
   D15        0.30011  -0.00059   0.00000  -0.02323  -0.02325   0.27686
   D16       -1.04538  -0.00002   0.00000  -0.00030  -0.00031  -1.04568
   D17        1.07399   0.00006   0.00000   0.00048   0.00048   1.07447
   D18       -3.12506  -0.00004   0.00000  -0.00044  -0.00044  -3.12550
   D19       -3.11952  -0.00009   0.00000  -0.00148  -0.00148  -3.12100
   D20       -1.03794  -0.00008   0.00000  -0.00149  -0.00150  -1.03944
   D21        1.08638   0.00014   0.00000   0.00069   0.00069   1.08707
   D22        2.76708  -0.00041   0.00000  -0.02137  -0.02136   2.74572
   D23        0.51691  -0.00081   0.00000  -0.02272  -0.02272   0.49418
   D24       -1.26757  -0.00001   0.00000  -0.01317  -0.01311  -1.28068
   D25       -0.63650   0.00004   0.00000   0.03826   0.03826  -0.59824
   D26       -2.60729   0.00012   0.00000   0.03915   0.03915  -2.56814
   D27        1.17864   0.00021   0.00000   0.04304   0.04303   1.22167
   D28        0.35116  -0.00044   0.00000   0.01952   0.01954   0.37069
   D29        2.42892   0.00035   0.00000   0.03240   0.03241   2.46133
   D30       -1.31841   0.00061   0.00000   0.03022   0.03026  -1.28814
   D31       -0.94965   0.00054   0.00000   0.03571   0.03571  -0.91394
   D32        1.94787  -0.00056   0.00000  -0.00398  -0.00398   1.94388
   D33       -0.96171   0.00046   0.00000   0.00856   0.00863  -0.95308
   D34        0.20104  -0.00056   0.00000  -0.02206  -0.02205   0.17900
   D35       -1.67020   0.00006   0.00000  -0.01989  -0.01988  -1.69008
   D36        0.28186   0.00018   0.00000  -0.00214  -0.00210   0.27977
   D37        2.34722  -0.00034   0.00000  -0.00559  -0.00556   2.34165
         Item               Value     Threshold  Converged?
 Maximum Force            0.006830     0.000450     NO 
 RMS     Force            0.001817     0.000300     NO 
 Maximum Displacement     0.280567     0.001800     NO 
 RMS     Displacement     0.049095     0.001200     NO 
 Predicted change in Energy=-4.242508D-04
 GradGradGradGradGradGradGradGradGradGradGradGradGradGradGradGradGradGrad

                          Input orientation:                          
 ---------------------------------------------------------------------
 Center     Atomic      Atomic             Coordinates (Angstroms)
 Number     Number       Type             X           Y           Z
 ---------------------------------------------------------------------
      1          7           0        0.173636   -0.787143    0.844660
      2          7           0        0.438938   -0.631454   -0.340321
      3          6           0       -1.239627   -0.883045    1.094635
      4          6           0        1.885785   -0.459258   -0.548699
      5          8           0        2.700401   -0.367384    0.322577
      6          8           0       -1.847249    0.067835    1.504660
      7          8           0        2.088063   -0.486470   -1.836462
      8          8           0       -1.664171   -2.100626    0.918958
      9          6           0       -3.075573   -2.312261    1.131242
     10          1           0       -3.232878   -3.372765    0.962034
     11          1           0       -3.343084   -2.041115    2.151066
     12          1           0       -3.637957   -1.719426    0.412393
     13          6           0        3.443013   -0.267580   -2.261313
     14          1           0        3.779675    0.710679   -1.921815
     15          1           0        4.091461   -1.047589   -1.864509
     16          1           0        3.415594   -0.308356   -3.345920
     17          8           0       -1.791345    2.225118   -0.348221
     18          1           0       -1.911405    1.727715    0.473032
     19          1           0       -2.345453    3.006179   -0.283898
     20          8           0       -2.154584   -0.344837   -1.734718
     21          1           0       -2.157005    0.589076   -1.488115
     22          1           0       -1.229582   -0.597599   -1.646311
     23          8           0        1.137781    2.237373   -0.453232
     24          1           0        1.327247    2.248642    0.496652
     25          1           0        0.182742    2.366951   -0.522625
     26          8           0        1.844020    1.595142    2.277840
     27          1           0        2.145984    0.760970    1.890714
     28          1           0        1.133941    1.349618    2.874545
 ---------------------------------------------------------------------
                    Distance matrix (angstroms):
                    1          2          3          4          5
     1  N    0.000000
     2  N    1.224257   0.000000
     3  C    1.438401   2.222606   0.000000
     4  C    2.231683   1.471883   3.556450   0.000000
     5  O    2.614059   2.371367   4.047937   1.196312   0.000000
     6  O    2.291411   3.019870   1.200624   4.292978   4.718883
     7  O    3.308148   2.231383   4.452204   1.303836   2.247351
     8  O    2.260154   2.857852   1.301385   4.177355   4.733845
     9  C    3.600761   4.164421   2.326950   5.556158   6.148037
    10  H    4.278266   4.763733   3.192075   6.080424   6.681693
    11  H    3.955561   4.743189   2.623300   6.093609   6.532110
    12  H    3.947689   4.286179   2.630015   5.746603   6.481579
    13  C    4.539366   3.584283   5.793816   2.322660   2.690339
    14  H    4.785433   3.932298   6.068964   2.615535   2.713733
    15  H    4.770406   3.979603   6.099516   2.634861   2.679752
    16  H    5.319821   4.242464   6.459093   3.191792   3.738029
    17  O    3.789173   3.624117   3.470865   4.557121   5.229418
    18  H    3.287859   3.428022   2.766541   4.499493   5.067626
    19  H    4.691347   4.581309   4.271916   5.475651   6.099949
    20  O    3.502775   2.958521   3.021929   4.212400   5.272935
    21  H    3.573193   3.089667   3.111161   4.280848   5.271415
    22  H    2.865289   2.119130   2.755787   3.305964   4.401622
    23  O    3.429547   2.954877   4.217223   2.800080   3.135031
    24  H    3.266177   3.128029   4.093151   2.955917   2.959636
    25  H    3.437711   3.014847   3.898864   3.299771   3.811766
    26  O    3.243373   3.713052   4.129197   3.494514   2.899647
    27  H    2.716806   3.135342   3.846932   2.739963   2.009880
    28  H    3.099736   3.839667   3.713043   3.944098   3.451730
                    6          7          8          9         10
     6  O    0.000000
     7  O    5.192016   0.000000
     8  O    2.253616   4.927179   0.000000
     9  C    2.704270   6.229279   1.442882   0.000000
    10  H    3.748618   6.668935   2.020157   1.085378   0.000000
    11  H    2.665151   6.914814   2.083358   1.088633   1.788640
    12  H    2.755718   6.274140   2.073102   1.088336   1.788778
    13  C    6.502457   1.436768   6.289477   7.627721   8.037392
    14  H    6.619386   2.074127   6.753435   8.090350   8.612027
    15  H    6.918363   2.080683   6.479496   7.870216   8.187902
    16  H    7.167090   2.018051   6.870621   8.136085   8.494190
    17  O    2.844322   4.961590   4.509321   4.942253   5.927148
    18  H    1.955397   5.121730   3.862146   4.255577   5.291533
    19  H    3.475775   5.853642   5.290601   5.551711   6.559786
    20  O    3.279988   4.246229   3.219518   3.596207   4.195657
    21  H    3.053579   4.393034   3.642991   4.015290   4.780891
    22  H    3.279166   3.324947   3.004757   3.750007   4.303279
    23  O    4.177397   3.199326   5.343414   6.400163   7.251158
    24  H    3.981134   3.674656   5.295569   6.370978   7.253381
    25  H    3.676505   3.674020   5.044650   5.936911   6.842150
    26  O    4.068900   4.617375   5.273772   6.386304   7.224012
    27  H    4.071288   3.930814   4.863160   6.106243   6.847070
    28  H    3.522364   5.145402   4.853652   5.845380   6.710269
                   11         12         13         14         15
    11  H    0.000000
    12  H    1.792601   0.000000
    13  C    8.286473   7.706926   0.000000
    14  H    8.654157   8.147098   1.088848   0.000000
    15  H    8.507902   8.085762   1.089197   1.786617   0.000000
    16  H    8.882513   8.115949   1.085720   1.788593   1.788250
    17  O    5.182189   4.421305   6.105077   5.983810   6.900517
    18  H    4.366874   3.855832   6.334638   6.257639   7.014329
    19  H    5.692055   4.948406   6.937868   6.743092   7.769506
    20  O    4.403318   2.949572   5.622843   6.030303   6.286794
    21  H    4.644171   3.336814   5.717684   5.953743   6.470214
    22  H    4.579378   3.361105   4.724435   5.184607   5.344492
    23  O    6.720564   6.262048   3.854613   3.386316   4.637553
    24  H    6.553708   6.356564   4.291178   3.772097   4.907249
    25  H    6.245888   5.671902   4.537968   4.199868   5.360766
    26  O    6.335968   6.672206   5.160468   4.708093   5.403154
    27  H    6.168414   6.464656   4.469847   4.148115   4.599725
    28  H    5.662530   6.184839   5.858685   5.514819   6.078829
                   16         17         18         19         20
    16  H    0.000000
    17  O    6.520499   0.000000
    18  H    6.863447   0.967616   0.000000
    19  H    7.317909   0.959807   1.547840   0.000000
    20  O    5.798637   2.942614   3.037888   3.656585   0.000000
    21  H    5.942280   2.027239   2.280990   2.707034   0.965925
    22  H    4.954795   3.157268   3.219252   4.011053   0.962981
    23  O    4.476251   2.931033   3.227267   3.571086   4.376035
    24  H    5.066043   3.231095   3.280364   3.830385   4.881422
    25  H    5.057627   1.986845   2.405287   2.618659   3.779689
    26  O    6.141648   4.528680   4.168708   5.109326   5.987735
    27  H    5.493424   4.760160   4.405318   5.472012   5.732491
    28  H    6.830009   4.439597   3.896710   4.982583   5.910235
                   21         22         23         24         25
    21  H    0.000000
    22  H    1.514377   0.000000
    23  O    3.826680   3.881354   0.000000
    24  H    4.339754   4.385287   0.968660   0.000000
    25  H    3.093126   3.470718   0.966284   1.537144   0.000000
    26  O    5.585946   5.445558   2.893093   1.966405   3.346362
    27  H    5.473733   5.074515   2.947936   2.197023   3.501100
    28  H    5.517386   5.460406   3.444158   2.549508   3.671582
                   26         27         28
    26  O    0.000000
    27  H    0.967932   0.000000
    28  H    0.959454   1.529269   0.000000
 Stoichiometry    C4H14N2O8
 Framework group  C1[X(C4H14N2O8)]
 Deg. of freedom    78
 Full point group                 C1      NOp   1
 Largest Abelian subgroup         C1      NOp   1
 Largest concise Abelian subgroup C1      NOp   1
                         Standard orientation:                         
 ---------------------------------------------------------------------
 Center     Atomic      Atomic             Coordinates (Angstroms)
 Number     Number       Type             X           Y           Z
 ---------------------------------------------------------------------
      1          7           0        0.335325   -0.270524   -1.005430
      2          7           0       -0.284899   -0.704276   -0.043148
      3          6           0        1.740445   -0.112461   -0.741515
      4          6           0       -1.727916   -0.778831   -0.323469
      5          8           0       -2.258587   -0.368737   -1.314112
      6          8           0        2.189176    0.970654   -0.482669
      7          8           0       -2.274376   -1.415766    0.674372
      8          8           0        2.380449   -1.229754   -0.930340
      9          6           0        3.801289   -1.191386   -0.682044
     10          1           0        4.157059   -2.191149   -0.909967
     11          1           0        4.272899   -0.457072   -1.332805
     12          1           0        3.974761   -0.949614    0.364822
     13          6           0       -3.704944   -1.540815    0.628105
     14          1           0       -4.158747   -0.551131    0.614740
     15          1           0       -4.004121   -2.104223   -0.254740
     16          1           0       -3.977397   -2.075217    1.533075
     17          8           0        1.086907    2.013502    1.923082
     18          1           0        1.552285    1.964675    1.076134
     19          1           0        1.429190    2.782301    2.384624
     20          8           0        1.655285   -0.861812    2.184792
     21          1           0        1.500415    0.076370    2.354620
     22          1           0        0.883861   -1.127303    1.673174
     23          8           0       -1.662757    1.712095    0.953826
     24          1           0       -1.571666    2.143651    0.091409
     25          1           0       -0.828123    1.880374    1.410742
     26          8           0       -1.386599    2.343062   -1.856086
     27          1           0       -1.573701    1.401025   -1.976298
     28          1           0       -0.498928    2.465914   -2.198868
[...]
 Alpha virt. eigenvalues --    1.76880   1.77908   1.79122   1.80609   1.81431
 Alpha virt. eigenvalues --    1.82356   1.83568   1.84544   1.85813   1.86155
 Alpha virt. eigenvalues --    1.87788   1.88605   1.89768   1.90731   1.92982
 Alpha virt. eigenvalues --    1.94102   1.95774   1.97298   1.98416   1.99688
 Alpha virt. eigenvalues --    2.02028   2.02553   2.04872   2.06615   2.07125
 Alpha virt. eigenvalues --    2.08036   2.09327   2.10060   2.11940   2.12700
 Alpha virt. eigenvalues --    2.13952   2.14762   2.17256   2.17857   2.19022
 Alpha virt. eigenvalues --    2.19965   2.20878   2.21292   2.21915   2.23323
 Alpha virt. eigenvalues --    2.24302   2.26026   2.29231   2.29413   2.31122
 Alpha virt. eigenvalues --    2.32008   2.33130   2.33708   2.34411   2.38373
 Alpha virt. eigenvalues --    2.38865   2.39886   2.40853   2.42169   2.43484
 Alpha virt. eigenvalues --    2.43894   2.44509   2.45437   2.48278   2.49077
 Alpha virt. eigenvalues --    2.49352   2.50493   2.52149   2.52554   2.54146
 Alpha virt. eigenvalues --    2.54746   2.55757   2.56956   2.57908   2.58980
 Alpha virt. eigenvalues --    2.61287   2.62429   2.62877   2.64324   2.65011
 Alpha virt. eigenvalues --    2.65175   2.66770   2.67189   2.69955   2.70896
 Alpha virt. eigenvalues --    2.72896   2.74210   2.76139   2.78570   2.80213
 Alpha virt. eigenvalues --    2.81010   2.82014   2.82905   2.83675   2.84641
 Alpha virt. eigenvalues --    2.85501   2.86317   2.87554   2.88039   2.88875
 Alpha virt. eigenvalues --    2.91450   2.92070   2.92757   2.93859   2.95236
 Alpha virt. eigenvalues --    2.96262   2.96680   3.00023   3.00810   3.02707
 Alpha virt. eigenvalues --    3.04115   3.05326   3.07459   3.08579   3.10482
 Alpha virt. eigenvalues --    3.14229   3.16026   3.17980   3.18796   3.20612
 Alpha virt. eigenvalues --    3.21003   3.22233   3.22791   3.25818   3.27037
 Alpha virt. eigenvalues --    3.27889   3.29757   3.31416   3.32261   3.35110
 Alpha virt. eigenvalues --    3.35296   3.35656   3.37246   3.38623   3.38795
 Alpha virt. eigenvalues --    3.41660   3.44011   3.45068   3.45947   3.47254
 Alpha virt. eigenvalues --    3.48268   3.48712   3.49483   3.53402   3.54872
 Alpha virt. eigenvalues --    3.58395   3.60872   3.61674   3.63250   3.65723
 Alpha virt. eigenvalues --    3.66863   3.67695   3.68756   3.70582   3.71508
 Alpha virt. eigenvalues --    3.74484   3.78463   3.82840   3.83859   3.85001
 Alpha virt. eigenvalues --    3.87019   3.90414   3.93520   3.94413   3.95927
 Alpha virt. eigenvalues --    3.99791   4.04297   4.06644   4.07267   4.08512
 Alpha virt. eigenvalues --    4.10048   4.17187   4.17669   4.24140   4.28333
 Alpha virt. eigenvalues --    4.29411   4.33207   4.37723   4.41515   4.42692
 Alpha virt. eigenvalues --    4.48940   4.51451   4.53385   4.55751   4.62690
 Alpha virt. eigenvalues --    4.65358   4.66771   4.72605   4.80036   4.84110
 Alpha virt. eigenvalues --    4.87093   4.91382   4.95890   4.97523   5.00503
 Alpha virt. eigenvalues --    5.02944   5.08860   5.10671   5.16559   5.17209
 Alpha virt. eigenvalues --    5.19073   5.20732   5.21804   5.22211   5.24981
 Alpha virt. eigenvalues --    5.25614   5.27037   5.27734   5.30065   5.32403
 Alpha virt. eigenvalues --    5.33348   5.35307   5.39094   5.39757   5.44143
 Alpha virt. eigenvalues --    5.46428   5.47779   5.48430   5.50311   5.50817
 Alpha virt. eigenvalues --    5.51931   5.52531   5.54077   5.55253   5.55971
 Alpha virt. eigenvalues --    5.56456   5.57204   5.58930   5.59547   5.60200
 Alpha virt. eigenvalues --    5.60751   5.67251   5.73686   5.75035   5.75978
 Alpha virt. eigenvalues --    5.78145   5.91286   5.92929   5.96578   5.99522
 Alpha virt. eigenvalues --    6.08412   6.10866   6.12964   6.13033   6.14259
 Alpha virt. eigenvalues --    6.16303   6.17532   6.21133   6.23606   6.28598
 Alpha virt. eigenvalues --    6.31003   6.31816   6.33236   6.34053   6.36352
 Alpha virt. eigenvalues --    6.39118   6.43513   6.44829   6.45258   6.46912
 Alpha virt. eigenvalues --    6.48498   6.49150   6.49795   6.50853   6.52430
 Alpha virt. eigenvalues --    6.53724   6.54342   6.56383   6.56581   6.57034
 Alpha virt. eigenvalues --    6.59029   6.60175   6.61362   6.62349   6.66059
 Alpha virt. eigenvalues --    6.72655   6.73534   6.78633   6.81752   6.84980
 Alpha virt. eigenvalues --    6.86773   6.93412   6.97985   6.99737   7.00897
 Alpha virt. eigenvalues --    7.02245   7.03911   7.04965   7.07611   7.10917
 Alpha virt. eigenvalues --    7.11712   7.13416   7.14580   7.17178   7.21963
 Alpha virt. eigenvalues --    7.25204   7.28941   7.31640   7.42143   7.47503
 Alpha virt. eigenvalues --    7.50122   7.53390  22.50180  22.52087  23.50675
 Alpha virt. eigenvalues --   23.61420  32.45890  32.56233  43.70876  43.75061
 Alpha virt. eigenvalues --   43.78431  43.85461  44.12707  44.13540  44.29822
 Alpha virt. eigenvalues --   44.32528
          Condensed to atoms (all electrons):
               1          2          3          4          5          6
     1  N   24.265067 -15.843738   0.503659  -0.792630   0.088140  -0.596877
     2  N  -15.843738  22.393207  -0.431020   0.773852  -0.240234   0.513399
     3  C    0.503659  -0.431020   4.970226  -0.150675  -0.000831   0.504834
     4  C   -0.792630   0.773852  -0.150675   5.026176   0.541272   0.032857
     5  O    0.088140  -0.240234  -0.000831   0.541272   8.167376   0.003284
     6  O   -0.596877   0.513399   0.504834   0.032857   0.003284   8.142887
     7  O   -0.441747   0.062529  -0.008746   0.301639  -0.106270   0.010190
     8  O    0.102048  -0.122277   0.200034  -0.037109  -0.013376  -0.174803
     9  C   -0.224702   0.201104  -0.125509   0.008135   0.000315   0.006556
    10  H    0.004398  -0.004376   0.015089  -0.000728  -0.000008   0.003149
    11  H    0.021626  -0.013431  -0.009025   0.000259   0.000007  -0.006948
    12  H   -0.024846   0.019021  -0.013653  -0.000149  -0.000020   0.001762
    13  C   -0.001703  -0.001519  -0.003258  -0.087637  -0.019938  -0.000536
    14  H    0.002523   0.000135  -0.000138  -0.009835  -0.001847  -0.000006
    15  H   -0.009446   0.006178   0.000229  -0.013645  -0.004482   0.000007
    16  H    0.001141  -0.002801  -0.000308   0.011220   0.004389   0.000005
    17  O    0.028143  -0.047396   0.001194   0.006327   0.000105  -0.027497
    18  H    0.063154  -0.054366  -0.000241  -0.006758   0.000083   0.001116
    19  H   -0.004789   0.006026  -0.001868  -0.000144  -0.000030   0.001164
    20  O   -0.257791   0.253161   0.072166   0.010703  -0.002276   0.029918
    21  H   -0.040284   0.045913  -0.009416   0.002420  -0.000121  -0.002025
    22  H    0.004816   0.006221  -0.011726   0.008394  -0.000488  -0.002788
    23  O    0.347344  -0.259764   0.040104  -0.128570  -0.006109  -0.024859
    24  H   -0.030285  -0.007283  -0.000712   0.019454   0.000205   0.000556
    25  H    0.045312  -0.052870  -0.003395   0.005491   0.001138  -0.000049
    26  O    0.100397  -0.074425  -0.012961   0.027645  -0.043997  -0.003799
    27  H   -0.016085   0.045619  -0.002798  -0.005511   0.000005   0.000661
    28  H    0.021354  -0.013033   0.008406  -0.007867  -0.001950  -0.000357
               7          8          9         10         11         12
     1  N   -0.441747   0.102048  -0.224702   0.004398   0.021626  -0.024846
     2  N    0.062529  -0.122277   0.201104  -0.004376  -0.013431   0.019021
     3  C   -0.008746   0.200034  -0.125509   0.015089  -0.009025  -0.013653
     4  C    0.301639  -0.037109   0.008135  -0.000728   0.000259  -0.000149
     5  O   -0.106270  -0.013376   0.000315  -0.000008   0.000007  -0.000020
     6  O    0.010190  -0.174803   0.006556   0.003149  -0.006948   0.001762
     7  O    8.289733  -0.042822  -0.004401  -0.000065   0.000015  -0.000022
     8  O   -0.042822   8.236980   0.199888  -0.053520  -0.024935  -0.014118
     9  C   -0.004401   0.199888   4.945517   0.408694   0.409856   0.416328
    10  H   -0.000065  -0.053520   0.408694   0.491815  -0.018448  -0.017248
    11  H    0.000015  -0.024935   0.409856  -0.018448   0.492632  -0.025775
    12  H   -0.000022  -0.014118   0.416328  -0.017248  -0.025775   0.469785
    13  C    0.190526  -0.003730  -0.001615  -0.000008  -0.000002   0.000025
    14  H   -0.018661  -0.000018  -0.000001   0.000000   0.000000   0.000000
    15  H   -0.018067  -0.000028   0.000005   0.000000   0.000000   0.000000
    16  H   -0.056724  -0.000015  -0.000006   0.000000   0.000000   0.000000
    17  O    0.001044   0.001297   0.002630  -0.000046   0.000105  -0.000225
    18  H   -0.001232   0.003942  -0.000171   0.000009   0.000040  -0.000050
    19  H   -0.000022  -0.000025   0.000303   0.000000  -0.000002   0.000011
    20  O   -0.000533  -0.056468  -0.017434  -0.001108   0.000913  -0.002653
    21  H   -0.000840   0.001031   0.001212   0.000025  -0.000004  -0.000072
    22  H    0.000992  -0.001857   0.001186   0.000007  -0.000025   0.000115
    23  O    0.023475  -0.012088  -0.004692  -0.000009  -0.000004   0.000028
    24  H    0.008021   0.000066   0.000480   0.000000   0.000000   0.000000
    25  H   -0.003437   0.000208  -0.000047   0.000000   0.000001  -0.000002
    26  O   -0.001493  -0.000828  -0.002519   0.000002   0.000015  -0.000007
    27  H   -0.000411   0.001676  -0.000088   0.000000   0.000000   0.000000
    28  H   -0.000918   0.000798   0.000642   0.000000   0.000000   0.000000
              13         14         15         16         17         18
     1  N   -0.001703   0.002523  -0.009446   0.001141   0.028143   0.063154
     2  N   -0.001519   0.000135   0.006178  -0.002801  -0.047396  -0.054366
     3  C   -0.003258  -0.000138   0.000229  -0.000308   0.001194  -0.000241
     4  C   -0.087637  -0.009835  -0.013645   0.011220   0.006327  -0.006758
     5  O   -0.019938  -0.001847  -0.004482   0.004389   0.000105   0.000083
     6  O   -0.000536  -0.000006   0.000007   0.000005  -0.027497   0.001116
     7  O    0.190526  -0.018661  -0.018067  -0.056724   0.001044  -0.001232
     8  O   -0.003730  -0.000018  -0.000028  -0.000015   0.001297   0.003942
     9  C   -0.001615  -0.000001   0.000005  -0.000006   0.002630  -0.000171
    10  H   -0.000008   0.000000   0.000000   0.000000  -0.000046   0.000009
    11  H   -0.000002   0.000000   0.000000   0.000000   0.000105   0.000040
    12  H    0.000025   0.000000   0.000000   0.000000  -0.000225  -0.000050
    13  C    4.925193   0.412572   0.413307   0.413846  -0.000689  -0.000044
    14  H    0.412572   0.471317  -0.026510  -0.017531   0.000000   0.000000
    15  H    0.413307  -0.026510   0.501249  -0.019511   0.000006   0.000000
    16  H    0.413846  -0.017531  -0.019511   0.494002  -0.000002   0.000000
    17  O   -0.000689   0.000000   0.000006  -0.000002   8.207203   0.307693
    18  H   -0.000044   0.000000   0.000000   0.000000   0.307693   0.339670
    19  H    0.000020   0.000000   0.000000   0.000000   0.317264  -0.009666
    20  O    0.000069   0.000011   0.000006  -0.000004  -0.009863  -0.003241
    21  H    0.000302  -0.000001   0.000000  -0.000001  -0.001074  -0.004706
    22  H   -0.000311  -0.000005   0.000001   0.000009   0.003117   0.000048
    23  O    0.015373  -0.001245   0.000452   0.000041  -0.002216  -0.001856
    24  H   -0.001502   0.000048  -0.000001   0.000000   0.000665   0.000138
    25  H   -0.001878   0.000012  -0.000012  -0.000019  -0.029768  -0.000270
    26  O    0.002694   0.000035  -0.000026  -0.000032  -0.002340  -0.000545
    27  H   -0.001156  -0.000077   0.000037   0.000001   0.000140  -0.000018
    28  H   -0.000749   0.000000   0.000000   0.000000   0.000231   0.000020
              19         20         21         22         23         24
     1  N   -0.004789  -0.257791  -0.040284   0.004816   0.347344  -0.030285
     2  N    0.006026   0.253161   0.045913   0.006221  -0.259764  -0.007283
     3  C   -0.001868   0.072166  -0.009416  -0.011726   0.040104  -0.000712
     4  C   -0.000144   0.010703   0.002420   0.008394  -0.128570   0.019454
     5  O   -0.000030  -0.002276  -0.000121  -0.000488  -0.006109   0.000205
     6  O    0.001164   0.029918  -0.002025  -0.002788  -0.024859   0.000556
     7  O   -0.000022  -0.000533  -0.000840   0.000992   0.023475   0.008021
     8  O   -0.000025  -0.056468   0.001031  -0.001857  -0.012088   0.000066
     9  C    0.000303  -0.017434   0.001212   0.001186  -0.004692   0.000480
    10  H    0.000000  -0.001108   0.000025   0.000007  -0.000009   0.000000
    11  H   -0.000002   0.000913  -0.000004  -0.000025  -0.000004   0.000000
    12  H    0.000011  -0.002653  -0.000072   0.000115   0.000028   0.000000
    13  C    0.000020   0.000069   0.000302  -0.000311   0.015373  -0.001502
    14  H    0.000000   0.000011  -0.000001  -0.000005  -0.001245   0.000048
    15  H    0.000000   0.000006   0.000000   0.000001   0.000452  -0.000001
    16  H    0.000000  -0.000004  -0.000001   0.000009   0.000041   0.000000
    17  O    0.317264  -0.009863  -0.001074   0.003117  -0.002216   0.000665
    18  H   -0.009666  -0.003241  -0.004706   0.000048  -0.001856   0.000138
    19  H    0.315055   0.000470   0.000653  -0.000032  -0.001177  -0.000016
    20  O    0.000470   8.014212   0.335100   0.331845  -0.007672  -0.000027
    21  H    0.000653   0.335100   0.332944  -0.029967  -0.001895   0.000018
    22  H   -0.000032   0.331845  -0.029967   0.335709   0.001156   0.000048
    23  O   -0.001177  -0.007672  -0.001895   0.001156   8.115902   0.348018
    24  H   -0.000016  -0.000027   0.000018   0.000048   0.348018   0.332978
    25  H    0.001439   0.000856  -0.001302  -0.000290   0.338289  -0.030971
    26  O    0.000049   0.000904   0.000003  -0.000207  -0.022740  -0.011623
    27  H   -0.000002   0.000103  -0.000002  -0.000004  -0.007186   0.000867
    28  H    0.000001   0.000074   0.000000  -0.000004  -0.004456  -0.000165
              25         26         27         28
     1  N    0.045312   0.100397  -0.016085   0.021354
     2  N   -0.052870  -0.074425   0.045619  -0.013033
     3  C   -0.003395  -0.012961  -0.002798   0.008406
     4  C    0.005491   0.027645  -0.005511  -0.007867
     5  O    0.001138  -0.043997   0.000005  -0.001950
     6  O   -0.000049  -0.003799   0.000661  -0.000357
     7  O   -0.003437  -0.001493  -0.000411  -0.000918
     8  O    0.000208  -0.000828   0.001676   0.000798
     9  C   -0.000047  -0.002519  -0.000088   0.000642
    10  H    0.000000   0.000002   0.000000   0.000000
    11  H    0.000001   0.000015   0.000000   0.000000
    12  H   -0.000002  -0.000007   0.000000   0.000000
    13  C   -0.001878   0.002694  -0.001156  -0.000749
    14  H    0.000012   0.000035  -0.000077   0.000000
    15  H   -0.000012  -0.000026   0.000037   0.000000
    16  H   -0.000019  -0.000032   0.000001   0.000000
    17  O   -0.029768  -0.002340   0.000140   0.000231
    18  H   -0.000270  -0.000545  -0.000018   0.000020
    19  H    0.001439   0.000049  -0.000002   0.000001
    20  O    0.000856   0.000904   0.000103   0.000074
    21  H   -0.001302   0.000003  -0.000002   0.000000
    22  H   -0.000290  -0.000207  -0.000004  -0.000004
    23  O    0.338289  -0.022740  -0.007186  -0.004456
    24  H   -0.030971  -0.011623   0.000867  -0.000165
    25  H    0.343330   0.001008   0.000476   0.000141
    26  O    0.001008   8.070139   0.310353   0.317728
    27  H    0.000476   0.310353   0.346498  -0.019240
    28  H    0.000141   0.317728  -0.019240   0.342866
 Mulliken charges:
               1
     1  N   -0.314199
     2  N   -0.157832
     3  C    0.470338
     4  C    0.465417
     5  O   -0.364341
     6  O   -0.411802
     7  O   -0.181753
     8  O   -0.189949
     9  C   -0.221667
    10  H    0.172377
    11  H    0.173133
    12  H    0.191766
    13  C   -0.247649
    14  H    0.189221
    15  H    0.170250
    16  H    0.172302
    17  O   -0.756048
    18  H    0.367251
    19  H    0.375319
    20  O   -0.691440
    21  H    0.372090
    22  H    0.354038
    23  O   -0.743643
    24  H    0.371024
    25  H    0.386607
    26  O   -0.653427
    27  H    0.346138
    28  H    0.356478
 Sum of Mulliken charges =   0.00000
 Mulliken charges with hydrogens summed into heavy atoms:
               1
     1  N   -0.314199
     2  N   -0.157832
     3  C    0.470338
     4  C    0.465417
     5  O   -0.364341
     6  O   -0.411802
     7  O   -0.181753
     8  O   -0.189949
     9  C    0.315609
    13  C    0.284124
    17  O   -0.013478
    20  O    0.034688
    23  O    0.013988
    26  O    0.049189
 Electronic spatial extent (au):  <R**2>=           3574.4796
 Charge=              0.0000 electrons
 Dipole moment (field-independent basis, Debye):
    X=              2.7648    Y=             -1.8870    Z=             -1.1898  Tot=              3.5526
 Quadrupole moment (field-independent basis, Debye-Ang):
   XX=            -66.1575   YY=            -77.9777   ZZ=            -90.6652
   XY=             14.3713   XZ=            -10.0410   YZ=              6.8574
 Traceless Quadrupole moment (field-independent basis, Debye-Ang):
   XX=             12.1093   YY=              0.2891   ZZ=            -12.3984
   XY=             14.3713   XZ=            -10.0410   YZ=              6.8574
 Octapole moment (field-independent basis, Debye-Ang**2):
  XXX=             12.8019  YYY=             17.1028  ZZZ=             -8.7156  XYY=             29.1318
  XXY=            -51.6146  XXZ=              4.6582  XZZ=              6.1454  YZZ=             18.3657
  YYZ=             20.0708  XYZ=             22.8263
 Hexadecapole moment (field-independent basis, Debye-Ang**3):
 XXXX=          -2048.3366 YYYY=           -921.9303 ZZZZ=           -843.3806 XXXY=             47.6392
 XXXZ=           -113.9187 YYYX=            116.3234 YYYZ=             83.5187 ZZZX=            -43.7181
 ZZZY=             45.2580 XXYY=           -518.0282 XXZZ=           -579.5778 YYZZ=           -280.7687
 XXYZ=             34.0281 YYXZ=              5.9529 ZZXY=             74.5740
 N-N= 1.050777718546D+03 E-N=-4.153456466054D+03  KE= 8.686611817303D+02
 1\1\GINC-D10S10B3\FOpt\RwB97XD\Gen\C4H14N2O8\PMMASS\09-Feb-2022\0\\#n 
 wB97XD/Gen scrf(smd,solvent=toluene) opt\\dmad cycloaddition toluene w
 ith water - opt\\0,1\N,0.1972417645,-0.8095855183,0.8748120811\N,0.466
 7119431,-0.6338900665,-0.3060989283\C,-1.2168625979,-0.9051092407,1.11
 7722614\C,1.9114950065,-0.4656506687,-0.5159489862\O,2.7220135379,-0.3
 129927278,0.3509420005\O,-1.8198341732,0.0339424719,1.5631360617\O,2.1
 19644377,-0.554094858,-1.7993152693\O,-1.6488975131,-2.1102021565,0.89
 27537047\C,-3.0619521118,-2.3241916874,1.071521442\H,-3.222559971,-3.3
 764506411,0.8580076217\H,-3.3494925695,-2.0930791431,2.0960305099\H,-3
 .6095405276,-1.7012986209,0.3664009625\C,3.4687929529,-0.3429944252,-2
 .2366866058\H,3.7813349847,0.6694775665,-1.9843300066\H,4.136443159,-1
 .0683247136,-1.7732268457\H,3.4504026627,-0.4762881371,-3.3143356591\O
 ,-1.8257642322,2.2187361662,-0.2444520679\H,-1.9031606264,1.6839843033
 ,0.5590499587\H,-2.3593643219,3.0049201525,-0.1112361444\O,-2.20943569
 96,-0.2550557255,-1.737062383\H,-2.2200174129,0.6652352984,-1.44261846
 54\H,-1.274054894,-0.4840731976,-1.7371801051\O,1.075920572,2.23717568
 92,-0.5143173911\H,1.3036767227,2.2710446355,0.426826718\H,0.114947070
 7,2.3373839763,-0.5405513788\O,1.8351186396,1.6823419029,2.2221500236\
 H,2.1900789775,0.8671836615,1.8390252793\H,1.1054842803,1.4002457038,2
 .777831259\\Version=ES64L-G09RevD.01\State=1-A\HF=-872.2515091\RMSD=1.
 158e-09\RMSF=8.463e-06\Dipole=-0.7780912,-1.0894845,0.4014233\Quadrupo
 le=4.3045563,-0.4560379,-3.8485184,-5.6195248,-15.1136418,-1.4648495\P
 G=C01 [X(C4H14N2O8)]\\@


 WOMEN HOLD UP HALF THE SKY. -- MAO TSE TUNG
 Job cpu time:       1 days  9 hours  9 minutes 59.7 seconds.
 File lengths (MBytes):  RWF=    280 Int=      0 D2E=      0 Chk=     24 Scr=      1
 Normal termination of Gaussian 09 at Wed Feb  9 17:04:13 2022.
