 Entering Gaussian System, Link 0=g09
 Input=dmad_water_ma_freq.com
 Output=dmad_water_ma_freq.log
 Initial command:
 /apps/applications/gaussian/G09.D01/2/default/g09/l1.exe "/nobackup/pmmass/Temp/Gau-192781.inp" -scrdir="/nobackup/pmmass/Temp/"
 Entering Link 1 = /apps/applications/gaussian/G09.D01/2/default/g09/l1.exe PID=    192783.
  
 Copyright (c) 1988,1990,1992,1993,1995,1998,2003,2009,2013,
            Gaussian, Inc.  All Rights Reserved.
  
 This is part of the Gaussian(R) 09 program.  It is based on
 the Gaussian(R) 03 system (copyright 2003, Gaussian, Inc.),
 the Gaussian(R) 98 system (copyright 1998, Gaussian, Inc.),
 the Gaussian(R) 94 system (copyright 1995, Gaussian, Inc.),
 the Gaussian 92(TM) system (copyright 1992, Gaussian, Inc.),
 the Gaussian 90(TM) system (copyright 1990, Gaussian, Inc.),
 the Gaussian 88(TM) system (copyright 1988, Gaussian, Inc.),
 the Gaussian 86(TM) system (copyright 1986, Carnegie Mellon
 University), and the Gaussian 82(TM) system (copyright 1983,
 Carnegie Mellon University). Gaussian is a federally registered
 trademark of Gaussian, Inc.
  
 This software contains proprietary and confidential information,
 including trade secrets, belonging to Gaussian, Inc.
  
 This software is provided under written license and may be
 used, copied, transmitted, or stored only in accord with that
 written license.
  
 The following legend is applicable only to US Government
 contracts under FAR:
  
                    RESTRICTED RIGHTS LEGEND
  
 Use, reproduction and disclosure by the US Government is
 subject to restrictions as set forth in subparagraphs (a)
 and (c) of the Commercial Computer Software - Restricted
 Rights clause in FAR 52.227-19.
  
 Gaussian, Inc.
 340 Quinnipiac St., Bldg. 40, Wallingford CT 06492
  
  
 ---------------------------------------------------------------
 Warning -- This program may not be used in any manner that
 competes with the business of Gaussian, Inc. or will provide
 assistance to any competitor of Gaussian, Inc.  The licensee
 of this program is prohibited from giving any competitor of
 Gaussian, Inc. access to this program.  By using this program,
 the user acknowledges that Gaussian, Inc. is engaged in the
 business of creating and licensing software in the field of
 computational chemistry and represents and warrants to the
 licensee that it is not a competitor of Gaussian, Inc. and that
 it will not use this program in any manner prohibited above.
 ---------------------------------------------------------------
  

 Cite this work as:
 Gaussian 09, Revision D.01,
 M. J. Frisch, G. W. Trucks, H. B. Schlegel, G. E. Scuseria, 
 M. A. Robb, J. R. Cheeseman, G. Scalmani, V. Barone, B. Mennucci, 
 G. A. Petersson, H. Nakatsuji, M. Caricato, X. Li, H. P. Hratchian, 
 A. F. Izmaylov, J. Bloino, G. Zheng, J. L. Sonnenberg, M. Hada, 
 M. Ehara, K. Toyota, R. Fukuda, J. Hasegawa, M. Ishida, T. Nakajima, 
 Y. Honda, O. Kitao, H. Nakai, T. Vreven, J. A. Montgomery, Jr., 
 J. E. Peralta, F. Ogliaro, M. Bearpark, J. J. Heyd, E. Brothers, 
 K. N. Kudin, V. N. Staroverov, T. Keith, R. Kobayashi, J. Normand, 
 K. Raghavachari, A. Rendell, J. C. Burant, S. S. Iyengar, J. Tomasi, 
 M. Cossi, N. Rega, J. M. Millam, M. Klene, J. E. Knox, J. B. Cross, 
 V. Bakken, C. Adamo, J. Jaramillo, R. Gomperts, R. E. Stratmann, 
 O. Yazyev, A. J. Austin, R. Cammi, C. Pomelli, J. W. Ochterski, 
 R. L. Martin, K. Morokuma, V. G. Zakrzewski, G. A. Voth, 
 P. Salvador, J. J. Dannenberg, S. Dapprich, A. D. Daniels, 
 O. Farkas, J. B. Foresman, J. V. Ortiz, J. Cioslowski, 
 and D. J. Fox, Gaussian, Inc., Wallingford CT, 2013.
 
 ******************************************
 Gaussian 09:  ES64L-G09RevD.01 24-Apr-2013
                11-Feb-2022 
 ******************************************
 %nprocshared=8
 Will use up to    8 processors via shared memory.
 %mem=4GB
 %NoSave
 %chk="dmad_water_ma_freq.chk"
 --------------------------------------------
 #n wB97XD/Gen scrf(smd,solvent=toluene) freq
 --------------------------------------------
 1/10=4,30=1,38=1/1,3;
 2/12=2,17=6,18=5,40=1/2;
 3/5=7,11=2,16=1,25=1,30=1,70=32201,71=2,72=13,74=-58,140=1/1,2,3;
 4//1;
 5/5=2,38=5,53=13,98=1/2;
 8/6=4,10=90,11=11/1;
 11/6=1,8=1,9=11,15=111,16=1/1,2,10;
 10/6=1/2;
 6/7=2,8=2,9=2,10=2,18=1,28=1/1;
 7/8=1,10=1,25=1/1,2,3,16;
 1/10=4,30=1/3;
 99//99;
 ---------------------------------------
 dmad cycloaddition water toluene - freq
 ---------------------------------------
 Symbolic Z-matrix:
 Charge =  0 Multiplicity = 1
 N                     0.3111   -0.34314  -1.02676 
 N                    -0.30743  -0.69786  -0.03196 
 C                     1.71965  -0.18641  -0.78337 
 C                    -1.75219  -0.77823  -0.28873 
 O                    -2.30375  -0.36488  -1.26683 
 O                     2.18931   0.90849  -0.62718 
 O                    -2.28106  -1.40813   0.72207 
 O                     2.33788  -1.32662  -0.86835 
 C                     3.75497  -1.3037   -0.61186 
 H                     4.08795  -2.32828  -0.74605 
 H                     4.25346  -0.64321  -1.31966 
 H                     3.92745  -0.97472   0.4114 
 C                    -3.7094   -1.53375   0.71113 
 H                    -4.16423  -0.54458   0.74494 
 H                    -4.03717  -2.06721  -0.1803 
 H                    -3.95967  -2.09658   1.60556 
 O                     1.19196   2.1428    1.72283 
 H                     1.60952   1.99743   0.86139 
 H                     1.54571   2.96362   2.07163 
 O                     1.7064   -0.67344   2.26953 
 H                     1.58591   0.2823    2.34554 
 H                     0.88636  -0.97557   1.865 
 O                    -1.59423   1.75456   0.96167 
 H                    -1.55418   2.14993   0.07801 
 H                    -0.72796   1.93178   1.35201 
 O                    -1.41789   2.3027   -1.87398 
 H                    -1.66744   1.37076  -1.95446 
 H                    -0.51849   2.35005  -2.20499 
 

 GradGradGradGradGradGradGradGradGradGradGradGradGradGradGradGradGradGrad
 Berny optimization.
 Initialization pass.
 Trust Radius=3.00D-01 FncErr=1.00D-07 GrdErr=1.00D-07
 Number of steps in this run=      2 maximum allowed number of steps=      2.
 GradGradGradGradGradGradGradGradGradGradGradGradGradGradGradGradGradGrad

                          Input orientation:                          
 ---------------------------------------------------------------------
 Center     Atomic      Atomic             Coordinates (Angstroms)
 Number     Number       Type             X           Y           Z
 ---------------------------------------------------------------------
      1          7           0        0.311100   -0.343140   -1.026760
      2          7           0       -0.307430   -0.697860   -0.031960
      3          6           0        1.719650   -0.186410   -0.783370
      4          6           0       -1.752190   -0.778230   -0.288730
      5          8           0       -2.303750   -0.364880   -1.266830
      6          8           0        2.189310    0.908490   -0.627180
      7          8           0       -2.281060   -1.408130    0.722070
      8          8           0        2.337880   -1.326620   -0.868350
      9          6           0        3.754970   -1.303700   -0.611860
     10          1           0        4.087950   -2.328280   -0.746050
     11          1           0        4.253460   -0.643210   -1.319660
     12          1           0        3.927450   -0.974720    0.411400
     13          6           0       -3.709400   -1.533750    0.711130
     14          1           0       -4.164230   -0.544580    0.744940
     15          1           0       -4.037170   -2.067210   -0.180300
     16          1           0       -3.959670   -2.096580    1.605560
     17          8           0        1.191960    2.142800    1.722830
     18          1           0        1.609520    1.997430    0.861390
     19          1           0        1.545710    2.963620    2.071630
     20          8           0        1.706400   -0.673440    2.269530
     21          1           0        1.585910    0.282300    2.345540
     22          1           0        0.886360   -0.975570    1.865000
     23          8           0       -1.594230    1.754560    0.961670
     24          1           0       -1.554180    2.149930    0.078010
     25          1           0       -0.727960    1.931780    1.352010
     26          8           0       -1.417890    2.302700   -1.873980
     27          1           0       -1.667440    1.370760   -1.954460
     28          1           0       -0.518490    2.350050   -2.204990
 ---------------------------------------------------------------------
                    Distance matrix (angstroms):
                    1          2          3          4          5
     1  N    0.000000
     2  N    1.223941   0.000000
     3  C    1.437990   2.221543   0.000000
     4  C    2.234090   1.469599   3.556486   0.000000
     5  O    2.625937   2.370880   4.056271   1.196560   0.000000
     6  O    2.292142   3.027930   1.201575   4.300581   4.713620
     7  O    3.303317   2.228959   4.445743   1.303148   2.246021
     8  O    2.258354   2.844741   1.299811   4.167177   4.756938
     9  C    3.599314   4.148062   2.328150   5.541601   6.165911
    10  H    4.276000   4.742105   3.193406   6.059623   6.706712
    11  H    3.964598   4.739502   2.629918   6.094988   6.563327
    12  H    3.942738   4.267016   2.631214   5.726002   6.481992
    13  C    4.538968   3.581102   5.789943   2.324049   2.693406
    14  H    4.817476   3.937255   6.089668   2.634578   2.746069
    15  H    4.753563   3.975938   6.086220   2.625711   2.661432
    16  H    5.314427   4.239899   6.450613   3.193642   3.740519
    17  O    3.809994   3.660165   3.461895   4.609426   5.238942
    18  H    3.275557   3.425983   2.736151   4.508676   5.042173
    19  H    4.696695   4.611470   4.254876   5.518051   6.086261
    20  O    3.594647   3.058262   3.091532   4.303199   5.355591
    21  H    3.659060   3.193424   3.166647   4.382581   5.347664
    22  H    3.015488   2.258476   2.886349   3.411663   4.511995
    23  O    3.461861   2.942366   4.218333   2.829042   3.156209
    24  H    3.303814   3.110689   4.113201   2.957673   2.948681
    25  H    3.451587   3.001204   3.877805   3.329449   3.823099
    26  O    3.272256   3.691818   4.150814   3.480934   2.875650
    27  H    2.777175   3.134457   3.907507   2.720294   1.972352
    28  H    3.054459   3.749181   3.669319   3.870427   3.382032
                    6          7          8          9         10
     6  O    0.000000
     7  O    5.212620   0.000000
     8  O    2.252988   4.885764   0.000000
     9  C    2.710223   6.182551   1.440297   0.000000
    10  H    3.754417   6.600480   2.020155   1.085655   0.000000
    11  H    2.673578   6.888666   2.083309   1.088908   1.787703
    12  H    2.765187   6.231369   2.070827   1.088595   1.788177
    13  C    6.523066   1.433895   6.253579   7.584197   7.972034
    14  H    6.660450   2.071852   6.744755   8.070372   8.573396
    15  H    6.915457   2.081485   6.454700   7.841342   8.148976
    16  H    7.198995   2.017982   6.809714   8.066057   8.387368
    17  O    2.835626   5.066803   4.479310   4.888574   5.871344
    18  H    1.933336   5.172414   3.817305   4.203675   5.238153
    19  H    3.452732   5.964703   5.260910   5.503814   6.512028
    20  O    3.335661   4.339843   3.266757   3.591138   4.183778
    21  H    3.097300   4.521799   3.671944   3.995802   4.757443
    22  H    3.385014   3.394988   3.114699   3.804133   4.347135
    23  O    4.189923   3.245266   5.320163   6.359473   7.202295
    24  H    4.006518   3.688219   5.303784   6.371072   7.250315
    25  H    3.670801   3.736836   4.994652   5.867008   6.763354
    26  O    4.063277   4.610293   5.318746   6.430983   7.282340
    27  H    4.104861   3.906734   4.949554   6.193371   6.947493
    28  H    3.449603   5.079198   4.843899   5.843835   6.725665
                   11         12         13         14         15
    11  H    0.000000
    12  H    1.792415   0.000000
    13  C    8.265852   7.663148   0.000000
    14  H    8.667745   8.109966   1.089252   0.000000
    15  H    8.488843   8.060944   1.089339   1.786229   0.000000
    16  H    8.838818   8.055511   1.086010   1.786397   1.787782
    17  O    5.137254   4.349906   6.209983   6.071824   6.977814
    18  H    4.326705   3.795914   6.386135   6.309641   7.035021
    19  H    5.642870   4.892808   7.049360   6.831617   7.845316
    20  O    4.401217   2.911439   5.700845   6.066735   6.397879
    21  H    4.626671   3.286914   5.831779   6.025758   6.596900
    22  H    4.646492   3.370635   4.771162   5.191218   5.442066
    23  O    6.719319   6.183908   3.917869   3.455129   4.677390
    24  H    6.594224   6.318453   4.314547   3.810189   4.900636
    25  H    6.211517   5.568243   4.616233   4.278884   5.412094
    26  O    6.414816   6.673612   5.162573   4.744273   5.368919
    27  H    6.286184   6.511633   4.439724   4.145992   4.536838
    28  H    5.702186   6.137261   5.811159   5.511115   5.999389
                   16         17         18         19         20
    16  H    0.000000
    17  O    6.672735   0.000000
    18  H    6.952020   0.968281   0.000000
    19  H    7.492133   0.959451   1.549928   0.000000
    20  O    5.879671   2.914573   3.020892   3.645983   0.000000
    21  H    6.079482   2.001106   2.268244   2.695574   0.966299
    22  H    4.980761   3.136532   3.220081   3.999332   0.963012
    23  O    4.565214   2.914267   3.214507   3.543030   4.301144
    24  H    5.113965   3.201057   3.262811   3.774378   4.837929
    25  H    5.170679   1.966756   2.389316   2.598485   3.681728
    26  O    6.158044   4.446788   4.091534   4.978713   5.982246
    27  H    5.472706   4.721724   4.365798   5.391747   5.779588
    28  H    6.792240   4.289098   3.749060   4.788201   5.840630
                   21         22         23         24         25
    21  H    0.000000
    22  H    1.517408   0.000000
    23  O    3.767749   3.797755   0.000000
    24  H    4.299988   4.349519   0.968905   0.000000
    25  H    3.010296   3.364799   0.966538   1.534049   0.000000
    26  O    5.559602   5.480565   2.893521   1.962697   3.319728
    27  H    5.500821   5.159015   2.942189   2.179649   3.482831
    28  H    5.423229   5.440420   3.396993   2.514914   3.587628
                   26         27         28
    26  O    0.000000
    27  H    0.968124   0.000000
    28  H    0.959547   1.530314   0.000000
 Stoichiometry    C4H14N2O8
 Framework group  C1[X(C4H14N2O8)]
 Deg. of freedom    78
 Full point group                 C1      NOp   1
 Largest Abelian subgroup         C1      NOp   1
 Largest concise Abelian subgroup C1      NOp   1
                         Standard orientation:                         
 ---------------------------------------------------------------------
 Center     Atomic      Atomic             Coordinates (Angstroms)
 Number     Number       Type             X           Y           Z
 ---------------------------------------------------------------------
      1          7           0        0.311099   -0.343140   -1.026761
      2          7           0       -0.307431   -0.697860   -0.031961
      3          6           0        1.719649   -0.186411   -0.783371
      4          6           0       -1.752191   -0.778229   -0.288731
      5          8           0       -2.303751   -0.364879   -1.266831
      6          8           0        2.189310    0.908488   -0.627181
      7          8           0       -2.281061   -1.408129    0.722069
      8          8           0        2.337879   -1.326622   -0.868351
      9          6           0        3.754969   -1.303703   -0.611861
     10          1           0        4.087948   -2.328283   -0.746051
     11          1           0        4.253459   -0.643213   -1.319661
     12          1           0        3.927449   -0.974723    0.411399
     13          6           0       -3.709402   -1.533748    0.711129
     14          1           0       -4.164231   -0.544577    0.744939
     15          1           0       -4.037172   -2.067207   -0.180301
     16          1           0       -3.959672   -2.096577    1.605559
     17          8           0        1.191961    2.142799    1.722829
     18          1           0        1.609521    1.997429    0.861389
     19          1           0        1.545712    2.963619    2.071629
     20          8           0        1.706399   -0.673441    2.269529
     21          1           0        1.585910    0.282299    2.345539
     22          1           0        0.886359   -0.975571    1.864999
     23          8           0       -1.594229    1.754561    0.961669
     24          1           0       -1.554179    2.149931    0.078009
     25          1           0       -0.727959    1.931780    1.352009
     26          8           0       -1.417889    2.302701   -1.873981
     27          1           0       -1.667439    1.370761   -1.954461
     28          1           0       -0.518489    2.350050   -2.204991
 ---------------------------------------------------------------------
 Rotational constants (GHZ):      0.7043673      0.3841680      0.3613256
 General basis read from cards:  (5D, 7F)
 There are   644 symmetry adapted cartesian basis functions of A   symmetry.
 There are   574 symmetry adapted basis functions of A   symmetry.
   574 basis functions,   882 primitive gaussians,   644 cartesian basis functions
    58 alpha electrons       58 beta electrons
       nuclear repulsion energy      1050.7979887659 Hartrees.
 NAtoms=   28 NActive=   28 NUniq=   28 SFac= 1.00D+00 NAtFMM=   60 NAOKFM=F Big=F
 Integral buffers will be    131072 words long.
 Raffenetti 2 integral format.
 Two-electron integral symmetry is turned on.
 Nuclear repulsion after empirical dispersion term =     1050.7813300277 Hartrees.
 Force inversion solution in PCM.
 ------------------------------------------------------------------------------
 Polarizable Continuum Model (PCM)
 =================================
 Model                : PCM (using non-symmetric T matrix).
 Atomic radii         : SMD-Coulomb.
 Polarization charges : Total charges.
 Charge compensation  : None.
 Solution method      : Matrix inversion.
 Cavity type          : VdW (van der Waals Surface) (Alpha=1.000).
 Cavity algorithm     : GePol (No added spheres)
                        Default sphere list used, NSphG=   28.
                        Lebedev-Laikov grids with approx.  5.0 points / Ang**2.
                        Smoothing algorithm: Karplus/York (Gamma=1.0000).
                        Polarization charges: spherical gaussians, with
                                              point-specific exponents (IZeta= 3).
                        Self-potential: point-specific (ISelfS= 7).
                        Self-field    : sphere-specific E.n sum rule (ISelfD= 2).
 1st derivatives      : Analytical E(r).r(x)/FMM algorithm (CHGder, D1EAlg=3).
                        Cavity 1st derivative terms included.
 2nd derivatives      : Analytical E(r).r(xy)/FMM algorithm (CHGder, D2EAlg=3).
                        Cavity 2nd derivative terms included.
 Solvent              : Toluene, Eps=   2.374100 Eps(inf)=   2.238315
 ------------------------------------------------------------------------------
 ------------------------------------------------------------------------------
 Atomic radii for non-electrostatic terms: SMD-CDS.
 ------------------------------------------------------------------------------
 Nuclear repulsion after PCM non-electrostatic terms =     1050.7774593764 Hartrees.
 One-electron integrals computed using PRISM.
 NBasis=   574 RedAO= T EigKep=  1.29D-06  NBF=   574
 NBsUse=   574 1.00D-06 EigRej= -1.00D+00 NBFU=   574
 ExpMin= 3.17D-02 ExpMax= 2.70D+04 ExpMxC= 9.22D+02 IAcc=3 IRadAn=         5 AccDes= 0.00D+00
 Harris functional with IExCor= 4639 and IRadAn=       5 diagonalized for initial guess.
 HarFok:  IExCor= 4639 AccDes= 0.00D+00 IRadAn=         5 IDoV= 1 UseB2=F ITyADJ=14
 ICtDFT=  3500011 ScaDFX=  1.000000  1.000000  1.000000  1.000000
 FoFCou: FMM=F IPFlag=           0 FMFlag=      100000 FMFlg1=           0
         NFxFlg=           0 DoJE=T BraDBF=F KetDBF=T FulRan=T
         wScrn=  0.000000 ICntrl=     500 IOpCl=  0 I1Cent=   200000004 NGrid=           0
         NMat0=    1 NMatS0=      1 NMatT0=    0 NMatD0=    1 NMtDS0=    0 NMtDT0=    0
 Petite list used in FoFCou.
 Requested convergence on RMS density matrix=1.00D-08 within 128 cycles.
 Requested convergence on MAX density matrix=1.00D-06.
 Requested convergence on             energy=1.00D-06.
 No special actions if energy rises.
 Inv3:  Mode=1 IEnd=    14918700.
 Iteration    1 A*A^-1 deviation from unit magnitude is 7.88D-15 for   2230.
 Iteration    1 A*A^-1 deviation from orthogonality  is 3.61D-15 for   2230    488.
 Iteration    1 A^-1*A deviation from unit magnitude is 7.88D-15 for   2230.
 Iteration    1 A^-1*A deviation from orthogonality  is 7.32D-13 for    438    379.
 Error on total polarization charges =  0.00922
 SCF Done:  E(RwB97XD) =  -872.251509097     A.U. after   18 cycles
            NFock= 18  Conv=0.28D-08     -V/T= 2.0041
 SMD-CDS (non-electrostatic) energy       (kcal/mol) =      -2.43
 (included in total energy above)
 DoSCS=F DFT=T ScalE2(SS,OS)=  1.000000  1.000000
 Range of M.O.s used for correlation:     1   574
 NBasis=   574 NAE=    58 NBE=    58 NFC=     0 NFV=     0
 NROrb=    574 NOA=    58 NOB=    58 NVA=   516 NVB=   516

 **** Warning!!: The largest alpha MO coefficient is  0.16181223D+03

 Symmetrizing basis deriv contribution to polar:
 IMax=3 JMax=2 DiffMx= 0.00D+00
 G2DrvN: will do    29 centers at a time, making    1 passes.
 Calling FoFCou, ICntrl=  3107 FMM=F I1Cent=   0 AccDes= 0.00D+00.
 NEqPCM:  Using equilibrium solvation (IEInf=0, Eps=   2.3741, EpsInf=   2.2383)
 G2PCM: DoFxE=T DoFxN=T DoGrad=T DoDP/DQ/DG/TGxP=FFFF NFrqRd=   0 IEInf=0 SqF1=F DoCFld=F IF1Alg=4.
 End of G2Drv F.D. properties file   721 does not exist.
 End of G2Drv F.D. properties file   722 does not exist.
 End of G2Drv F.D. properties file   788 does not exist.
          IDoAtm=1111111111111111111111111111
 NEqPCM:  Using equilibrium solvation (IEInf=0, Eps=   2.3741, EpsInf=   2.2383)
          Differentiating once with respect to electric field.
                with respect to dipole field.
          Differentiating once with respect to nuclear coordinates.
          There are    87 degrees of freedom in the 1st order CPHF.  IDoFFX=6 NUNeed=     3.
     84 vectors produced by pass  0 Test12= 3.44D-14 1.15D-09 XBig12= 4.33D+01 1.68D+00.
 AX will form    84 AO Fock derivatives at one time.
     84 vectors produced by pass  1 Test12= 3.44D-14 1.15D-09 XBig12= 8.74D+00 4.41D-01.
     84 vectors produced by pass  2 Test12= 3.44D-14 1.15D-09 XBig12= 2.46D-01 6.54D-02.
     84 vectors produced by pass  3 Test12= 3.44D-14 1.15D-09 XBig12= 3.60D-03 8.19D-03.
     84 vectors produced by pass  4 Test12= 3.44D-14 1.15D-09 XBig12= 4.27D-05 6.84D-04.
     84 vectors produced by pass  5 Test12= 3.44D-14 1.15D-09 XBig12= 3.50D-07 5.08D-05.
     84 vectors produced by pass  6 Test12= 3.44D-14 1.15D-09 XBig12= 2.57D-09 3.72D-06.
     34 vectors produced by pass  7 Test12= 3.44D-14 1.15D-09 XBig12= 1.86D-11 3.29D-07.
      9 vectors produced by pass  8 Test12= 3.44D-14 1.15D-09 XBig12= 4.05D-13 6.89D-08.
      8 vectors produced by pass  9 Test12= 3.44D-14 1.15D-09 XBig12= 2.83D-14 1.41D-08.
      7 vectors produced by pass 10 Test12= 3.44D-14 1.15D-09 XBig12= 5.84D-16 2.05D-09.
      6 vectors produced by pass 11 Test12= 3.44D-14 1.15D-09 XBig12= 1.94D-15 3.34D-09.
      5 vectors produced by pass 12 Test12= 3.44D-14 1.15D-09 XBig12= 2.09D-15 4.06D-09.
      4 vectors produced by pass 13 Test12= 3.44D-14 1.15D-09 XBig12= 9.62D-16 2.90D-09.
      4 vectors produced by pass 14 Test12= 3.44D-14 1.15D-09 XBig12= 7.87D-16 2.38D-09.
      4 vectors produced by pass 15 Test12= 3.44D-14 1.15D-09 XBig12= 2.19D-15 3.40D-09.
      4 vectors produced by pass 16 Test12= 3.44D-14 1.15D-09 XBig12= 2.40D-15 3.44D-09.
      4 vectors produced by pass 17 Test12= 3.44D-14 1.15D-09 XBig12= 1.95D-15 3.61D-09.
      4 vectors produced by pass 18 Test12= 3.44D-14 1.15D-09 XBig12= 2.33D-15 3.46D-09.
      2 vectors produced by pass 19 Test12= 3.44D-14 1.15D-09 XBig12= 5.56D-16 1.57D-09.
 InvSVY:  IOpt=1 It=  1 EMax= 4.44D-15
 Solved reduced A of dimension   683 with    87 vectors.
 Isotropic polarizability for W=    0.000000      125.75 Bohr**3.
 End of Minotr F.D. properties file   721 does not exist.
 End of Minotr F.D. properties file   722 does not exist.
 End of Minotr F.D. properties file   788 does not exist.

 **********************************************************************

            Population analysis using the SCF density.

 **********************************************************************

 Orbital symmetries:
       Occupied  (A) (A) (A) (A) (A) (A) (A) (A) (A) (A) (A) (A)
                 (A) (A) (A) (A) (A) (A) (A) (A) (A) (A) (A) (A)
                 (A) (A) (A) (A) (A) (A) (A) (A) (A) (A) (A) (A)
                 (A) (A) (A) (A) (A) (A) (A) (A) (A) (A) (A) (A)
                 (A) (A) (A) (A) (A) (A) (A) (A) (A) (A)
       Virtual   (A) (A) (A) (A) (A) (A) (A) (A) (A) (A) (A) (A)
                 (A) (A) (A) (A) (A) (A) (A) (A) (A) (A) (A) (A)
                 (A) (A) (A) (A) (A) (A) (A) (A) (A) (A) (A) (A)
                 (A) (A) (A) (A) (A) (A) (A) (A) (A) (A) (A) (A)
                 (A) (A) (A) (A) (A) (A) (A) (A) (A) (A) (A) (A)
                 (A) (A) (A) (A) (A) (A) (A) (A) (A) (A) (A) (A)
                 (A) (A) (A) (A) (A) (A) (A) (A) (A) (A) (A) (A)
                 (A) (A) (A) (A) (A) (A) (A) (A) (A) (A) (A) (A)
                 (A) (A) (A) (A) (A) (A) (A) (A) (A) (A) (A) (A)
                 (A) (A) (A) (A) (A) (A) (A) (A) (A) (A) (A) (A)
                 (A) (A) (A) (A) (A) (A) (A) (A) (A) (A) (A) (A)
                 (A) (A) (A) (A) (A) (A) (A) (A) (A) (A) (A) (A)
                 (A) (A) (A) (A) (A) (A) (A) (A) (A) (A) (A) (A)
                 (A) (A) (A) (A) (A) (A) (A) (A) (A) (A) (A) (A)
                 (A) (A) (A) (A) (A) (A) (A) (A) (A) (A) (A) (A)
                 (A) (A) (A) (A) (A) (A) (A) (A) (A) (A) (A) (A)
                 (A) (A) (A) (A) (A) (A) (A) (A) (A) (A) (A) (A)
                 (A) (A) (A) (A) (A) (A) (A) (A) (A) (A) (A) (A)
                 (A) (A) (A) (A) (A) (A) (A) (A) (A) (A) (A) (A)
                 (A) (A) (A) (A) (A) (A) (A) (A) (A) (A) (A) (A)
                 (A) (A) (A) (A) (A) (A) (A) (A) (A) (A) (A) (A)
                 (A) (A) (A) (A) (A) (A) (A) (A) (A) (A) (A) (A)
                 (A) (A) (A) (A) (A) (A) (A) (A) (A) (A) (A) (A)
                 (A) (A) (A) (A) (A) (A) (A) (A) (A) (A) (A) (A)
                 (A) (A) (A) (A) (A) (A) (A) (A) (A) (A) (A) (A)
                 (A) (A) (A) (A) (A) (A) (A) (A) (A) (A) (A) (A)
                 (A) (A) (A) (A) (A) (A) (A) (A) (A) (A) (A) (A)
                 (A) (A) (A) (A) (A) (A) (A) (A) (A) (A) (A) (A)
                 (A) (A) (A) (A) (A) (A) (A) (A) (A) (A) (A) (A)
                 (A) (A) (A) (A) (A) (A) (A) (A) (A) (A) (A) (A)
                 (A) (A) (A) (A) (A) (A) (A) (A) (A) (A) (A) (A)
                 (A) (A) (A) (A) (A) (A) (A) (A) (A) (A) (A) (A)
                 (A) (A) (A) (A) (A) (A) (A) (A) (A) (A) (A) (A)
                 (A) (A) (A) (A) (A) (A) (A) (A) (A) (A) (A) (A)
                 (A) (A) (A) (A) (A) (A) (A) (A) (A) (A) (A) (A)
                 (A) (A) (A) (A) (A) (A) (A) (A) (A) (A) (A) (A)
                 (A) (A) (A) (A) (A) (A) (A) (A) (A) (A) (A) (A)
                 (A) (A) (A) (A) (A) (A) (A) (A) (A) (A) (A) (A)
                 (A) (A) (A) (A) (A) (A) (A) (A) (A) (A) (A) (A)
                 (A) (A) (A) (A) (A) (A) (A) (A) (A) (A) (A) (A)
                 (A) (A) (A) (A) (A) (A) (A) (A) (A) (A) (A) (A)
                 (A) (A) (A) (A) (A) (A) (A) (A) (A) (A) (A) (A)
                 (A) (A) (A) (A) (A) (A) (A) (A) (A) (A) (A) (A)
 The electronic state is 1-A.
 Alpha  occ. eigenvalues --  -19.33699 -19.32885 -19.27828 -19.27194 -19.26943
 Alpha  occ. eigenvalues --  -19.24951 -19.22919 -19.22123 -14.54366 -14.54080
 Alpha  occ. eigenvalues --  -10.47457 -10.46374 -10.35028 -10.34576  -1.27284
 Alpha  occ. eigenvalues --   -1.25707  -1.19255  -1.16994  -1.15684  -1.13447
 Alpha  occ. eigenvalues --   -1.11251  -1.09161  -1.08226  -0.92380  -0.86050
 Alpha  occ. eigenvalues --   -0.81447  -0.71425  -0.67926  -0.66217  -0.65172
 Alpha  occ. eigenvalues --   -0.63551  -0.62409  -0.61851  -0.60688  -0.60004
 Alpha  occ. eigenvalues --   -0.59644  -0.59093  -0.57720  -0.54910  -0.54291
 Alpha  occ. eigenvalues --   -0.53345  -0.51252  -0.50387  -0.49006  -0.48142
 Alpha  occ. eigenvalues --   -0.47708  -0.46966  -0.46661  -0.45445  -0.43069
 Alpha  occ. eigenvalues --   -0.42665  -0.42127  -0.41802  -0.41678  -0.40296
 Alpha  occ. eigenvalues --   -0.38627  -0.37865  -0.35863
 Alpha virt. eigenvalues --   -0.04389   0.04328   0.05443   0.05688   0.06105
 Alpha virt. eigenvalues --    0.06460   0.07069   0.08106   0.08429   0.08953
 Alpha virt. eigenvalues --    0.09521   0.09997   0.10372   0.10869   0.11637
 Alpha virt. eigenvalues --    0.12347   0.12489   0.13558   0.14756   0.14890
 Alpha virt. eigenvalues --    0.15118   0.15409   0.16281   0.16705   0.17317
 Alpha virt. eigenvalues --    0.17499   0.18066   0.18897   0.19479   0.19839
 Alpha virt. eigenvalues --    0.20503   0.20781   0.21182   0.21262   0.21366
 Alpha virt. eigenvalues --    0.21959   0.22357   0.22821   0.22944   0.23326
 Alpha virt. eigenvalues --    0.23738   0.24277   0.24571   0.25412   0.25689
 Alpha virt. eigenvalues --    0.25901   0.26294   0.26326   0.27080   0.27616
 Alpha virt. eigenvalues --    0.27936   0.28349   0.28987   0.29102   0.29845
 Alpha virt. eigenvalues --    0.30186   0.30240   0.30453   0.31213   0.31431
 Alpha virt. eigenvalues --    0.31877   0.32496   0.32705   0.33519   0.34775
 Alpha virt. eigenvalues --    0.35125   0.36460   0.37072   0.38180   0.38545
 Alpha virt. eigenvalues --    0.39025   0.39304   0.39514   0.40672   0.41539
 Alpha virt. eigenvalues --    0.42027   0.42501   0.43072   0.43742   0.44615
 Alpha virt. eigenvalues --    0.44849   0.45173   0.45908   0.46862   0.47816
 Alpha virt. eigenvalues --    0.48277   0.49756   0.50972   0.52797   0.53439
 Alpha virt. eigenvalues --    0.53845   0.54802   0.55518   0.55838   0.56485
 Alpha virt. eigenvalues --    0.57177   0.57645   0.58423   0.58975   0.59382
 Alpha virt. eigenvalues --    0.60068   0.60830   0.60934   0.61505   0.62439
 Alpha virt. eigenvalues --    0.62747   0.63722   0.64870   0.65269   0.66995
 Alpha virt. eigenvalues --    0.67736   0.68613   0.69517   0.70388   0.71153
 Alpha virt. eigenvalues --    0.71838   0.72842   0.74073   0.74579   0.75335
 Alpha virt. eigenvalues --    0.75765   0.76387   0.77426   0.78636   0.78878
 Alpha virt. eigenvalues --    0.79321   0.80239   0.80706   0.81097   0.82443
 Alpha virt. eigenvalues --    0.82932   0.83748   0.84187   0.84506   0.85447
 Alpha virt. eigenvalues --    0.86451   0.87163   0.87887   0.89566   0.90278
 Alpha virt. eigenvalues --    0.91295   0.91764   0.93170   0.93265   0.94307
 Alpha virt. eigenvalues --    0.95637   0.95794   0.96925   0.97806   0.98759
 Alpha virt. eigenvalues --    1.01023   1.01959   1.03624   1.04256   1.06326
 Alpha virt. eigenvalues --    1.06909   1.08820   1.10615   1.11741   1.13071
 Alpha virt. eigenvalues --    1.13813   1.15898   1.16978   1.17874   1.18593
 Alpha virt. eigenvalues --    1.18872   1.21491   1.24806   1.25951   1.27501
 Alpha virt. eigenvalues --    1.29311   1.32095   1.32832   1.34265   1.35021
 Alpha virt. eigenvalues --    1.37037   1.39223   1.39306   1.39765   1.41762
 Alpha virt. eigenvalues --    1.44200   1.45643   1.47494   1.50235   1.51092
 Alpha virt. eigenvalues --    1.53416   1.55297   1.56098   1.56917   1.59256
 Alpha virt. eigenvalues --    1.59984   1.60300   1.60967   1.61733   1.62809
 Alpha virt. eigenvalues --    1.63517   1.64891   1.65915   1.66467   1.67287
 Alpha virt. eigenvalues --    1.68472   1.70307   1.72380   1.74224   1.75760
 Alpha virt. eigenvalues --    1.76880   1.77908   1.79123   1.80609   1.81431
 Alpha virt. eigenvalues --    1.82356   1.83567   1.84544   1.85813   1.86155
 Alpha virt. eigenvalues --    1.87788   1.88605   1.89768   1.90731   1.92982
 Alpha virt. eigenvalues --    1.94102   1.95774   1.97298   1.98416   1.99687
 Alpha virt. eigenvalues --    2.02028   2.02553   2.04872   2.06615   2.07125
 Alpha virt. eigenvalues --    2.08035   2.09327   2.10060   2.11940   2.12700
 Alpha virt. eigenvalues --    2.13952   2.14762   2.17256   2.17857   2.19022
 Alpha virt. eigenvalues --    2.19965   2.20878   2.21292   2.21915   2.23323
 Alpha virt. eigenvalues --    2.24303   2.26026   2.29231   2.29413   2.31122
 Alpha virt. eigenvalues --    2.32008   2.33131   2.33708   2.34411   2.38373
 Alpha virt. eigenvalues --    2.38864   2.39886   2.40853   2.42169   2.43483
 Alpha virt. eigenvalues --    2.43894   2.44509   2.45437   2.48278   2.49077
 Alpha virt. eigenvalues --    2.49352   2.50493   2.52149   2.52554   2.54147
 Alpha virt. eigenvalues --    2.54746   2.55757   2.56956   2.57908   2.58980
 Alpha virt. eigenvalues --    2.61287   2.62429   2.62877   2.64324   2.65011
 Alpha virt. eigenvalues --    2.65175   2.66770   2.67189   2.69955   2.70896
 Alpha virt. eigenvalues --    2.72896   2.74210   2.76139   2.78570   2.80213
 Alpha virt. eigenvalues --    2.81010   2.82014   2.82905   2.83675   2.84641
 Alpha virt. eigenvalues --    2.85501   2.86317   2.87554   2.88039   2.88875
 Alpha virt. eigenvalues --    2.91450   2.92071   2.92757   2.93859   2.95236
 Alpha virt. eigenvalues --    2.96262   2.96680   3.00023   3.00810   3.02707
 Alpha virt. eigenvalues --    3.04115   3.05326   3.07459   3.08579   3.10482
 Alpha virt. eigenvalues --    3.14229   3.16026   3.17980   3.18796   3.20612
 Alpha virt. eigenvalues --    3.21003   3.22233   3.22791   3.25818   3.27037
 Alpha virt. eigenvalues --    3.27889   3.29757   3.31416   3.32261   3.35110
 Alpha virt. eigenvalues --    3.35296   3.35656   3.37246   3.38623   3.38795
 Alpha virt. eigenvalues --    3.41660   3.44011   3.45068   3.45947   3.47254
 Alpha virt. eigenvalues --    3.48268   3.48712   3.49483   3.53402   3.54872
 Alpha virt. eigenvalues --    3.58395   3.60872   3.61674   3.63250   3.65724
 Alpha virt. eigenvalues --    3.66863   3.67695   3.68756   3.70583   3.71508
 Alpha virt. eigenvalues --    3.74484   3.78463   3.82839   3.83859   3.85001
 Alpha virt. eigenvalues --    3.87019   3.90414   3.93520   3.94413   3.95927
 Alpha virt. eigenvalues --    3.99791   4.04297   4.06644   4.07267   4.08512
 Alpha virt. eigenvalues --    4.10048   4.17187   4.17670   4.24140   4.28333
 Alpha virt. eigenvalues --    4.29411   4.33207   4.37723   4.41515   4.42692
 Alpha virt. eigenvalues --    4.48940   4.51452   4.53385   4.55751   4.62690
 Alpha virt. eigenvalues --    4.65359   4.66771   4.72606   4.80036   4.84110
 Alpha virt. eigenvalues --    4.87093   4.91383   4.95890   4.97523   5.00503
 Alpha virt. eigenvalues --    5.02944   5.08860   5.10671   5.16559   5.17209
 Alpha virt. eigenvalues --    5.19073   5.20732   5.21804   5.22211   5.24981
 Alpha virt. eigenvalues --    5.25614   5.27037   5.27734   5.30065   5.32403
 Alpha virt. eigenvalues --    5.33348   5.35307   5.39094   5.39757   5.44143
 Alpha virt. eigenvalues --    5.46428   5.47779   5.48430   5.50311   5.50817
 Alpha virt. eigenvalues --    5.51931   5.52531   5.54077   5.55253   5.55971
 Alpha virt. eigenvalues --    5.56456   5.57204   5.58930   5.59548   5.60200
 Alpha virt. eigenvalues --    5.60751   5.67251   5.73687   5.75036   5.75978
 Alpha virt. eigenvalues --    5.78144   5.91286   5.92929   5.96578   5.99522
 Alpha virt. eigenvalues --    6.08412   6.10866   6.12964   6.13033   6.14260
 Alpha virt. eigenvalues --    6.16304   6.17531   6.21134   6.23607   6.28598
 Alpha virt. eigenvalues --    6.31003   6.31816   6.33236   6.34053   6.36352
 Alpha virt. eigenvalues --    6.39118   6.43514   6.44829   6.45258   6.46912
 Alpha virt. eigenvalues --    6.48498   6.49150   6.49795   6.50853   6.52430
 Alpha virt. eigenvalues --    6.53724   6.54342   6.56383   6.56581   6.57034
 Alpha virt. eigenvalues --    6.59029   6.60174   6.61362   6.62349   6.66059
 Alpha virt. eigenvalues --    6.72655   6.73534   6.78634   6.81752   6.84980
 Alpha virt. eigenvalues --    6.86773   6.93412   6.97986   6.99736   7.00897
 Alpha virt. eigenvalues --    7.02244   7.03911   7.04965   7.07612   7.10917
 Alpha virt. eigenvalues --    7.11712   7.13415   7.14580   7.17178   7.21963
 Alpha virt. eigenvalues --    7.25204   7.28941   7.31639   7.42143   7.47502
 Alpha virt. eigenvalues --    7.50122   7.53389  22.50180  22.52087  23.50673
 Alpha virt. eigenvalues --   23.61421  32.45890  32.56233  43.70876  43.75060
 Alpha virt. eigenvalues --   43.78431  43.85460  44.12707  44.13540  44.29823
 Alpha virt. eigenvalues --   44.32528
          Condensed to atoms (all electrons):
               1          2          3          4          5          6
     1  N   24.265202 -15.843834   0.503649  -0.792651   0.088140  -0.596887
     2  N  -15.843834  22.393262  -0.431013   0.773868  -0.240233   0.513407
     3  C    0.503649  -0.431013   4.970237  -0.150676  -0.000830   0.504836
     4  C   -0.792651   0.773868  -0.150676   5.026169   0.541271   0.032857
     5  O    0.088140  -0.240233  -0.000830   0.541271   8.167376   0.003284
     6  O   -0.596887   0.513407   0.504836   0.032857   0.003284   8.142888
     7  O   -0.441753   0.062542  -0.008747   0.301646  -0.106267   0.010190
     8  O    0.102064  -0.122295   0.200030  -0.037109  -0.013376  -0.174806
     9  C   -0.224697   0.201100  -0.125511   0.008135   0.000315   0.006556
    10  H    0.004398  -0.004376   0.015089  -0.000728  -0.000008   0.003149
    11  H    0.021626  -0.013432  -0.009025   0.000259   0.000007  -0.006948
    12  H   -0.024847   0.019022  -0.013653  -0.000149  -0.000020   0.001762
    13  C   -0.001703  -0.001517  -0.003258  -0.087635  -0.019936  -0.000536
    14  H    0.002522   0.000135  -0.000138  -0.009835  -0.001847  -0.000006
    15  H   -0.009445   0.006178   0.000229  -0.013645  -0.004482   0.000007
    16  H    0.001141  -0.002801  -0.000308   0.011220   0.004389   0.000005
    17  O    0.028145  -0.047397   0.001194   0.006327   0.000105  -0.027498
    18  H    0.063152  -0.054364  -0.000241  -0.006758   0.000083   0.001117
    19  H   -0.004789   0.006025  -0.001868  -0.000144  -0.000030   0.001164
    20  O   -0.257795   0.253165   0.072167   0.010703  -0.002276   0.029918
    21  H   -0.040282   0.045911  -0.009416   0.002420  -0.000121  -0.002025
    22  H    0.004817   0.006220  -0.011727   0.008394  -0.000488  -0.002788
    23  O    0.347367  -0.259783   0.040104  -0.128573  -0.006107  -0.024860
    24  H   -0.030285  -0.007283  -0.000712   0.019455   0.000205   0.000556
    25  H    0.045308  -0.052866  -0.003395   0.005492   0.001137  -0.000048
    26  O    0.100398  -0.074424  -0.012961   0.027644  -0.043997  -0.003799
    27  H   -0.016088   0.045622  -0.002798  -0.005511   0.000005   0.000661
    28  H    0.021352  -0.013031   0.008406  -0.007867  -0.001950  -0.000357
               7          8          9         10         11         12
     1  N   -0.441753   0.102064  -0.224697   0.004398   0.021626  -0.024847
     2  N    0.062542  -0.122295   0.201100  -0.004376  -0.013432   0.019022
     3  C   -0.008747   0.200030  -0.125511   0.015089  -0.009025  -0.013653
     4  C    0.301646  -0.037109   0.008135  -0.000728   0.000259  -0.000149
     5  O   -0.106267  -0.013376   0.000315  -0.000008   0.000007  -0.000020
     6  O    0.010190  -0.174806   0.006556   0.003149  -0.006948   0.001762
     7  O    8.289719  -0.042822  -0.004401  -0.000065   0.000015  -0.000022
     8  O   -0.042822   8.236989   0.199888  -0.053520  -0.024935  -0.014119
     9  C   -0.004401   0.199888   4.945518   0.408694   0.409856   0.416329
    10  H   -0.000065  -0.053520   0.408694   0.491816  -0.018448  -0.017248
    11  H    0.000015  -0.024935   0.409856  -0.018448   0.492633  -0.025775
    12  H   -0.000022  -0.014119   0.416329  -0.017248  -0.025775   0.469785
    13  C    0.190523  -0.003731  -0.001615  -0.000008  -0.000002   0.000025
    14  H   -0.018661  -0.000018  -0.000001   0.000000   0.000000   0.000000
    15  H   -0.018068  -0.000028   0.000005   0.000000   0.000000   0.000000
    16  H   -0.056724  -0.000015  -0.000006   0.000000   0.000000   0.000000
    17  O    0.001044   0.001297   0.002630  -0.000046   0.000105  -0.000225
    18  H   -0.001232   0.003943  -0.000171   0.000009   0.000040  -0.000050
    19  H   -0.000022  -0.000025   0.000303   0.000000  -0.000002   0.000011
    20  O   -0.000532  -0.056470  -0.017434  -0.001108   0.000913  -0.002653
    21  H   -0.000840   0.001031   0.001212   0.000025  -0.000004  -0.000072
    22  H    0.000992  -0.001857   0.001186   0.000007  -0.000025   0.000115
    23  O    0.023470  -0.012088  -0.004692  -0.000009  -0.000004   0.000028
    24  H    0.008021   0.000066   0.000480   0.000000   0.000000   0.000000
    25  H   -0.003436   0.000208  -0.000047   0.000000   0.000001  -0.000002
    26  O   -0.001494  -0.000828  -0.002519   0.000002   0.000015  -0.000007
    27  H   -0.000411   0.001676  -0.000088   0.000000   0.000000   0.000000
    28  H   -0.000918   0.000798   0.000642   0.000000   0.000000   0.000000
              13         14         15         16         17         18
     1  N   -0.001703   0.002522  -0.009445   0.001141   0.028145   0.063152
     2  N   -0.001517   0.000135   0.006178  -0.002801  -0.047397  -0.054364
     3  C   -0.003258  -0.000138   0.000229  -0.000308   0.001194  -0.000241
     4  C   -0.087635  -0.009835  -0.013645   0.011220   0.006327  -0.006758
     5  O   -0.019936  -0.001847  -0.004482   0.004389   0.000105   0.000083
     6  O   -0.000536  -0.000006   0.000007   0.000005  -0.027498   0.001117
     7  O    0.190523  -0.018661  -0.018068  -0.056724   0.001044  -0.001232
     8  O   -0.003731  -0.000018  -0.000028  -0.000015   0.001297   0.003943
     9  C   -0.001615  -0.000001   0.000005  -0.000006   0.002630  -0.000171
    10  H   -0.000008   0.000000   0.000000   0.000000  -0.000046   0.000009
    11  H   -0.000002   0.000000   0.000000   0.000000   0.000105   0.000040
    12  H    0.000025   0.000000   0.000000   0.000000  -0.000225  -0.000050
    13  C    4.925188   0.412572   0.413307   0.413846  -0.000689  -0.000044
    14  H    0.412572   0.471319  -0.026510  -0.017531   0.000000   0.000000
    15  H    0.413307  -0.026510   0.501251  -0.019511   0.000006   0.000000
    16  H    0.413846  -0.017531  -0.019511   0.494000  -0.000002   0.000000
    17  O   -0.000689   0.000000   0.000006  -0.000002   8.207197   0.307693
    18  H   -0.000044   0.000000   0.000000   0.000000   0.307693   0.339669
    19  H    0.000020   0.000000   0.000000   0.000000   0.317267  -0.009666
    20  O    0.000069   0.000011   0.000006  -0.000004  -0.009863  -0.003241
    21  H    0.000302  -0.000001   0.000000  -0.000001  -0.001074  -0.004706
    22  H   -0.000311  -0.000005   0.000001   0.000009   0.003117   0.000048
    23  O    0.015373  -0.001245   0.000452   0.000041  -0.002216  -0.001856
    24  H   -0.001502   0.000048  -0.000001   0.000000   0.000665   0.000138
    25  H   -0.001878   0.000012  -0.000012  -0.000019  -0.029767  -0.000270
    26  O    0.002694   0.000035  -0.000026  -0.000032  -0.002340  -0.000545
    27  H   -0.001156  -0.000077   0.000037   0.000001   0.000140  -0.000018
    28  H   -0.000749   0.000000   0.000000   0.000000   0.000231   0.000020
              19         20         21         22         23         24
     1  N   -0.004789  -0.257795  -0.040282   0.004817   0.347367  -0.030285
     2  N    0.006025   0.253165   0.045911   0.006220  -0.259783  -0.007283
     3  C   -0.001868   0.072167  -0.009416  -0.011727   0.040104  -0.000712
     4  C   -0.000144   0.010703   0.002420   0.008394  -0.128573   0.019455
     5  O   -0.000030  -0.002276  -0.000121  -0.000488  -0.006107   0.000205
     6  O    0.001164   0.029918  -0.002025  -0.002788  -0.024860   0.000556
     7  O   -0.000022  -0.000532  -0.000840   0.000992   0.023470   0.008021
     8  O   -0.000025  -0.056470   0.001031  -0.001857  -0.012088   0.000066
     9  C    0.000303  -0.017434   0.001212   0.001186  -0.004692   0.000480
    10  H    0.000000  -0.001108   0.000025   0.000007  -0.000009   0.000000
    11  H   -0.000002   0.000913  -0.000004  -0.000025  -0.000004   0.000000
    12  H    0.000011  -0.002653  -0.000072   0.000115   0.000028   0.000000
    13  C    0.000020   0.000069   0.000302  -0.000311   0.015373  -0.001502
    14  H    0.000000   0.000011  -0.000001  -0.000005  -0.001245   0.000048
    15  H    0.000000   0.000006   0.000000   0.000001   0.000452  -0.000001
    16  H    0.000000  -0.000004  -0.000001   0.000009   0.000041   0.000000
    17  O    0.317267  -0.009863  -0.001074   0.003117  -0.002216   0.000665
    18  H   -0.009666  -0.003241  -0.004706   0.000048  -0.001856   0.000138
    19  H    0.315055   0.000470   0.000653  -0.000032  -0.001177  -0.000016
    20  O    0.000470   8.014210   0.335101   0.331845  -0.007672  -0.000027
    21  H    0.000653   0.335101   0.332943  -0.029967  -0.001895   0.000018
    22  H   -0.000032   0.331845  -0.029967   0.335708   0.001156   0.000048
    23  O   -0.001177  -0.007672  -0.001895   0.001156   8.115908   0.348018
    24  H   -0.000016  -0.000027   0.000018   0.000048   0.348018   0.332977
    25  H    0.001439   0.000856  -0.001302  -0.000290   0.338289  -0.030971
    26  O    0.000049   0.000904   0.000003  -0.000207  -0.022741  -0.011623
    27  H   -0.000002   0.000103  -0.000002  -0.000004  -0.007186   0.000868
    28  H    0.000001   0.000074   0.000000  -0.000004  -0.004456  -0.000165
              25         26         27         28
     1  N    0.045308   0.100398  -0.016088   0.021352
     2  N   -0.052866  -0.074424   0.045622  -0.013031
     3  C   -0.003395  -0.012961  -0.002798   0.008406
     4  C    0.005492   0.027644  -0.005511  -0.007867
     5  O    0.001137  -0.043997   0.000005  -0.001950
     6  O   -0.000048  -0.003799   0.000661  -0.000357
     7  O   -0.003436  -0.001494  -0.000411  -0.000918
     8  O    0.000208  -0.000828   0.001676   0.000798
     9  C   -0.000047  -0.002519  -0.000088   0.000642
    10  H    0.000000   0.000002   0.000000   0.000000
    11  H    0.000001   0.000015   0.000000   0.000000
    12  H   -0.000002  -0.000007   0.000000   0.000000
    13  C   -0.001878   0.002694  -0.001156  -0.000749
    14  H    0.000012   0.000035  -0.000077   0.000000
    15  H   -0.000012  -0.000026   0.000037   0.000000
    16  H   -0.000019  -0.000032   0.000001   0.000000
    17  O   -0.029767  -0.002340   0.000140   0.000231
    18  H   -0.000270  -0.000545  -0.000018   0.000020
    19  H    0.001439   0.000049  -0.000002   0.000001
    20  O    0.000856   0.000904   0.000103   0.000074
    21  H   -0.001302   0.000003  -0.000002   0.000000
    22  H   -0.000290  -0.000207  -0.000004  -0.000004
    23  O    0.338289  -0.022741  -0.007186  -0.004456
    24  H   -0.030971  -0.011623   0.000868  -0.000165
    25  H    0.343331   0.001008   0.000476   0.000141
    26  O    0.001008   8.070140   0.310353   0.317728
    27  H    0.000476   0.310353   0.346498  -0.019240
    28  H    0.000141   0.317728  -0.019240   0.342866
 Mulliken charges:
               1
     1  N   -0.314224
     2  N   -0.157809
     3  C    0.470334
     4  C    0.465423
     5  O   -0.364348
     6  O   -0.411800
     7  O   -0.181749
     8  O   -0.189946
     9  C   -0.221666
    10  H    0.172377
    11  H    0.173132
    12  H    0.191766
    13  C   -0.247647
    14  H    0.189220
    15  H    0.170249
    16  H    0.172302
    17  O   -0.756046
    18  H    0.367251
    19  H    0.375317
    20  O   -0.691440
    21  H    0.372089
    22  H    0.354040
    23  O   -0.743645
    24  H    0.371026
    25  H    0.386606
    26  O   -0.653429
    27  H    0.346139
    28  H    0.356478
 Sum of Mulliken charges =   0.00000
 Mulliken charges with hydrogens summed into heavy atoms:
               1
     1  N   -0.314224
     2  N   -0.157809
     3  C    0.470334
     4  C    0.465423
     5  O   -0.364348
     6  O   -0.411800
     7  O   -0.181749
     8  O   -0.189946
     9  C    0.315608
    13  C    0.284125
    17  O   -0.013478
    20  O    0.034689
    23  O    0.013986
    26  O    0.049189
 APT charges:
               1
     1  N   -0.317247
     2  N   -0.194173
     3  C    1.604637
     4  C    1.548362
     5  O   -0.891034
     6  O   -0.943839
     7  O   -0.978051
     8  O   -0.992920
     9  C    0.519772
    10  H    0.027598
    11  H    0.005335
    12  H    0.022938
    13  C    0.522329
    14  H    0.009339
    15  H    0.002210
    16  H    0.025868
    17  O   -0.725504
    18  H    0.410525
    19  H    0.311963
    20  O   -0.677675
    21  H    0.366330
    22  H    0.331228
    23  O   -0.754912
    24  H    0.378460
    25  H    0.376276
    26  O   -0.684552
    27  H    0.399785
    28  H    0.296951
 Sum of APT charges =   0.00000
 APT charges with hydrogens summed into heavy atoms:
               1
     1  N   -0.317247
     2  N   -0.194173
     3  C    1.604637
     4  C    1.548362
     5  O   -0.891034
     6  O   -0.943839
     7  O   -0.978051
     8  O   -0.992920
     9  C    0.575644
    13  C    0.559746
    17  O   -0.003016
    20  O    0.019883
    23  O   -0.000176
    26  O    0.012184
 Electronic spatial extent (au):  <R**2>=           3574.4824
 Charge=              0.0000 electrons
 Dipole moment (field-independent basis, Debye):
    X=              2.7648    Y=             -1.8871    Z=             -1.1898  Tot=              3.5526
 Quadrupole moment (field-independent basis, Debye-Ang):
   XX=            -66.1577   YY=            -77.9778   ZZ=            -90.6651
   XY=             14.3712   XZ=            -10.0409   YZ=              6.8574
 Traceless Quadrupole moment (field-independent basis, Debye-Ang):
   XX=             12.1092   YY=              0.2891   ZZ=            -12.3983
   XY=             14.3712   XZ=            -10.0409   YZ=              6.8574
 Octapole moment (field-independent basis, Debye-Ang**2):
  XXX=             12.8017  YYY=             17.1026  ZZZ=             -8.7157  XYY=             29.1316
  XXY=            -51.6144  XXZ=              4.6583  XZZ=              6.1454  YZZ=             18.3657
  YYZ=             20.0708  XYZ=             22.8263
 Hexadecapole moment (field-independent basis, Debye-Ang**3):
 XXXX=          -2048.3435 YYYY=           -921.9319 ZZZZ=           -843.3808 XXXY=             47.6385
 XXXZ=           -113.9185 YYYX=            116.3223 YYYZ=             83.5185 ZZZX=            -43.7177
 ZZZY=             45.2579 XXYY=           -518.0284 XXZZ=           -579.5779 YYZZ=           -280.7689
 XXYZ=             34.0275 YYXZ=              5.9523 ZZXY=             74.5737
 N-N= 1.050777459376D+03 E-N=-4.153455925649D+03  KE= 8.686611791571D+02
  Exact polarizability: 148.404   3.582 116.257  -6.997  -4.407 112.599
 Approx polarizability: 123.406   5.318 114.315  -3.663  -5.469 113.217
 D2PCM: PCM CHGder 2nd derivatives, FixD1E=F FixD2E=F DoIter=F DoCFld=F I1PDM=0
 Calling FoFJK, ICntrl=    100127 FMM=F ISym2X=0 I1Cent= 0 IOpClX= 0 NMat=1 NMatS=1 NMatT=0.
 Full mass-weighted force constant matrix:
 Low frequencies ---  -12.3169   -7.6018   -1.9238    0.0005    0.0008    0.0010
 Low frequencies ---   32.0044   52.1480   60.5566
 Diagonal vibrational polarizability:
       99.7057114     280.2665865     271.4637549
 Harmonic frequencies (cm**-1), IR intensities (KM/Mole), Raman scattering
 activities (A**4/AMU), depolarization ratios for plane and unpolarized
 incident light, reduced masses (AMU), force constants (mDyne/A),
 and normal coordinates:
                      1                      2                      3
                      A                      A                      A
 Frequencies --     30.7038                52.0886                60.5415
 Red. masses --      5.4578                 5.7274                 6.2110
 Frc consts  --      0.0030                 0.0092                 0.0134
 IR Inten    --      4.0335                 4.6811                 4.2758
  Atom  AN      X      Y      Z        X      Y      Z        X      Y      Z
     1   7     0.01   0.07   0.02    -0.07  -0.02   0.03     0.00  -0.02   0.12
     2   7     0.03  -0.02   0.00    -0.07   0.02   0.04    -0.03   0.03   0.12
     3   6     0.02   0.06   0.02    -0.07   0.04   0.02     0.00  -0.03   0.08
     4   6     0.02   0.01   0.02    -0.06  -0.04   0.03    -0.02   0.02   0.04
     5   8     0.03  -0.11  -0.03    -0.07  -0.01   0.05     0.04   0.02   0.01
     6   8     0.01   0.05   0.11    -0.11   0.05   0.03     0.03  -0.04   0.07
     7   8     0.01   0.14   0.10    -0.04  -0.09   0.01    -0.08   0.01   0.00
     8   8     0.03   0.07  -0.09    -0.04   0.06  -0.02    -0.02  -0.04   0.00
     9   6     0.03   0.06  -0.11    -0.03   0.11  -0.06     0.00  -0.07  -0.11
    10   1     0.04   0.08  -0.22     0.01   0.13  -0.12    -0.02  -0.06  -0.20
    11   1     0.01   0.14  -0.04    -0.08   0.17  -0.04    -0.05  -0.03  -0.11
    12   1     0.04  -0.05  -0.08    -0.02   0.07  -0.05     0.08  -0.13  -0.10
    13   6     0.00   0.22   0.15    -0.03  -0.20  -0.04    -0.08  -0.05  -0.14
    14   1     0.06   0.25   0.09    -0.11  -0.23  -0.12    -0.13  -0.07  -0.27
    15   1    -0.05   0.17   0.20     0.05  -0.27  -0.03     0.05  -0.14  -0.14
    16   1     0.00   0.31   0.20    -0.03  -0.17  -0.02    -0.15   0.00  -0.12
    17   8    -0.13  -0.14   0.15     0.16   0.00   0.17    -0.17  -0.03  -0.04
    18   1    -0.07  -0.07   0.16     0.12   0.02   0.15    -0.17  -0.01  -0.04
    19   1    -0.16  -0.16   0.22     0.20  -0.03   0.19    -0.21   0.00  -0.06
    20   8     0.02  -0.16  -0.01    -0.01  -0.05  -0.01     0.38   0.08  -0.13
    21   1    -0.02  -0.17   0.05     0.04  -0.05   0.05     0.25   0.06  -0.10
    22   1     0.04  -0.17  -0.04    -0.04   0.01   0.01     0.30  -0.05   0.13
    23   8    -0.06  -0.05  -0.16     0.15   0.25  -0.06    -0.20   0.11   0.02
    24   1     0.00  -0.04  -0.15     0.23   0.12  -0.11    -0.12   0.06   0.01
    25   1    -0.09  -0.06  -0.08     0.15   0.19  -0.03    -0.19   0.02   0.03
    26   8     0.01  -0.11  -0.15     0.19  -0.11  -0.15     0.13  -0.01   0.01
    27   1     0.02  -0.11  -0.12     0.07  -0.09  -0.05     0.13  -0.01   0.01
    28   1     0.02  -0.12  -0.13     0.18  -0.25  -0.17     0.15  -0.02   0.07
                      4                      5                      6
                      A                      A                      A
 Frequencies --     68.1187                75.2013                80.8950
 Red. masses --      5.3728                 5.5099                 5.9910
 Frc consts  --      0.0147                 0.0184                 0.0231
 IR Inten    --      2.0401                 4.7153                 1.0833
  Atom  AN      X      Y      Z        X      Y      Z        X      Y      Z
     1   7     0.04   0.00   0.02    -0.02  -0.11   0.02    -0.01   0.20   0.11
     2   7     0.02   0.05   0.03    -0.04  -0.11   0.01     0.00  -0.08   0.02
     3   6     0.04  -0.02   0.03    -0.03  -0.03   0.03     0.01   0.06   0.09
     4   6     0.03   0.02   0.00    -0.04  -0.07  -0.05     0.00  -0.03   0.00
     5   8     0.04  -0.01  -0.02     0.03  -0.10  -0.11     0.03  -0.06  -0.03
     6   8     0.06  -0.03   0.04    -0.12   0.02  -0.03     0.11   0.00   0.22
     7   8     0.02   0.02   0.00    -0.14   0.04  -0.04    -0.04  -0.02  -0.01
     8   8     0.01  -0.03   0.03     0.06   0.02   0.10    -0.10   0.01  -0.09
     9   6     0.01  -0.08   0.04     0.06   0.17   0.06    -0.09  -0.18  -0.15
    10   1    -0.02  -0.09   0.03     0.16   0.19   0.11    -0.20  -0.18  -0.39
    11   1     0.04  -0.08   0.05    -0.02   0.17   0.00    -0.06  -0.06  -0.02
    12   1     0.02  -0.10   0.05     0.06   0.26   0.03    -0.03  -0.42  -0.08
    13   6     0.03  -0.07  -0.08    -0.16   0.21  -0.08    -0.03  -0.03  -0.08
    14   1    -0.04  -0.10  -0.22    -0.05   0.26  -0.20    -0.05  -0.03  -0.17
    15   1     0.12  -0.19  -0.04    -0.19   0.16  -0.05     0.02  -0.09  -0.06
    16   1     0.01   0.01  -0.03    -0.26   0.32  -0.04    -0.08   0.03  -0.05
    17   8     0.06  -0.08   0.05     0.15   0.01   0.06     0.06   0.22   0.05
    18   1     0.09  -0.06   0.06     0.09   0.03   0.03     0.11   0.14   0.08
    19   1     0.08  -0.10   0.09     0.16   0.01   0.04     0.09   0.22   0.03
    20   8     0.07  -0.09   0.02     0.16   0.05  -0.09    -0.02   0.13  -0.03
    21   1     0.07  -0.09   0.03     0.13   0.04  -0.06    -0.03   0.12   0.01
    22   1     0.06  -0.08   0.04     0.11   0.01   0.04    -0.04   0.11   0.01
    23   8     0.01   0.23  -0.04     0.13  -0.09   0.04     0.15  -0.17  -0.04
    24   1    -0.05   0.18  -0.07     0.09  -0.07   0.05     0.06  -0.12  -0.02
    25   1     0.06   0.16  -0.12     0.13  -0.06   0.04     0.10   0.02  -0.02
    26   8    -0.40   0.08  -0.10    -0.10  -0.04   0.07    -0.08  -0.06  -0.03
    27   1    -0.28   0.04  -0.02    -0.05  -0.05   0.03    -0.04  -0.07   0.00
    28   1    -0.47   0.20  -0.26    -0.14   0.04   0.00    -0.07  -0.05   0.01
                      7                      8                      9
                      A                      A                      A
 Frequencies --     86.6097                95.0355               103.1378
 Red. masses --      5.3293                 6.7936                 1.7994
 Frc consts  --      0.0236                 0.0362                 0.0113
 IR Inten    --     15.0160                 4.6624                 3.3307
  Atom  AN      X      Y      Z        X      Y      Z        X      Y      Z
     1   7    -0.05   0.18  -0.02     0.00  -0.18   0.03     0.01  -0.02  -0.01
     2   7    -0.01   0.02  -0.05    -0.03   0.11   0.11     0.00  -0.08  -0.04
     3   6    -0.04   0.10  -0.01    -0.01  -0.09   0.02     0.01  -0.02   0.02
     4   6    -0.02   0.04   0.00    -0.03   0.13   0.10     0.00  -0.05  -0.03
     5   8    -0.07   0.06   0.03    -0.03   0.24   0.14    -0.01   0.04   0.02
     6   8     0.03   0.09  -0.09    -0.09  -0.06   0.04    -0.01  -0.02   0.06
     7   8     0.03  -0.02  -0.01    -0.04   0.00   0.01     0.01  -0.09  -0.05
     8   8    -0.13   0.05   0.14     0.08  -0.04  -0.03     0.02  -0.01  -0.01
     9   6    -0.14  -0.06   0.24     0.10   0.10  -0.10     0.01  -0.01   0.02
    10   1    -0.25  -0.12   0.44     0.20   0.14  -0.17     0.02   0.00  -0.01
    11   1    -0.02  -0.24   0.15    -0.01   0.19  -0.08     0.02   0.02   0.05
    12   1    -0.18   0.10   0.19     0.11   0.06  -0.09    -0.01  -0.05   0.04
    13   6     0.03  -0.06   0.04    -0.03  -0.07  -0.06     0.00   0.05   0.07
    14   1     0.01  -0.07   0.19    -0.08  -0.10   0.16     0.12   0.09   0.64
    15   1     0.00   0.05  -0.01     0.02   0.12  -0.20    -0.19   0.53  -0.14
    16   1     0.09  -0.18  -0.02    -0.03  -0.29  -0.20     0.06  -0.35  -0.17
    17   8     0.03  -0.10   0.02    -0.03   0.00   0.02    -0.03   0.05   0.03
    18   1     0.06   0.02   0.01    -0.05  -0.06   0.02    -0.02   0.02   0.04
    19   1    -0.03  -0.12   0.12    -0.05   0.04  -0.06     0.00   0.03   0.03
    20   8     0.21  -0.03  -0.08     0.04   0.02   0.12     0.03   0.02  -0.07
    21   1     0.11  -0.04  -0.08     0.10   0.03   0.11    -0.02   0.02  -0.03
    22   1     0.22  -0.13  -0.02     0.02   0.08   0.12     0.02  -0.01  -0.02
    23   8     0.06  -0.17  -0.10     0.11  -0.28  -0.19    -0.01   0.07   0.00
    24   1     0.05  -0.09  -0.07     0.07  -0.10  -0.11    -0.01   0.04  -0.02
    25   1     0.04  -0.13  -0.06     0.04  -0.15  -0.09    -0.01   0.08  -0.01
    26   8     0.01   0.00  -0.09    -0.06   0.12  -0.15    -0.02   0.02  -0.04
    27   1    -0.03   0.01  -0.05    -0.04   0.10  -0.06    -0.02   0.02   0.00
    28   1     0.03  -0.08  -0.03    -0.09   0.13  -0.23    -0.02   0.00  -0.03
                     10                     11                     12
                      A                      A                      A
 Frequencies --    117.1878               124.3878               136.3205
 Red. masses --      6.0952                 4.2123                 3.3223
 Frc consts  --      0.0493                 0.0384                 0.0364
 IR Inten    --      5.4361                 2.0937                 0.7786
  Atom  AN      X      Y      Z        X      Y      Z        X      Y      Z
     1   7     0.03  -0.06   0.04     0.00   0.11   0.18     0.02  -0.03  -0.04
     2   7    -0.01   0.04   0.05     0.01  -0.06   0.12    -0.01   0.19   0.02
     3   6     0.03  -0.03   0.07     0.02   0.07   0.07     0.02  -0.01  -0.02
     4   6     0.00   0.04   0.05     0.01  -0.01   0.06     0.00   0.11   0.00
     5   8    -0.01   0.04   0.06     0.07   0.01   0.04     0.00   0.03  -0.04
     6   8     0.00  -0.02   0.06     0.08   0.07  -0.08     0.02  -0.01  -0.01
     7   8     0.02   0.03   0.06    -0.06  -0.03   0.01     0.01   0.11   0.00
     8   8     0.06  -0.02   0.07    -0.01   0.05   0.11     0.01  -0.01  -0.03
     9   6     0.06   0.01   0.10     0.03   0.07  -0.10     0.01  -0.03   0.00
    10   1     0.07   0.01   0.16     0.01   0.07  -0.10    -0.04  -0.07   0.18
    11   1     0.06  -0.02   0.07    -0.09   0.05  -0.20     0.05  -0.17  -0.10
    12   1     0.04   0.07   0.08     0.17   0.11  -0.13     0.00   0.13  -0.05
    13   6     0.03  -0.06   0.03    -0.07   0.02  -0.08     0.02  -0.01  -0.07
    14   1    -0.05  -0.08  -0.28    -0.03   0.02   0.27    -0.06  -0.06   0.32
    15   1     0.11  -0.33   0.16    -0.07   0.35  -0.29     0.07   0.31  -0.28
    16   1     0.02   0.18   0.18    -0.12  -0.30  -0.29     0.05  -0.37  -0.29
    17   8    -0.05   0.12   0.00     0.04  -0.06  -0.21     0.04   0.01   0.08
    18   1    -0.04   0.05   0.02     0.07  -0.03  -0.20     0.01   0.01   0.06
    19   1    -0.02   0.12  -0.04     0.04  -0.09  -0.16    -0.01   0.04   0.04
    20   8    -0.14  -0.12  -0.48    -0.10  -0.14   0.00    -0.02   0.01  -0.04
    21   1    -0.07  -0.14  -0.17    -0.09  -0.13  -0.07     0.07   0.02   0.03
    22   1    -0.24   0.04  -0.40    -0.08  -0.16  -0.03    -0.06   0.13  -0.04
    23   8     0.02  -0.04  -0.02     0.00   0.01   0.02    -0.03  -0.02   0.08
    24   1     0.00   0.00  -0.01    -0.05  -0.02   0.00    -0.01  -0.06   0.06
    25   1     0.00   0.04   0.00     0.04  -0.01  -0.06    -0.03  -0.04   0.08
    26   8     0.00   0.04  -0.01    -0.01  -0.05  -0.03    -0.05  -0.26   0.04
    27   1     0.00   0.04  -0.01     0.05  -0.07   0.03    -0.10  -0.25   0.07
    28   1     0.00   0.04   0.00     0.01  -0.02   0.03    -0.08  -0.30  -0.05
                     13                     14                     15
                      A                      A                      A
 Frequencies --    139.1164               153.3239               158.6909
 Red. masses --      1.1218                 3.4667                 4.7276
 Frc consts  --      0.0128                 0.0480                 0.0701
 IR Inten    --      0.1855                12.4357                 2.9859
  Atom  AN      X      Y      Z        X      Y      Z        X      Y      Z
     1   7     0.00   0.01   0.01     0.01   0.03  -0.02    -0.02  -0.02  -0.05
     2   7     0.01  -0.03   0.00     0.02  -0.08  -0.05    -0.02   0.05  -0.02
     3   6     0.00   0.00   0.00     0.02   0.01  -0.01    -0.03   0.00   0.00
     4   6     0.00  -0.02   0.00     0.01   0.02   0.00    -0.02   0.01  -0.02
     5   8     0.01   0.00   0.00    -0.03   0.23   0.11    -0.02  -0.07  -0.05
     6   8     0.01  -0.01   0.01     0.01   0.00   0.04    -0.06  -0.01   0.12
     7   8     0.00  -0.02   0.00     0.01  -0.11  -0.09     0.00   0.05   0.01
     8   8     0.00  -0.01  -0.01     0.02   0.01  -0.02     0.00   0.02  -0.07
     9   6     0.00   0.00  -0.05     0.02   0.02   0.03    -0.03   0.03   0.07
    10   1    -0.09  -0.10   0.49     0.02   0.02   0.08    -0.04   0.01   0.25
    11   1     0.03  -0.42  -0.43     0.04  -0.01   0.02     0.05  -0.08   0.02
    12   1     0.07   0.55  -0.24    -0.02   0.06   0.02    -0.11   0.17   0.04
    13   6     0.00   0.00   0.00    -0.01   0.09  -0.02     0.00  -0.03   0.01
    14   1     0.01   0.01  -0.03     0.13   0.17  -0.44    -0.04  -0.05   0.12
    15   1    -0.01  -0.02   0.01    -0.08  -0.23   0.20     0.02   0.05  -0.04
    16   1    -0.01   0.03   0.01    -0.08   0.50   0.21     0.04  -0.12  -0.04
    17   8    -0.02   0.01   0.04    -0.04   0.02  -0.05    -0.03   0.24  -0.14
    18   1    -0.01   0.01   0.04    -0.04   0.01  -0.04    -0.07   0.02  -0.12
    19   1    -0.01   0.00   0.05    -0.03   0.02  -0.06    -0.08   0.38  -0.41
    20   8    -0.01   0.02   0.01     0.02  -0.04   0.04     0.13  -0.30   0.11
    21   1    -0.04   0.01   0.02    -0.02  -0.05   0.01     0.26  -0.30   0.24
    22   1     0.00   0.00   0.00     0.05  -0.10   0.03     0.09  -0.12   0.03
    23   8     0.00   0.00  -0.01     0.01   0.01   0.10     0.04   0.01   0.01
    24   1     0.00   0.01  -0.01    -0.04  -0.04   0.08     0.01   0.01   0.01
    25   1    -0.01   0.02   0.00     0.03   0.04   0.05     0.05   0.05  -0.02
    26   8     0.00   0.03  -0.01    -0.05  -0.18  -0.07     0.02   0.01   0.03
    27   1     0.01   0.03  -0.01    -0.09  -0.18   0.11     0.01   0.03  -0.03
    28   1     0.01   0.04   0.00    -0.03  -0.30  -0.05     0.02   0.02   0.04
                     16                     17                     18
                      A                      A                      A
 Frequencies --    179.8817               194.4871               200.5274
 Red. masses --      5.8874                 5.4675                 5.0270
 Frc consts  --      0.1122                 0.1218                 0.1191
 IR Inten    --      5.8397                 0.4696                 1.3479
  Atom  AN      X      Y      Z        X      Y      Z        X      Y      Z
     1   7     0.00   0.02  -0.01     0.01   0.00   0.00    -0.03  -0.02   0.03
     2   7    -0.04   0.04  -0.02    -0.05   0.06  -0.02     0.06  -0.08   0.06
     3   6    -0.01   0.00   0.08     0.01  -0.01   0.07    -0.02   0.01  -0.10
     4   6    -0.04   0.02  -0.03    -0.04   0.01  -0.06     0.05  -0.04   0.10
     5   8    -0.07  -0.02  -0.03    -0.06   0.00  -0.05     0.11  -0.05   0.06
     6   8    -0.01  -0.03   0.32     0.03  -0.02   0.09    -0.06   0.02  -0.04
     7   8    -0.01   0.04   0.00     0.01  -0.02  -0.05    -0.03   0.04   0.10
     8   8     0.04   0.05  -0.14     0.01  -0.01   0.07     0.01   0.04  -0.23
     9   6     0.00   0.08   0.08     0.03   0.03  -0.05    -0.06  -0.03   0.15
    10   1     0.02   0.06   0.29     0.04   0.04  -0.06    -0.08  -0.05   0.27
    11   1     0.11  -0.03   0.05    -0.05   0.03  -0.12     0.19  -0.07   0.28
    12   1    -0.14   0.24   0.05     0.12   0.07  -0.08    -0.32  -0.02   0.20
    13   6     0.00  -0.05   0.05     0.01  -0.01   0.10    -0.03   0.02  -0.11
    14   1    -0.05  -0.07   0.08     0.02   0.00   0.05    -0.05   0.01  -0.06
    15   1     0.00  -0.06   0.06    -0.09  -0.09   0.18     0.11   0.13  -0.23
    16   1     0.07  -0.07   0.06     0.09   0.08   0.18    -0.15  -0.10  -0.22
    17   8     0.04  -0.26  -0.25     0.31   0.04   0.00     0.02  -0.01   0.01
    18   1     0.01  -0.27  -0.27     0.22   0.02  -0.03    -0.02  -0.02  -0.01
    19   1     0.08  -0.29  -0.22     0.42   0.00  -0.02     0.07  -0.02   0.00
    20   8    -0.01   0.13  -0.05     0.01  -0.03   0.01    -0.02   0.02  -0.02
    21   1    -0.03   0.16  -0.27     0.13  -0.01  -0.04    -0.01   0.02  -0.01
    22   1    -0.05   0.02   0.11    -0.04   0.04   0.06    -0.01   0.04  -0.06
    23   8     0.09   0.02   0.01    -0.32  -0.10   0.08    -0.04  -0.04   0.22
    24   1     0.07   0.03   0.01    -0.33  -0.08   0.09    -0.13  -0.02   0.23
    25   1     0.15  -0.09  -0.07    -0.31  -0.09   0.05     0.00  -0.01   0.14
    26   8     0.01  -0.01   0.03     0.02   0.05  -0.17     0.02   0.08  -0.23
    27   1    -0.06   0.01   0.01     0.00   0.06  -0.19     0.16   0.04  -0.14
    28   1    -0.01  -0.05  -0.03     0.12  -0.01   0.08     0.05   0.17  -0.15
                     19                     20                     21
                      A                      A                      A
 Frequencies --    204.7731               232.2571               250.3584
 Red. masses --      5.0985                 1.7359                 1.2347
 Frc consts  --      0.1260                 0.0552                 0.0456
 IR Inten    --      4.2891                73.2594                35.0786
  Atom  AN      X      Y      Z        X      Y      Z        X      Y      Z
     1   7     0.01   0.00  -0.03     0.00   0.03  -0.03     0.00   0.03   0.00
     2   7    -0.04   0.07  -0.04     0.01  -0.11  -0.07     0.01  -0.06  -0.02
     3   6     0.00  -0.01   0.05     0.01  -0.03  -0.01     0.02  -0.01  -0.01
     4   6    -0.03   0.01  -0.07    -0.01   0.03   0.00    -0.01   0.00   0.01
     5   8    -0.05  -0.07  -0.10    -0.03   0.02   0.01    -0.02   0.00   0.02
     6   8     0.02  -0.01  -0.01     0.01  -0.04   0.01     0.03  -0.01  -0.01
     7   8     0.01   0.05  -0.03    -0.01   0.11   0.06    -0.01   0.03   0.02
     8   8    -0.02  -0.04   0.17     0.02  -0.03   0.02     0.02   0.00  -0.02
     9   6     0.03   0.01  -0.11     0.02   0.05   0.00     0.02   0.02   0.01
    10   1     0.04   0.02  -0.20     0.08   0.07  -0.02     0.03   0.02   0.02
    11   1    -0.14   0.04  -0.19    -0.03   0.08  -0.01     0.02   0.03   0.03
    12   1     0.22  -0.01  -0.14     0.02   0.05   0.00    -0.01   0.01   0.02
    13   6     0.03  -0.03   0.07     0.01  -0.05  -0.03    -0.01  -0.01  -0.02
    14   1    -0.03  -0.06   0.10    -0.12  -0.11   0.01    -0.04  -0.02  -0.02
    15   1    -0.01  -0.05   0.09     0.13  -0.04  -0.08     0.03   0.00  -0.04
    16   1     0.12  -0.05   0.08     0.03  -0.14  -0.08    -0.03  -0.03  -0.04
    17   8    -0.15  -0.03   0.00    -0.03   0.05  -0.01     0.04  -0.03   0.03
    18   1    -0.09  -0.02   0.03     0.02   0.07   0.01     0.06  -0.07   0.04
    19   1    -0.39   0.11  -0.09     0.43  -0.30   0.33    -0.44   0.30  -0.28
    20   8     0.01   0.02   0.00     0.01   0.00   0.02     0.00   0.01  -0.01
    21   1     0.01   0.01   0.10    -0.24  -0.01  -0.20     0.13   0.01   0.20
    22   1    -0.02   0.05   0.02     0.12  -0.31   0.04    -0.06   0.19  -0.04
    23   8     0.18  -0.02   0.29     0.00   0.00   0.01    -0.02   0.01  -0.02
    24   1     0.05   0.02   0.31    -0.06   0.02   0.01    -0.04   0.03  -0.02
    25   1     0.26  -0.10   0.14    -0.04   0.16   0.03     0.03  -0.10  -0.08
    26   8     0.01   0.07  -0.22    -0.01   0.00  -0.01    -0.01   0.03   0.00
    27   1    -0.16   0.11  -0.13    -0.17   0.04   0.03    -0.35   0.11   0.07
    28   1     0.05  -0.17  -0.14     0.12  -0.26   0.31     0.15  -0.44   0.35
                     22                     23                     24
                      A                      A                      A
 Frequencies --    261.7650               285.2377               308.8977
 Red. masses --      1.7517                 5.0417                 1.5047
 Frc consts  --      0.0707                 0.2417                 0.0846
 IR Inten    --     80.2080                11.2576                59.7486
  Atom  AN      X      Y      Z        X      Y      Z        X      Y      Z
     1   7     0.01  -0.05   0.03     0.04   0.06   0.12     0.02  -0.01  -0.02
     2   7    -0.02   0.13   0.08    -0.07  -0.01   0.03     0.00  -0.04  -0.04
     3   6     0.01   0.02   0.00     0.12   0.01  -0.02     0.03   0.03   0.01
     4   6     0.00  -0.02   0.00    -0.14   0.02  -0.05    -0.01  -0.02   0.01
     5   8     0.01  -0.05  -0.01    -0.13   0.01  -0.06    -0.07  -0.02   0.04
     6   8    -0.01   0.03  -0.02     0.21  -0.01  -0.14    -0.02   0.05   0.01
     7   8     0.00  -0.09  -0.04    -0.15   0.01  -0.05    -0.01   0.02   0.04
     8   8     0.02   0.03  -0.04     0.14   0.02  -0.16     0.04   0.04   0.03
     9   6     0.01  -0.05   0.01     0.12   0.00   0.08     0.05  -0.08  -0.01
    10   1    -0.05  -0.07   0.04     0.12  -0.01   0.14    -0.05  -0.11  -0.02
    11   1     0.08  -0.09   0.03     0.27  -0.01   0.19     0.09  -0.13  -0.03
    12   1    -0.02  -0.06   0.02    -0.07  -0.02   0.12     0.11  -0.09  -0.02
    13   6    -0.01   0.05   0.00    -0.15  -0.10   0.15    -0.01   0.01  -0.04
    14   1     0.09   0.10  -0.01    -0.24  -0.14   0.18    -0.02   0.01  -0.04
    15   1    -0.10   0.05   0.03    -0.24  -0.18   0.23     0.04   0.03  -0.07
    16   1    -0.04   0.10   0.03     0.04  -0.08   0.21    -0.06  -0.01  -0.07
    17   8    -0.03   0.02  -0.02    -0.03   0.03   0.03     0.01   0.00  -0.01
    18   1     0.00   0.07  -0.01     0.07   0.16   0.06    -0.18   0.01  -0.10
    19   1     0.27  -0.22   0.23    -0.10   0.01   0.18     0.13  -0.02  -0.07
    20   8     0.00  -0.01   0.00     0.02  -0.01   0.03     0.00  -0.01   0.01
    21   1    -0.05   0.00  -0.12    -0.05  -0.01  -0.02     0.07   0.01  -0.06
    22   1     0.01  -0.09   0.05     0.02  -0.10   0.09    -0.01   0.03  -0.01
    23   8     0.03  -0.01  -0.01     0.02   0.00   0.02    -0.03  -0.01  -0.01
    24   1    -0.01   0.05   0.01     0.04  -0.03   0.00     0.27   0.04   0.03
    25   1     0.00   0.07   0.01     0.03  -0.03   0.01    -0.13  -0.08   0.24
    26   8     0.00   0.04  -0.01     0.00  -0.01   0.01     0.04   0.03   0.02
    27   1    -0.43   0.15   0.06     0.15  -0.05  -0.06    -0.32   0.12   0.10
    28   1     0.17  -0.53   0.38    -0.09   0.22  -0.22    -0.20  -0.23  -0.66
                     25                     26                     27
                      A                      A                      A
 Frequencies --    310.8243               318.1239               327.2878
 Red. masses --      2.8457                 1.2481                 2.1180
 Frc consts  --      0.1620                 0.0744                 0.1337
 IR Inten    --     24.3666                41.3928                44.4711
  Atom  AN      X      Y      Z        X      Y      Z        X      Y      Z
     1   7    -0.02   0.08   0.00     0.00   0.01   0.03    -0.01  -0.01   0.06
     2   7     0.00   0.07   0.02     0.00  -0.03   0.01     0.01  -0.05   0.05
     3   6    -0.01  -0.05  -0.03    -0.01   0.00   0.00    -0.04  -0.02   0.01
     4   6     0.01  -0.01   0.03     0.00   0.01  -0.02     0.03   0.03  -0.03
     5   8    -0.03  -0.07   0.03     0.06   0.03  -0.04     0.17   0.07  -0.09
     6   8     0.16  -0.13  -0.01    -0.02   0.01  -0.02    -0.05  -0.02  -0.01
     7   8     0.03  -0.07   0.01    -0.01   0.02  -0.03    -0.01   0.04  -0.05
     8   8    -0.07  -0.09  -0.03     0.00   0.01   0.00    -0.04  -0.02  -0.03
     9   6    -0.08   0.19   0.03     0.00  -0.01   0.00    -0.06   0.03   0.01
    10   1     0.17   0.27   0.03    -0.02  -0.01   0.00     0.00   0.05   0.02
    11   1    -0.20   0.32   0.06     0.01  -0.01   0.01    -0.07   0.05   0.02
    12   1    -0.19   0.22   0.04    -0.01  -0.01   0.00    -0.09   0.05   0.01
    13   6     0.01   0.05  -0.05    -0.01  -0.03   0.05     0.01  -0.05   0.09
    14   1     0.11   0.10  -0.07    -0.05  -0.05   0.06    -0.06  -0.09   0.11
    15   1     0.00   0.09  -0.07    -0.03  -0.07   0.08    -0.04  -0.12   0.14
    16   1    -0.08   0.07  -0.07     0.07  -0.03   0.07     0.15  -0.04   0.13
    17   8    -0.02   0.02   0.02    -0.03  -0.01   0.02     0.03   0.01  -0.01
    18   1    -0.11  -0.13   0.00    -0.28  -0.49  -0.03     0.03   0.32  -0.06
    19   1     0.21  -0.04  -0.08     0.50  -0.07  -0.37    -0.26   0.06   0.17
    20   8     0.00   0.00  -0.01     0.00   0.01  -0.01    -0.01  -0.01   0.00
    21   1     0.04   0.00   0.07     0.11  -0.01   0.31    -0.03   0.01  -0.26
    22   1    -0.01   0.07  -0.04    -0.07   0.22  -0.03     0.03  -0.14   0.04
    23   8    -0.01  -0.01   0.00     0.01  -0.01  -0.01    -0.02   0.00   0.00
    24   1     0.18   0.03   0.02     0.04   0.02   0.01     0.19   0.05   0.03
    25   1    -0.10   0.01   0.19    -0.10   0.20   0.14    -0.03  -0.19   0.11
    26   8     0.02   0.02   0.01    -0.01  -0.01   0.00     0.01   0.01   0.02
    27   1    -0.22   0.09   0.05    -0.04   0.00   0.03    -0.32   0.08   0.18
    28   1    -0.13  -0.15  -0.44     0.02  -0.07   0.06    -0.12  -0.33  -0.39
                     28                     29                     30
                      A                      A                      A
 Frequencies --    380.2680               439.6366               466.2297
 Red. masses --      1.0602                 1.5347                 1.7111
 Frc consts  --      0.0903                 0.1748                 0.2191
 IR Inten    --    103.7470                20.1224                27.3674
  Atom  AN      X      Y      Z        X      Y      Z        X      Y      Z
     1   7     0.00   0.00  -0.01     0.00   0.02   0.08     0.01   0.00   0.10
     2   7     0.01  -0.02  -0.01    -0.04  -0.04   0.03    -0.04  -0.06   0.04
     3   6     0.00   0.00   0.00    -0.01  -0.03   0.04    -0.02  -0.02   0.05
     4   6     0.00  -0.01   0.00     0.00   0.02  -0.04    -0.01   0.02  -0.04
     5   8     0.01   0.01   0.00    -0.07  -0.01  -0.02    -0.07   0.00  -0.02
     6   8     0.01  -0.01   0.01    -0.03   0.00  -0.04    -0.05   0.01  -0.03
     7   8    -0.01   0.00   0.00     0.07   0.02  -0.01     0.06   0.03  -0.02
     8   8     0.00   0.00   0.01     0.01  -0.01  -0.03     0.00  -0.01  -0.03
     9   6     0.00   0.01   0.00     0.00   0.00   0.01    -0.01   0.00   0.00
    10   1     0.00   0.01   0.01     0.01   0.00   0.03     0.00   0.00   0.02
    11   1    -0.01   0.01  -0.01     0.01   0.00   0.01     0.02   0.00   0.02
    12   1     0.00   0.01   0.00    -0.03   0.01   0.01    -0.04   0.00   0.01
    13   6    -0.01  -0.01   0.00     0.09   0.03  -0.03     0.10   0.03  -0.03
    14   1    -0.02  -0.01   0.01     0.10   0.03  -0.04     0.10   0.03  -0.03
    15   1     0.00  -0.01   0.00     0.10   0.04  -0.04     0.10   0.04  -0.04
    16   1     0.00  -0.01   0.00     0.06   0.03  -0.04     0.08   0.02  -0.04
    17   8    -0.02  -0.01  -0.02     0.01   0.00   0.03    -0.02   0.01  -0.04
    18   1    -0.03   0.29  -0.07    -0.34   0.11  -0.16     0.47  -0.14   0.23
    19   1     0.07  -0.20   0.33    -0.04   0.09  -0.14     0.07  -0.14   0.23
    20   8    -0.01  -0.02   0.01    -0.01  -0.01  -0.01     0.01   0.00  -0.01
    21   1     0.63   0.06  -0.04     0.18   0.04  -0.34    -0.05  -0.05   0.48
    22   1    -0.16   0.56  -0.11    -0.31  -0.08   0.65    -0.02   0.16  -0.06
    23   8     0.00   0.00   0.00     0.01   0.00   0.00    -0.01   0.00   0.02
    24   1     0.00   0.01   0.00     0.08  -0.01  -0.01    -0.19  -0.12  -0.05
    25   1     0.00   0.01   0.01    -0.06   0.06   0.12     0.13  -0.03  -0.28
    26   8     0.00   0.00   0.00    -0.01   0.00  -0.01     0.02   0.00   0.02
    27   1     0.04  -0.01   0.01     0.07  -0.02  -0.05    -0.14   0.06  -0.13
    28   1     0.02   0.02   0.07     0.04   0.07   0.15    -0.08  -0.05  -0.27
                     31                     32                     33
[...]
 655861,0.01126850,0.05096654,0.02395160,0.00012629,-0.00097890,0.00296
 050,-0.00315719,0.00015294,-0.00187885,0.00362122,-0.00093951,0.002749
 09,-0.00133405,0.00030312,-0.00086798,0.00070316,-0.00040517,0.0007384
 0,-0.00104461,-0.00015951,-0.00098155,0.00012411,-0.00000363,-0.000042
 21,-0.00072028,0.00082498,-0.00101357,-0.00045318,0.00010897,0.0002297
 9,-0.00002566,-0.00000979,-0.00001349,0.00002202,0.00001399,-0.0000734
 4,-0.00025315,-0.00008692,-0.00004683,-0.00053073,-0.00009758,0.000153
 97,0.00007569,0.00000145,0.00000395,0.00010800,0.00000751,0.00003059,0
 .00001089,0.00000144,-0.00002202,-0.00063051,0.00134896,-0.00039336,0.
 00011797,-0.00039453,0.00032836,-0.00003622,-0.00001253,-0.00009228,-0
 .38187697,-0.14557677,-0.18486018,0.00164866,0.00609265,0.00161773,0.3
 8303821,-0.00047013,0.00185194,0.00112479,-0.00066085,-0.00472164,-0.0
 0138404,-0.00029918,0.00150512,0.00161614,0.00088657,0.00129045,-0.000
 56453,-0.00050721,-0.00012101,-0.00003563,-0.00011707,-0.00092195,-0.0
 0089419,-0.00028585,-0.00046201,0.00023291,0.00061098,-0.00100393,0.00
 005580,0.00003192,0.00008244,0.00002201,0.00005591,-0.00003471,-0.0000
 6774,0.00000835,-0.00002746,-0.00000484,-0.00007838,0.00005372,0.00005
 089,0.00003671,0.00001282,0.00000071,0.00001959,-0.00001611,0.00000957
 ,-0.00001589,0.00000551,-0.00000901,-0.00004125,0.00001103,0.00001810,
 0.00088091,0.00045082,0.00088659,-0.00025535,-0.00045121,0.00021526,0.
 00004755,0.00018483,-0.00033701,-0.09560277,-0.08883626,-0.05451025,-0
 .04402791,-0.01733514,-0.02175272,0.13991739,0.10880740,0.00011894,0.0
 0054099,0.00043963,0.00132484,-0.00037287,-0.00263874,0.00360736,0.002
 09244,-0.00332084,-0.00448386,-0.00093320,0.00259775,0.00250097,-0.000
 34792,0.00074682,-0.00145251,-0.00126338,-0.00031851,0.00158574,0.0006
 2143,-0.00103679,-0.00156879,0.00007673,0.00049841,0.00143846,-0.00014
 592,0.00018695,-0.00011844,0.00002610,-0.00003898,-0.00019639,-0.00002
 442,-0.00006614,-0.00019339,0.00004843,0.00005994,-0.00058610,-0.00012
 882,0.00011528,0.00011375,0.00002073,0.00003163,0.00009328,-0.00000928
 ,-0.00000949,0.00012064,0.00005692,-0.00002417,-0.00034423,0.00063139,
 -0.00089069,0.00017186,0.00055975,0.00074338,0.00002091,-0.00000180,-0
 .00004810,-0.17788476,-0.07627401,-0.09338766,-0.00586764,-0.00044383,
 -0.00128270,0.18137847,0.07537496,0.09785881,0.00034926,0.00025575,-0.
 00020504,-0.00123464,0.00211544,0.00135959,0.00091231,-0.00177559,-0.0
 0042331,-0.00532628,0.00157444,-0.00100468,0.00212136,-0.00249143,-0.0
 0069895,-0.00025720,0.00129459,0.00086926,0.00074974,-0.00072516,-0.00
 018823,-0.00105273,0.00108578,0.00000773,0.00049506,-0.00005081,-0.000
 00237,-0.00004528,0.00004024,0.00000795,-0.00005040,-0.00003042,-0.000
 01658,-0.00002918,-0.00003730,0.00000641,-0.00011430,0.00041834,0.0000
 5185,0.00024362,-0.00015968,-0.00002256,0.00008693,-0.00006282,-0.0000
 4624,0.00008187,-0.00008332,0.00001007,-0.00985584,-0.00285246,-0.0042
 5665,0.00145254,-0.00061948,-0.00124493,-0.00143745,0.00152168,0.00066
 382,-0.00013574,0.00101549,-0.00044322,0.00031582,-0.00114844,0.000662
 03,0.00001956,-0.00051955,0.00020941,0.46081782,0.00109711,0.00005768,
 0.00033082,0.00194695,-0.00342284,-0.00247743,-0.00476595,-0.00086951,
 -0.00022911,0.00108212,0.00814492,0.00432819,-0.00080105,-0.00217985,-
 0.00219408,0.00183708,0.00143541,0.00042593,-0.00169569,-0.00294027,-0
 .00085511,0.00200195,-0.00049155,0.00007618,-0.00074160,-0.00000917,-0
 .00011443,0.00009847,-0.00002853,0.00001722,0.00010087,0.00001393,0.00
 000272,0.00007787,-0.00000224,0.00001733,0.00201394,0.00048509,-0.0002
 6671,-0.00019952,-0.00015095,0.00006319,-0.00025884,-0.00000893,-0.000
 00315,-0.00012081,-0.00005747,0.00006355,-0.00311691,0.00333728,-0.000
 27507,0.00008204,-0.00105278,-0.00084714,0.00103121,0.00001554,0.00023
 109,0.00064880,0.00019112,0.00054225,-0.00049185,-0.00071020,-0.000240
 51,-0.00057568,0.00039142,-0.00053887,0.11164186,0.12678343,0.00084312
 ,-0.00206547,0.00048809,0.00063638,0.00014199,-0.00133174,-0.00253019,
 0.00039253,-0.00027453,-0.00074991,0.00628573,-0.00573711,0.00063923,-
 0.00492451,0.00074928,0.00107218,0.00056477,0.00075754,-0.00103884,-0.
 00050975,0.00296826,0.00095072,-0.00039846,0.00002832,-0.00036093,0.00
 002043,-0.00013097,0.00004370,-0.00001233,0.00000374,0.00004547,-0.000
 00368,0.00001846,0.00007565,0.00000204,0.00000786,0.00041144,0.0002387
 8,-0.00015280,-0.00000454,0.00005646,-0.00018650,-0.00002789,0.0000777
 4,0.00002819,-0.00005326,-0.00015708,0.00004344,-0.00423972,-0.0002804
 3,0.00239739,-0.00110496,-0.00074772,-0.00168963,-0.00000779,0.0003053
 3,0.00034808,-0.00034298,0.00056451,0.00072537,0.00058562,-0.00056953,
 -0.00013831,0.00009487,-0.00035982,-0.00068916,0.15325588,-0.16033550,
 0.53233910,-0.00016024,-0.00050335,0.00004716,-0.00020752,0.00052137,-
 0.00027607,-0.00023318,0.00117167,0.00016572,0.00170554,-0.00033765,0.
 00114249,-0.00104571,0.00064762,-0.00045033,0.00027460,-0.00065876,-0.
 00011837,-0.00030251,-0.00010159,-0.00029521,0.00032563,-0.00049473,-0
 .00004219,-0.00018371,0.00002865,-0.00001465,0.00001060,-0.00001613,-0
 .00000258,0.00001625,0.00000944,0.00001073,0.00001849,0.00001204,-0.00
 000342,0.00025562,-0.00009264,-0.00001430,-0.00004821,-0.00000370,0.00
 010067,-0.00001929,-0.00000093,0.00000078,-0.00004082,0.00005413,-0.00
 000038,-0.00007709,-0.00045193,0.00122682,-0.00106987,0.00010396,-0.00
 035443,-0.00016184,-0.00015365,-0.00006933,-0.00003413,-0.00012286,0.0
 0015698,0.00008133,0.00013475,-0.00010123,0.00002226,0.00001237,-0.000
 10060,-0.04490298,-0.03223605,0.03805479,0.05060731,-0.00018369,0.0003
 6262,-0.00038553,0.00030925,-0.00098552,0.00058972,0.00163018,-0.00019
 875,-0.00008876,-0.00024708,-0.00426643,0.00278831,-0.00033192,0.00164
 314,-0.00037904,-0.00072205,-0.00031095,0.00001065,0.00077695,0.000245
 65,-0.00133325,-0.00072180,0.00031477,-0.00000381,0.00029049,-0.000008
 38,0.00004104,-0.00003270,0.00001411,-0.00000374,-0.00003832,-0.000006
 22,-0.00000392,-0.00003064,-0.00000360,-0.00000415,-0.00045998,-0.0002
 0976,0.00005617,0.00000810,0.00004329,0.00006656,0.00003196,-0.0000001
 1,0.00001710,0.00003260,0.00005658,-0.00003227,-0.00054813,-0.00068122
 ,0.00001061,0.00012721,0.00033525,0.00010970,-0.00020980,0.00017305,-0
 .00012587,-0.00010266,0.00001886,-0.00025393,0.00004682,0.00001990,0.0
 0010910,0.00005255,-0.00004726,0.00023399,-0.01281371,-0.09564681,0.18
 740809,0.01482470,0.10107968,-0.00013924,0.00092747,-0.00007531,-0.000
 10548,-0.00061258,0.00003373,0.00011019,-0.00020611,0.00015970,0.00065
 731,0.00043525,0.00494765,-0.00064232,0.00176796,-0.00252521,-0.000087
 77,-0.00011217,-0.00053079,0.00032244,-0.00017500,-0.00184388,0.000072
 16,0.00000908,0.00003442,-0.00000973,-0.00002252,0.00006111,0.00000467
 ,-0.00000261,0.00000310,0.00000502,0.00001150,-0.00000323,-0.00001185,
 0.00000292,-0.00000444,-0.00004623,0.00007812,0.00003299,0.00012739,0.
 00005907,0.00009991,-0.00000317,-0.00007365,0.00000182,0.00001356,0.00
 002120,-0.00001442,0.00219252,-0.00014486,0.00063859,-0.00056189,0.000
 28771,0.00058961,-0.00009863,-0.00010842,-0.00013772,0.00017947,-0.000
 34772,-0.00014097,-0.00026091,0.00035363,-0.00008924,-0.00006900,0.000
 22762,0.00014542,-0.00550682,0.16873897,-0.40512219,0.00341092,-0.1767
 4621,0.42080234,-0.00082044,0.00019196,0.00032739,-0.00015456,-0.00033
 094,-0.00003470,0.00186227,0.00248497,0.00071013,0.00113473,-0.0022452
 4,-0.00063987,-0.00044125,0.00113458,0.00037451,-0.00067295,-0.0021386
 5,-0.00159875,0.00001879,0.00068878,-0.00004379,-0.00003944,-0.0008765
 2,-0.00003947,-0.00016344,0.00006602,0.00007938,-0.00000848,-0.0000289
 2,-0.00001938,-0.00000060,0.00002866,0.00000742,-0.00002695,0.00004351
 ,-0.00001607,-0.00028693,-0.00016642,0.00002317,-0.00005385,-0.0000359
 3,-0.00001186,0.00001970,0.00001302,0.00002499,-0.00000059,0.00000505,
 -0.00001854,0.00029283,0.00136896,0.00108616,-0.00239888,0.00155817,0.
 00282034,0.00146486,-0.00191966,-0.00142242,-0.00011121,-0.00155420,0.
 00024190,-0.00046312,0.00226017,-0.00082619,0.00041070,0.00037617,0.00
 010965,-0.40632136,-0.07854521,-0.18759545,0.00031727,-0.00170596,0.00
 309339,0.40680149,0.00026650,-0.00086837,-0.00042540,-0.00036511,0.000
 64404,0.00010949,0.00155287,0.00034539,-0.00019548,-0.00232488,0.00027
 885,-0.00109408,0.00081766,-0.00092876,0.00002068,-0.00062156,-0.00047
 507,-0.00006696,0.00047529,-0.00011774,0.00014004,-0.00071972,0.000149
 51,0.00000218,0.00028120,0.00000375,0.00002627,-0.00003627,0.00001139,
 -0.00000707,-0.00003458,-0.00000442,0.00000895,-0.00000814,0.00000919,
 -0.00001089,-0.00024516,0.00002420,0.00004986,0.00013019,0.00008270,-0
 .00001480,0.00006490,0.00000765,0.00000849,0.00002606,-0.00001715,-0.0
 0000851,0.00313395,-0.00560151,-0.00108647,0.00030285,0.00103445,0.000
 86212,-0.00268434,-0.00016375,-0.00015851,-0.00080127,0.00006493,-0.00
 019720,0.00096038,0.00065759,0.00026766,0.00036375,-0.00072485,0.00008
 076,-0.09789116,-0.03474794,-0.02887909,0.01805335,0.00338180,0.009390
 46,0.07977878,0.03719399,-0.00020524,0.00015963,-0.00026343,-0.0000391
 5,-0.00032810,0.00002950,0.00138779,-0.00064526,0.00001495,-0.00086530
 ,-0.00137891,-0.00032330,0.00022173,0.00018414,0.00003029,-0.00073623,
 0.00003070,-0.00032913,0.00050634,0.00046836,-0.00030912,-0.00066996,0
 .00041742,-0.00001886,0.00027408,-0.00000689,0.00007274,-0.00003188,0.
 00001155,-0.00000490,-0.00003161,-0.00000329,-0.00001535,-0.00005164,-
 0.00000404,-0.00000128,-0.00023191,-0.00016337,0.00005166,-0.00005814,
 -0.00003360,0.00001056,0.00002648,0.00002362,-0.00000256,0.00003120,0.
 00005448,-0.00001059,-0.00068246,-0.00103975,-0.00597850,0.00373710,0.
 00080164,0.00191036,-0.00071003,-0.00013632,-0.00042039,0.00020713,-0.
 00040298,-0.00063021,-0.00053349,0.00056385,0.00030012,0.00008765,0.00
 014757,0.00051707,-0.14302571,-0.01066649,-0.11254447,-0.04128107,-0.0
 0881368,-0.01753503,0.18156245,0.02056081,0.13586578,-0.00022539,0.002
 33754,0.00048136,0.00086246,-0.00095114,-0.00033902,0.00047875,-0.0021
 4223,-0.00024499,-0.00447425,0.00129199,-0.00377223,0.00309685,-0.0059
 0425,0.00360837,-0.00075061,0.00107001,-0.00027691,0.00021892,-0.00052
 288,0.00178291,-0.00035334,0.00081982,0.00016970,0.00025175,-0.0000867
 1,0.00007331,-0.00001039,0.00002572,0.00000504,-0.00002234,-0.00000704
 ,-0.00002029,-0.00002522,-0.00002151,0.00000482,0.00026471,0.00011040,
 -0.00009698,0.00001880,0.00000857,-0.00009644,-0.00000909,0.00004633,-
 0.00004768,0.00002461,-0.00003703,0.00002895,0.00002329,0.00012526,-0.
 00052710,0.00035363,-0.00005951,0.00045569,0.00005665,0.00003208,0.000
 14315,0.00003062,0.00013565,-0.00021678,-0.00001309,-0.00010104,0.0001
 3473,-0.00002465,-0.00008414,0.00012309,0.00425838,-0.00026029,0.00193
 124,-0.00668698,-0.00009302,-0.00327243,-0.00056847,-0.00035333,0.0013
 5498,0.53785863,0.00201304,-0.00273076,-0.00025000,-0.00001845,0.00087
 395,0.00061765,-0.00347499,-0.00031340,0.00020834,-0.00288790,0.001877
 17,-0.00815688,-0.00007491,-0.01007153,0.00716711,0.00161307,0.0011600
 9,0.00020620,-0.00168192,-0.00159512,0.00412087,0.00119195,-0.00037416
 ,-0.00005139,-0.00046913,0.00001909,-0.00011344,0.00005667,-0.00001761
 ,0.00000447,0.00007750,-0.00000278,0.00000532,0.00004656,-0.00000002,0
 .00001205,0.00149261,0.00031138,-0.00018018,-0.00014671,-0.00003690,-0
 .00006010,-0.00009237,0.00005476,-0.00009669,-0.00007905,-0.00004883,0
 .00008361,0.00001759,0.00065891,-0.00002663,0.00011149,-0.00056734,-0.
 00013644,0.00011632,-0.00012758,0.00013535,0.00024138,0.00010719,0.000
 37951,-0.00006918,-0.00022014,-0.00011379,-0.00021721,0.00007076,-0.00
 038438,0.00029499,0.00333439,0.00221031,-0.00088254,-0.00556429,-0.000
 55176,-0.00035796,-0.00058181,0.00024928,0.13443874,0.51784947,-0.0002
 3628,0.00075456,0.00036404,0.00049210,-0.00074596,0.00048729,0.0015095
 8,-0.00152584,-0.00053220,-0.00084642,-0.00206107,0.00063243,0.0009119
 1,0.00366986,0.00084982,-0.00104411,0.00059880,0.00025305,0.00095639,0
 .00051491,-0.00056197,-0.00088260,0.00082142,0.00015328,0.00040210,-0.
 00002225,0.00000212,-0.00003689,0.00002970,-0.00000992,-0.00005927,-0.
 00002469,-0.00002052,-0.00003216,-0.00001772,0.00000926,-0.00065585,-0
 .00029753,-0.00000088,-0.00002855,-0.00000747,-0.00004161,0.00004655,0
 .00005354,0.00005296,0.00003649,0.00001627,-0.00002734,-0.00149298,-0.
 00007517,-0.00067017,0.00072292,-0.00013815,0.00004263,0.00007170,0.00
 016114,0.00017035,-0.00024784,0.00030705,-0.00014790,0.00023172,-0.000
 25632,0.00017967,0.00013270,-0.00024652,0.00012049,0.00081593,0.002242
 45,-0.01390952,-0.00358941,0.00200044,0.00345441,0.00225668,0.00074486
 ,0.00050833,-0.17478784,0.04210968,0.09668048,0.00057756,-0.00181691,-
 0.00070607,-0.00128749,0.00133322,-0.00003813,-0.00126717,0.00089891,0
 .00033605,0.00545997,-0.00091379,0.00428150,-0.00606271,0.00197280,-0.
 00279903,0.00046924,-0.00003308,0.00012670,-0.00009260,0.00077194,-0.0
 0244663,0.00043867,-0.00050684,-0.00011996,-0.00021156,0.00005926,-0.0
 0008434,0.00001905,-0.00001663,-0.00000364,0.00003038,-0.00000343,0.00
 001190,0.00002400,0.00001023,-0.00000009,-0.00044634,-0.00009687,0.000
 14798,0.00000342,-0.00000253,0.00011123,0.00003720,-0.00005161,0.00004
 764,-0.00001251,0.00004326,-0.00003224,0.00006341,0.00005858,0.0002160
 3,-0.00009356,-0.00009839,-0.00018163,-0.00001343,-0.00002487,-0.00003
 767,0.00000921,-0.00007597,0.00016966,-0.00000980,0.00002919,-0.000089
 65,-0.00001058,0.00007981,-0.00012013,-0.00099078,-0.00021706,0.001044
 70,0.00163990,0.00018708,-0.00154752,-0.00001955,-0.00016098,-0.000269
 11,-0.06870577,-0.08302605,0.00872577,0.08468472,-0.00134422,-0.000227
 95,-0.00013076,-0.00153063,0.00015989,-0.00018877,0.00259846,0.0015471
 4,-0.00019398,0.00753595,-0.00484263,0.01417476,-0.00470199,0.00457521
 ,-0.00871576,-0.00102284,-0.00141224,-0.00003832,0.00168670,0.00281656
 ,-0.00658326,-0.00100951,0.00001467,-0.00004722,0.00032400,0.00003085,
 0.00007358,-0.00005064,0.00000824,-0.00000856,-0.00006277,-0.00000249,
 -0.00000057,-0.00003800,0.00000708,-0.00000815,-0.00210742,-0.00028876
 ,0.00031833,0.00019924,0.00002188,0.00009788,0.00012040,-0.00010285,0.
 00010549,0.00009197,0.00005701,-0.00011956,0.00025734,-0.00034096,0.00
 012603,-0.00021672,0.00033627,0.00002768,-0.00004627,0.00002891,-0.000
 07767,-0.00018892,-0.00016919,-0.00027655,0.00001000,0.00022090,0.0000
 3779,0.00018552,0.00002364,0.00032496,0.00003689,-0.00161735,0.0015431
 8,0.00012997,0.00036288,-0.00423066,-0.00021022,0.00002195,-0.00010859
 ,-0.13255153,-0.46169372,-0.03746565,0.12625314,0.46306968,0.00037099,
 -0.00051197,-0.00009904,-0.00012254,0.00082431,-0.00083737,-0.00170067
 ,0.00029101,0.00029064,-0.00123059,0.00433833,-0.00705782,0.00081428,-
 0.00502538,0.00101797,0.00081441,0.00029506,-0.00007975,-0.00154316,-0
 .00082768,0.00277966,0.00076724,-0.00038856,-0.00007118,-0.00028458,0.
 00000542,-0.00003108,0.00003511,-0.00001735,0.00000893,0.00004765,0.00
 001299,0.00001134,0.00002912,0.00000473,-0.00000201,0.00104946,0.00030
 513,-0.00005853,-0.00006971,-0.00002873,-0.00002852,-0.00006127,-0.000
 00368,-0.00008083,-0.00005411,-0.00004532,0.00005282,0.00039983,0.0002
 2368,0.00016693,-0.00012887,-0.00013570,-0.00003575,0.00001724,-0.0000
 7078,-0.00001224,0.00016980,-0.00004739,0.00018533,-0.00008438,-0.0000
 1127,-0.00008579,-0.00012646,0.00009609,-0.00018933,0.00084814,0.00177
 390,0.00155449,-0.00108915,-0.00520256,-0.00375739,-0.00063739,-0.0002
 7585,-0.00002468,-0.00150559,-0.05580153,-0.01888470,-0.00327607,0.043
 99450,0.02423938,-0.00045846,0.00003443,-0.00010693,-0.00000415,-0.000
 14332,0.00010092,0.00089652,0.00160090,-0.00004784,0.00055270,-0.00050
 415,0.00097111,-0.00007217,0.00086666,-0.00069045,-0.00087450,-0.00088
 298,0.00004929,0.00007905,0.00021830,-0.00045667,0.00000889,-0.0004865
 5,-0.00009344,-0.00010030,0.00004595,-0.00001712,-0.00000327,-0.000014
 64,-0.00000155,-0.00000795,0.00001063,0.00000994,0.00000615,0.00001363
 ,-0.00000355,-0.00012897,-0.00003668,0.00002046,0.00000377,0.00000078,
 0.00001071,0.00000596,-0.00001029,0.00001274,0.00000091,0.00000628,-0.
 00001041,-0.00014172,-0.00005410,0.00017022,-0.00000406,0.00004845,-0.
 00026048,-0.00000008,-0.00000929,-0.00005593,-0.00006380,-0.00004489,0
 .00006856,0.00003175,0.00003356,-0.00003885,0.00004908,0.00000130,-0.0
 0000053,-0.00015012,0.00036627,-0.00162854,-0.00010072,-0.00007641,0.0
 0217396,0.00022943,0.00003875,0.00002602,-0.46592847,-0.04823354,0.166
 62766,-0.01423289,0.00565211,0.00655129,0.48040742,-0.00055992,0.00172
 650,0.00021381,0.00017702,-0.00082547,-0.00048256,0.00168800,-0.000759
 90,0.00010133,-0.00149766,0.00010832,0.00000992,0.00075731,-0.00148405
 ,0.00041043,-0.00055265,-0.00034431,-0.00022923,0.00044372,0.00020484,
 0.00000789,-0.00059728,0.00040099,0.00006964,0.00030560,-0.00003871,0.
 00007058,-0.00002668,0.00001326,0.00000102,-0.00003613,0.00000509,-0.0
 0000288,-0.00002843,-0.00000347,-0.00000762,-0.00014916,-0.00005599,0.
 00000050,0.00002727,0.00000497,0.00000076,0.00001975,0.00000316,-0.000
 00361,0.00002121,0.00000877,-0.00001085,-0.00001805,-0.00038671,-0.000
 02021,-0.00002644,0.00037683,0.00015546,-0.00004611,0.00007957,-0.0000
 9638,-0.00008519,-0.00004229,-0.00020770,0.00002605,0.00010596,0.00007
 395,0.00008248,-0.00003835,0.00017914,-0.00003418,-0.00025381,-0.00056
 854,0.00035248,-0.00012229,0.00102332,0.00011704,0.00031997,0.00005823
 ,0.00273355,-0.04237115,-0.01114034,-0.04465242,-0.00260461,0.01622860
 ,0.04155883,0.04597289,0.00018722,-0.00103954,-0.00013246,-0.00014638,
 0.00070555,-0.00006861,-0.00064373,0.00201145,0.00039407,0.00098040,0.
 00013850,-0.00023737,-0.00046986,-0.00021952,0.00001791,0.00030387,-0.
 00087830,-0.00018399,-0.00044602,-0.00018908,0.00022878,0.00055061,-0.
 00084895,-0.00018148,-0.00031764,0.00003511,-0.00001724,0.00002125,-0.
 00002412,0.00000273,0.00004245,0.00001628,0.00002365,0.00002862,0.0000
 2168,-0.00001022,0.00021906,0.00005626,-0.00000028,-0.00002482,-0.0000
 0676,0.00000607,-0.00002421,-0.00000350,-0.00000776,-0.00002191,-0.000
 00404,0.00001044,0.00030413,-0.00011830,0.00056903,-0.00050092,0.00012
 585,-0.00042749,-0.00008313,-0.00006515,-0.00013671,0.00005751,-0.0001
 4602,0.00017575,-0.00003999,0.00012390,-0.00012003,-0.00002484,0.00008
 729,-0.00012025,-0.00168278,0.00018983,-0.00055068,0.00348566,-0.00006
 475,0.00077503,0.00018632,0.00014769,-0.00089958,0.17490693,0.00841344
 ,-0.06915386,-0.00346723,-0.00263016,0.00102853,-0.17338057,-0.0058346
 3,0.06901602\\0.00002503,0.00000891,-0.00000252,-0.00000902,-0.0000037
 5,-0.00000114,-0.00002971,0.00001151,0.00000315,0.00002286,0.00000045,
 -0.00000243,-0.00000050,-0.00000017,-0.00001556,0.00000361,0.00000462,
 -0.00000033,-0.00002209,-0.00000428,0.00000919,0.00003354,-0.00000928,
 0.00000729,-0.00002553,0.00000645,0.00000319,0.00000858,0.00000072,0.0
 0000377,0.00000735,0.00000917,0.00000426,0.00000352,0.00000394,0.00000
 467,0.00001824,-0.00001280,-0.00000423,-0.00000328,-0.00000200,-0.0000
 0583,0.00000006,-0.00000371,-0.00001064,-0.00000109,-0.00000557,-0.000
 01224,-0.00000188,0.00001248,0.00000971,-0.00000444,0.00000163,0.00000
 186,-0.00000045,-0.00000920,0.00000581,0.00000215,0.00000532,0.0000069
 4,-0.00000995,-0.00000368,-0.00000255,-0.00000308,-0.00000153,-0.00000
 038,-0.00000026,-0.00000218,-0.00000180,-0.00000017,0.00000425,-0.0000
 0793,-0.00001326,-0.00001207,0.00000506,-0.00000550,-0.00000063,0.0000
 0750,-0.00000031,-0.00000053,-0.00000618,0.00000556,0.00000190,0.00000
 138\\\@


 IT IS A PROFOUNDLY ERRONEOUS TRUISM ... THAT WE SHOULD CULTIVATE
 THE HABIT OF THINKING OF WHAT WE ARE DOING.
 THE PRECISE OPPOSITE IS THE CASE.
 CIVILIZATION ADVANCES BY EXTENDING THE NUMBER OF IMPORTANT OPERATIONS
 WHICH WE CAN PERFORM WITHOUT THINKING ABOUT THEM.

                                    -- ALFRED NORTH WHITEHEAD
 Job cpu time:       0 days 13 hours 56 minutes 38.4 seconds.
 File lengths (MBytes):  RWF=    800 Int=      0 D2E=      0 Chk=     25 Scr=      1
 Normal termination of Gaussian 09 at Fri Feb 11 15:06:35 2022.
