 Entering Gaussian System, Link 0=g09
 Input=ts_cyclo_water_ma4.com
 Output=ts_cyclo_water_ma4.log
 Initial command:
 /apps/applications/gaussian/G09.D01/2/default/g09/l1.exe "/nobackup/pmmass/Temp/Gau-176230.inp" -scrdir="/nobackup/pmmass/Temp/"
 Entering Link 1 = /apps/applications/gaussian/G09.D01/2/default/g09/l1.exe PID=    176231.
  
 Copyright (c) 1988,1990,1992,1993,1995,1998,2003,2009,2013,
            Gaussian, Inc.  All Rights Reserved.
  
 This is part of the Gaussian(R) 09 program.  It is based on
 the Gaussian(R) 03 system (copyright 2003, Gaussian, Inc.),
 the Gaussian(R) 98 system (copyright 1998, Gaussian, Inc.),
 the Gaussian(R) 94 system (copyright 1995, Gaussian, Inc.),
 the Gaussian 92(TM) system (copyright 1992, Gaussian, Inc.),
 the Gaussian 90(TM) system (copyright 1990, Gaussian, Inc.),
 the Gaussian 88(TM) system (copyright 1988, Gaussian, Inc.),
 the Gaussian 86(TM) system (copyright 1986, Carnegie Mellon
 University), and the Gaussian 82(TM) system (copyright 1983,
 Carnegie Mellon University). Gaussian is a federally registered
 trademark of Gaussian, Inc.
  
 This software contains proprietary and confidential information,
 including trade secrets, belonging to Gaussian, Inc.
  
 This software is provided under written license and may be
 used, copied, transmitted, or stored only in accord with that
 written license.
  
 The following legend is applicable only to US Government
 contracts under FAR:
  
                    RESTRICTED RIGHTS LEGEND
  
 Use, reproduction and disclosure by the US Government is
 subject to restrictions as set forth in subparagraphs (a)
 and (c) of the Commercial Computer Software - Restricted
 Rights clause in FAR 52.227-19.
  
 Gaussian, Inc.
 340 Quinnipiac St., Bldg. 40, Wallingford CT 06492
  
  
 ---------------------------------------------------------------
 Warning -- This program may not be used in any manner that
 competes with the business of Gaussian, Inc. or will provide
 assistance to any competitor of Gaussian, Inc.  The licensee
 of this program is prohibited from giving any competitor of
 Gaussian, Inc. access to this program.  By using this program,
 the user acknowledges that Gaussian, Inc. is engaged in the
 business of creating and licensing software in the field of
 computational chemistry and represents and warrants to the
 licensee that it is not a competitor of Gaussian, Inc. and that
 it will not use this program in any manner prohibited above.
 ---------------------------------------------------------------
  

 Cite this work as:
 Gaussian 09, Revision D.01,
 M. J. Frisch, G. W. Trucks, H. B. Schlegel, G. E. Scuseria, 
 M. A. Robb, J. R. Cheeseman, G. Scalmani, V. Barone, B. Mennucci, 
 G. A. Petersson, H. Nakatsuji, M. Caricato, X. Li, H. P. Hratchian, 
 A. F. Izmaylov, J. Bloino, G. Zheng, J. L. Sonnenberg, M. Hada, 
 M. Ehara, K. Toyota, R. Fukuda, J. Hasegawa, M. Ishida, T. Nakajima, 
 Y. Honda, O. Kitao, H. Nakai, T. Vreven, J. A. Montgomery, Jr., 
 J. E. Peralta, F. Ogliaro, M. Bearpark, J. J. Heyd, E. Brothers, 
 K. N. Kudin, V. N. Staroverov, T. Keith, R. Kobayashi, J. Normand, 
 K. Raghavachari, A. Rendell, J. C. Burant, S. S. Iyengar, J. Tomasi, 
 M. Cossi, N. Rega, J. M. Millam, M. Klene, J. E. Knox, J. B. Cross, 
 V. Bakken, C. Adamo, J. Jaramillo, R. Gomperts, R. E. Stratmann, 
 O. Yazyev, A. J. Austin, R. Cammi, C. Pomelli, J. W. Ochterski, 
 R. L. Martin, K. Morokuma, V. G. Zakrzewski, G. A. Voth, 
 P. Salvador, J. J. Dannenberg, S. Dapprich, A. D. Daniels, 
 O. Farkas, J. B. Foresman, J. V. Ortiz, J. Cioslowski, 
 and D. J. Fox, Gaussian, Inc., Wallingford CT, 2013.
 
 ******************************************
 Gaussian 09:  ES64L-G09RevD.01 24-Apr-2013
                17-Feb-2022 
 ******************************************
 %nprocshared=8
 Will use up to    8 processors via shared memory.
 %mem=4GB
 %NoSave
 %chk="ts_cyclo_water_ma4.chk"
 ----------------------------------------------------------------------
 #n wB97XD/Gen scrf(smd,solvent=toluene) opt=(calcfc,ts,noeigentest) in
 t=(grid=ultrafine)
 ----------------------------------------------------------------------
 1/5=1,10=4,11=1,14=-1,18=20,26=4,38=1/1,3;
 2/9=110,12=2,17=6,18=5,40=1/2;
 3/5=7,11=2,16=1,25=1,30=1,70=32201,71=2,72=13,74=-58,75=-5,140=1/1,2,3;
 4//1;
 5/5=2,38=5,53=13/2;
 8/6=4,10=90,11=11/1;
 11/6=1,8=1,9=11,15=111,16=1/1,2,10;
 10/6=1,13=1/2;
 6/7=2,8=2,9=2,10=2,28=1/1;
 7/10=1,18=20,25=1/1,2,3,16;
 1/5=1,10=4,11=1,14=-1,18=20,26=4/3(2);
 2/9=110/2;
 99//99;
 2/9=110/2;
 3/5=7,6=1,11=2,16=1,25=1,30=1,70=32205,71=1,72=13,74=-58,75=-5,82=7/1,2,3;
 4/5=5,16=3,69=1/1;
 5/5=2,38=5,53=13/2;
 7//1,2,3,16;
 1/5=1,11=1,14=-1,18=20,26=4/3(-5);
 2/9=110/2;
 6/7=2,8=2,9=2,10=2,19=2,28=1/1;
 99/9=1/99;
 ------------------------------------------
 ts cycloaddition toluene with 4 h2o - opt4
 ------------------------------------------
 Symbolic Z-matrix:
 Charge =  0 Multiplicity = 1
 C                    -0.52354  -1.05154  -1.19305 
 C                    -1.58888  -1.94308  -0.48397 
 C                     0.43553  -2.86214   0.08089 
 C                     0.75047  -1.83864  -0.97125 
 H                    -0.72162  -0.49829  -2.0966 
 H                     1.73673  -1.49694  -1.23716 
 C                    -0.88431  -2.51561   0.73376 
 H                    -1.41494  -3.38997   1.11042 
 H                    -0.7673   -1.7843    1.53073 
 C                    -1.15192  -2.67867  -1.64517 
 H                    -1.65786  -2.7089   -2.59764 
 C                     0.19094  -3.22561  -1.35035 
 H                     0.7193   -3.9591   -1.93537 
 H                    -2.59426  -1.54865  -0.42995 
 H                     1.2534   -3.31562   0.61822 
 N                     0.63562   0.23458   0.87282 
 N                    -0.1814    0.5753   -0.06949 
 C                     1.9752    0.40322   0.55863 
 C                    -1.51494   0.78301   0.40779 
 O                    -1.87303   0.70721   1.5538 
 O                     2.84503   0.05005   1.32702 
 O                    -2.27438   1.14048  -0.61048 
 O                     2.23784   1.00389  -0.61168 
 C                     3.61508   1.17623  -0.93735 
 H                     3.63143   1.67371  -1.90464 
 H                     4.11846   1.79371  -0.19369 
 H                     4.12278   0.21407  -1.01168 
 C                    -3.60437   1.56241  -0.29571 
 H                    -4.18506   0.73407   0.11126 
 H                    -3.57184   2.38694   0.41454 
 H                    -4.03277   1.89711  -1.23656 
 O                    -1.37182   4.03634   0.36363 
 H                    -0.86111   3.74702  -0.41071 
 H                    -0.8289    3.81184   1.1216 
 O                    -3.96387  -1.21417   1.84914 
 H                    -4.37411  -1.32445   2.70834 
 H                    -3.29729  -0.52236   1.96324 
 O                     0.16697   2.92794  -1.7793 
 H                     1.08045   3.21996  -1.80029 
 H                     0.19954   2.04648  -1.36705 
 O                     5.66813  -0.26739   1.39524 
 H                     4.70686  -0.13997   1.38219 
 H                     5.88411  -0.43776   2.31315 
 
 Add virtual bond connecting atoms H42        and O21        Dist= 3.54D+00.
 Add virtual bond connecting atoms O38        and H33        Dist= 3.59D+00.
 Add virtual bond connecting atoms H37        and O20        Dist= 3.64D+00.
 Add virtual bond connecting atoms H40        and N17        Dist= 3.78D+00.
 Add virtual bond connecting atoms N17        and C1         Dist= 3.79D+00.

 GradGradGradGradGradGradGradGradGradGradGradGradGradGradGradGradGradGrad
 Berny optimization.
 Initialization pass.
                           ----------------------------
                           !    Initial Parameters    !
                           ! (Angstroms and Degrees)  !
 --------------------------                            --------------------------
 ! Name  Definition              Value          Derivative Info.                !
 --------------------------------------------------------------------------------
 ! R1    R(1,2)                  1.5597         calculate D2E/DX2 analytically  !
 ! R2    R(1,4)                  1.5139         calculate D2E/DX2 analytically  !
 ! R3    R(1,5)                  1.0778         calculate D2E/DX2 analytically  !
 ! R4    R(1,10)                 1.8019         calculate D2E/DX2 analytically  !
 ! R5    R(1,17)                 2.0065         calculate D2E/DX2 analytically  !
 ! R6    R(2,7)                  1.5189         calculate D2E/DX2 analytically  !
 ! R7    R(2,10)                 1.4424         calculate D2E/DX2 analytically  !
 ! R8    R(2,14)                 1.0813         calculate D2E/DX2 analytically  !
 ! R9    R(3,4)                  1.5012         calculate D2E/DX2 analytically  !
 ! R10   R(3,7)                  1.5127         calculate D2E/DX2 analytically  !
 ! R11   R(3,12)                 1.4968         calculate D2E/DX2 analytically  !
 ! R12   R(3,15)                 1.0786         calculate D2E/DX2 analytically  !
 ! R13   R(4,6)                  1.0771         calculate D2E/DX2 analytically  !
 ! R14   R(4,12)                 1.5429         calculate D2E/DX2 analytically  !
 ! R15   R(7,8)                  1.0899         calculate D2E/DX2 analytically  !
 ! R16   R(7,9)                  1.088          calculate D2E/DX2 analytically  !
 ! R17   R(10,11)                1.0789         calculate D2E/DX2 analytically  !
 ! R18   R(10,12)                1.4796         calculate D2E/DX2 analytically  !
 ! R19   R(12,13)                1.0768         calculate D2E/DX2 analytically  !
 ! R20   R(16,17)                1.2929         calculate D2E/DX2 analytically  !
 ! R21   R(16,18)                1.3862         calculate D2E/DX2 analytically  !
 ! R22   R(17,19)                1.4315         calculate D2E/DX2 analytically  !
 ! R23   R(17,40)                1.9983         calculate D2E/DX2 analytically  !
 ! R24   R(18,21)                1.2132         calculate D2E/DX2 analytically  !
 ! R25   R(18,23)                1.3414         calculate D2E/DX2 analytically  !
 ! R26   R(19,20)                1.203          calculate D2E/DX2 analytically  !
 ! R27   R(19,22)                1.3196         calculate D2E/DX2 analytically  !
 ! R28   R(20,37)                1.9256         calculate D2E/DX2 analytically  !
 ! R29   R(21,42)                1.8723         calculate D2E/DX2 analytically  !
 ! R30   R(22,28)                1.4304         calculate D2E/DX2 analytically  !
 ! R31   R(23,24)                1.4257         calculate D2E/DX2 analytically  !
 ! R32   R(24,25)                1.0878         calculate D2E/DX2 analytically  !
 ! R33   R(24,26)                1.0898         calculate D2E/DX2 analytically  !
 ! R34   R(24,27)                1.0904         calculate D2E/DX2 analytically  !
 ! R35   R(28,29)                1.0904         calculate D2E/DX2 analytically  !
 ! R36   R(28,30)                1.0887         calculate D2E/DX2 analytically  !
 ! R37   R(28,31)                1.0866         calculate D2E/DX2 analytically  !
 ! R38   R(32,33)                0.9717         calculate D2E/DX2 analytically  !
 ! R39   R(32,34)                0.959          calculate D2E/DX2 analytically  !
 ! R40   R(33,38)                1.8976         calculate D2E/DX2 analytically  !
 ! R41   R(35,36)                0.9585         calculate D2E/DX2 analytically  !
 ! R42   R(35,37)                0.9674         calculate D2E/DX2 analytically  !
 ! R43   R(38,39)                0.9593         calculate D2E/DX2 analytically  !
 ! R44   R(38,40)                0.9736         calculate D2E/DX2 analytically  !
 ! R45   R(41,42)                0.9698         calculate D2E/DX2 analytically  !
 ! R46   R(41,43)                0.9582         calculate D2E/DX2 analytically  !
 ! A1    A(2,1,4)              102.1821         calculate D2E/DX2 analytically  !
 ! A2    A(2,1,5)              123.2986         calculate D2E/DX2 analytically  !
 ! A3    A(2,1,17)             108.987          calculate D2E/DX2 analytically  !
 ! A4    A(4,1,5)              122.9805         calculate D2E/DX2 analytically  !
 ! A5    A(4,1,10)              81.9952         calculate D2E/DX2 analytically  !
 ! A6    A(4,1,17)             101.3036         calculate D2E/DX2 analytically  !
 ! A7    A(5,1,10)             100.8993         calculate D2E/DX2 analytically  !
 ! A8    A(5,1,17)              94.8518         calculate D2E/DX2 analytically  !
 ! A9    A(10,1,17)            158.7664         calculate D2E/DX2 analytically  !
 ! A10   A(1,2,7)              105.2544         calculate D2E/DX2 analytically  !
 ! A11   A(1,2,14)             116.6976         calculate D2E/DX2 analytically  !
 ! A12   A(7,2,10)             108.2205         calculate D2E/DX2 analytically  !
 ! A13   A(7,2,14)             121.9194         calculate D2E/DX2 analytically  !
 ! A14   A(10,2,14)            120.5248         calculate D2E/DX2 analytically  !
 ! A15   A(4,3,7)              109.2285         calculate D2E/DX2 analytically  !
 ! A16   A(4,3,15)             118.4718         calculate D2E/DX2 analytically  !
 ! A17   A(7,3,12)             109.0105         calculate D2E/DX2 analytically  !
 ! A18   A(7,3,15)             122.8826         calculate D2E/DX2 analytically  !
 ! A19   A(12,3,15)            119.8804         calculate D2E/DX2 analytically  !
 ! A20   A(1,4,3)              106.2961         calculate D2E/DX2 analytically  !
 ! A21   A(1,4,6)              124.7127         calculate D2E/DX2 analytically  !
 ! A22   A(1,4,12)              97.2497         calculate D2E/DX2 analytically  !
 ! A23   A(3,4,6)              125.5484         calculate D2E/DX2 analytically  !
 ! A24   A(6,4,12)             123.8199         calculate D2E/DX2 analytically  !
 ! A25   A(2,7,3)               98.3407         calculate D2E/DX2 analytically  !
 ! A26   A(2,7,8)              110.7083         calculate D2E/DX2 analytically  !
 ! A27   A(2,7,9)              112.5694         calculate D2E/DX2 analytically  !
 ! A28   A(3,7,8)              112.964          calculate D2E/DX2 analytically  !
 ! A29   A(3,7,9)              112.1046         calculate D2E/DX2 analytically  !
 ! A30   A(8,7,9)              109.7822         calculate D2E/DX2 analytically  !
 ! A31   A(1,10,11)            114.2259         calculate D2E/DX2 analytically  !
 ! A32   A(1,10,12)             88.1262         calculate D2E/DX2 analytically  !
 ! A33   A(2,10,11)            125.6573         calculate D2E/DX2 analytically  !
 ! A34   A(2,10,12)            107.6407         calculate D2E/DX2 analytically  !
 ! A35   A(11,10,12)           126.2365         calculate D2E/DX2 analytically  !
 ! A36   A(3,12,10)            104.4223         calculate D2E/DX2 analytically  !
 ! A37   A(3,12,13)            127.2111         calculate D2E/DX2 analytically  !
 ! A38   A(4,12,10)             92.6248         calculate D2E/DX2 analytically  !
 ! A39   A(4,12,13)            124.6045         calculate D2E/DX2 analytically  !
 ! A40   A(10,12,13)           126.0774         calculate D2E/DX2 analytically  !
 ! A41   A(17,16,18)           114.4196         calculate D2E/DX2 analytically  !
 ! A42   A(1,17,16)            107.5902         calculate D2E/DX2 analytically  !
 ! A43   A(1,17,19)             98.3658         calculate D2E/DX2 analytically  !
 ! A44   A(1,17,40)            105.4157         calculate D2E/DX2 analytically  !
 ! A45   A(16,17,19)           112.5765         calculate D2E/DX2 analytically  !
 ! A46   A(16,17,40)           123.1488         calculate D2E/DX2 analytically  !
 ! A47   A(19,17,40)           106.6936         calculate D2E/DX2 analytically  !
 ! A48   A(16,18,21)           120.9237         calculate D2E/DX2 analytically  !
 ! A49   A(16,18,23)           116.1944         calculate D2E/DX2 analytically  !
 ! A50   A(21,18,23)           122.8582         calculate D2E/DX2 analytically  !
 ! A51   A(17,19,20)           125.8551         calculate D2E/DX2 analytically  !
 ! A52   A(17,19,22)           108.5506         calculate D2E/DX2 analytically  !
 ! A53   A(20,19,22)           125.5085         calculate D2E/DX2 analytically  !
 ! A54   A(19,20,37)           117.5767         calculate D2E/DX2 analytically  !
 ! A55   A(18,21,42)           139.5691         calculate D2E/DX2 analytically  !
 ! A56   A(19,22,28)           116.4366         calculate D2E/DX2 analytically  !
 ! A57   A(18,23,24)           116.2676         calculate D2E/DX2 analytically  !
 ! A58   A(23,24,25)           105.8379         calculate D2E/DX2 analytically  !
 ! A59   A(23,24,26)           111.0276         calculate D2E/DX2 analytically  !
 ! A60   A(23,24,27)           111.0195         calculate D2E/DX2 analytically  !
 ! A61   A(25,24,26)           109.9197         calculate D2E/DX2 analytically  !
 ! A62   A(25,24,27)           109.6276         calculate D2E/DX2 analytically  !
 ! A63   A(26,24,27)           109.3537         calculate D2E/DX2 analytically  !
 ! A64   A(22,28,29)           110.6844         calculate D2E/DX2 analytically  !
 ! A65   A(22,28,30)           109.8263         calculate D2E/DX2 analytically  !
 ! A66   A(22,28,31)           105.4798         calculate D2E/DX2 analytically  !
 ! A67   A(29,28,30)           110.3494         calculate D2E/DX2 analytically  !
 ! A68   A(29,28,31)           110.3159         calculate D2E/DX2 analytically  !
 ! A69   A(30,28,31)           110.0813         calculate D2E/DX2 analytically  !
 ! A70   A(33,32,34)           105.2245         calculate D2E/DX2 analytically  !
 ! A71   A(36,35,37)           105.751          calculate D2E/DX2 analytically  !
 ! A72   A(20,37,35)           160.2457         calculate D2E/DX2 analytically  !
 ! A73   A(33,38,39)           113.5974         calculate D2E/DX2 analytically  !
 ! A74   A(33,38,40)            95.9421         calculate D2E/DX2 analytically  !
 ! A75   A(39,38,40)           104.6558         calculate D2E/DX2 analytically  !
 ! A76   A(17,40,38)           159.2401         calculate D2E/DX2 analytically  !
 ! A77   A(42,41,43)           105.0504         calculate D2E/DX2 analytically  !
 ! A78   L(32,33,38,2,-1)      172.1881         calculate D2E/DX2 analytically  !
 ! A79   L(21,42,41,25,-1)     179.9721         calculate D2E/DX2 analytically  !
 ! A80   L(32,33,38,2,-2)      184.4144         calculate D2E/DX2 analytically  !
 ! A81   L(21,42,41,25,-2)     182.0799         calculate D2E/DX2 analytically  !
 ! D1    D(4,1,2,7)             36.3715         calculate D2E/DX2 analytically  !
 ! D2    D(4,1,2,14)           175.012          calculate D2E/DX2 analytically  !
 ! D3    D(5,1,2,7)           -179.7193         calculate D2E/DX2 analytically  !
 ! D4    D(5,1,2,14)           -41.0789         calculate D2E/DX2 analytically  !
 ! D5    D(17,1,2,7)           -70.2674         calculate D2E/DX2 analytically  !
 ! D6    D(17,1,2,14)           68.3731         calculate D2E/DX2 analytically  !
 ! D7    D(2,1,4,3)            -13.8724         calculate D2E/DX2 analytically  !
 ! D8    D(2,1,4,6)           -173.8241         calculate D2E/DX2 analytically  !
 ! D9    D(2,1,4,12)            45.7612         calculate D2E/DX2 analytically  !
 ! D10   D(5,1,4,3)           -157.9324         calculate D2E/DX2 analytically  !
 ! D11   D(5,1,4,6)             42.1158         calculate D2E/DX2 analytically  !
 ! D12   D(5,1,4,12)           -98.2989         calculate D2E/DX2 analytically  !
 ! D13   D(10,1,4,3)           -60.0947         calculate D2E/DX2 analytically  !
 ! D14   D(10,1,4,6)           139.9536         calculate D2E/DX2 analytically  !
 ! D15   D(10,1,4,12)           -0.4611         calculate D2E/DX2 analytically  !
 ! D16   D(17,1,4,3)            98.6215         calculate D2E/DX2 analytically  !
 ! D17   D(17,1,4,6)           -61.3302         calculate D2E/DX2 analytically  !
 ! D18   D(17,1,4,12)          158.2551         calculate D2E/DX2 analytically  !
 ! D19   D(4,1,10,11)         -128.856          calculate D2E/DX2 analytically  !
 ! D20   D(4,1,10,12)            0.4772         calculate D2E/DX2 analytically  !
 ! D21   D(5,1,10,11)           -6.6659         calculate D2E/DX2 analytically  !
 ! D22   D(5,1,10,12)          122.6674         calculate D2E/DX2 analytically  !
 ! D23   D(17,1,10,11)         130.5063         calculate D2E/DX2 analytically  !
 ! D24   D(17,1,10,12)        -100.1604         calculate D2E/DX2 analytically  !
 ! D25   D(2,1,17,16)           80.506          calculate D2E/DX2 analytically  !
 ! D26   D(2,1,17,19)          -36.4753         calculate D2E/DX2 analytically  !
 ! D27   D(2,1,17,40)         -146.4576         calculate D2E/DX2 analytically  !
 ! D28   D(4,1,17,16)          -26.7325         calculate D2E/DX2 analytically  !
 ! D29   D(4,1,17,19)         -143.7139         calculate D2E/DX2 analytically  !
 ! D30   D(4,1,17,40)          106.3039         calculate D2E/DX2 analytically  !
 ! D31   D(5,1,17,16)         -151.7681         calculate D2E/DX2 analytically  !
 ! D32   D(5,1,17,19)           91.2506         calculate D2E/DX2 analytically  !
 ! D33   D(5,1,17,40)          -18.7317         calculate D2E/DX2 analytically  !
 ! D34   D(10,1,17,16)          70.2939         calculate D2E/DX2 analytically  !
 ! D35   D(10,1,17,19)         -46.6875         calculate D2E/DX2 analytically  !
 ! D36   D(10,1,17,40)        -156.6697         calculate D2E/DX2 analytically  !
 ! D37   D(1,2,7,3)            -42.8878         calculate D2E/DX2 analytically  !
 ! D38   D(1,2,7,8)           -161.3763         calculate D2E/DX2 analytically  !
 ! D39   D(1,2,7,9)             75.3285         calculate D2E/DX2 analytically  !
 ! D40   D(10,2,7,3)            34.5604         calculate D2E/DX2 analytically  !
 ! D41   D(10,2,7,8)           -83.9281         calculate D2E/DX2 analytically  !
 ! D42   D(10,2,7,9)           152.7766         calculate D2E/DX2 analytically  !
 ! D43   D(14,2,7,3)          -178.8206         calculate D2E/DX2 analytically  !
 ! D44   D(14,2,7,8)            62.6909         calculate D2E/DX2 analytically  !
 ! D45   D(14,2,7,9)           -60.6044         calculate D2E/DX2 analytically  !
 ! D46   D(7,2,10,11)          161.6271         calculate D2E/DX2 analytically  !
 ! D47   D(7,2,10,12)          -25.8214         calculate D2E/DX2 analytically  !
 ! D48   D(14,2,10,11)          14.4569         calculate D2E/DX2 analytically  !
 ! D49   D(14,2,10,12)        -172.9916         calculate D2E/DX2 analytically  !
 ! D50   D(7,3,4,1)            -13.1431         calculate D2E/DX2 analytically  !
 ! D51   D(7,3,4,6)            146.5928         calculate D2E/DX2 analytically  !
 ! D52   D(15,3,4,1)          -160.6299         calculate D2E/DX2 analytically  !
 ! D53   D(15,3,4,6)            -0.894          calculate D2E/DX2 analytically  !
 ! D54   D(4,3,7,2)             34.5648         calculate D2E/DX2 analytically  !
 ! D55   D(4,3,7,8)            151.3261         calculate D2E/DX2 analytically  !
 ! D56   D(4,3,7,9)            -84.0047         calculate D2E/DX2 analytically  !
 ! D57   D(12,3,7,2)           -31.4396         calculate D2E/DX2 analytically  !
 ! D58   D(12,3,7,8)            85.3217         calculate D2E/DX2 analytically  !
 ! D59   D(12,3,7,9)          -150.0091         calculate D2E/DX2 analytically  !
 ! D60   D(15,3,7,2)          -179.6728         calculate D2E/DX2 analytically  !
 ! D61   D(15,3,7,8)           -62.9115         calculate D2E/DX2 analytically  !
 ! D62   D(15,3,7,9)            61.7577         calculate D2E/DX2 analytically  !
 ! D63   D(7,3,12,10)           17.8353         calculate D2E/DX2 analytically  !
 ! D64   D(7,3,12,13)         -145.6514         calculate D2E/DX2 analytically  !
 ! D65   D(15,3,12,10)         167.1783         calculate D2E/DX2 analytically  !
 ! D66   D(15,3,12,13)           3.6916         calculate D2E/DX2 analytically  !
 ! D67   D(1,4,12,10)            0.5567         calculate D2E/DX2 analytically  !
 ! D68   D(1,4,12,13)          138.9593         calculate D2E/DX2 analytically  !
 ! D69   D(6,4,12,10)         -140.3565         calculate D2E/DX2 analytically  !
 ! D70   D(6,4,12,13)           -1.9539         calculate D2E/DX2 analytically  !
 ! D71   D(1,10,12,3)           58.3412         calculate D2E/DX2 analytically  !
 ! D72   D(1,10,12,4)           -0.4642         calculate D2E/DX2 analytically  !
 ! D73   D(1,10,12,13)        -137.9241         calculate D2E/DX2 analytically  !
 ! D74   D(2,10,12,3)            4.8592         calculate D2E/DX2 analytically  !
 ! D75   D(2,10,12,4)          -53.9462         calculate D2E/DX2 analytically  !
 ! D76   D(2,10,12,13)         168.5939         calculate D2E/DX2 analytically  !
 ! D77   D(11,10,12,3)         177.3556         calculate D2E/DX2 analytically  !
 ! D78   D(11,10,12,4)         118.5502         calculate D2E/DX2 analytically  !
 ! D79   D(11,10,12,13)        -18.9097         calculate D2E/DX2 analytically  !
 ! D80   D(18,16,17,1)          90.7631         calculate D2E/DX2 analytically  !
 ! D81   D(18,16,17,19)       -161.9528         calculate D2E/DX2 analytically  !
 ! D82   D(18,16,17,40)        -31.9285         calculate D2E/DX2 analytically  !
 ! D83   D(17,16,18,21)       -175.7794         calculate D2E/DX2 analytically  !
 ! D84   D(17,16,18,23)          5.9435         calculate D2E/DX2 analytically  !
 ! D85   D(1,17,19,20)         115.59           calculate D2E/DX2 analytically  !
 ! D86   D(1,17,19,22)         -67.6367         calculate D2E/DX2 analytically  !
 ! D87   D(16,17,19,20)          2.5141         calculate D2E/DX2 analytically  !
 ! D88   D(16,17,19,22)        179.2874         calculate D2E/DX2 analytically  !
 ! D89   D(40,17,19,20)       -135.4685         calculate D2E/DX2 analytically  !
 ! D90   D(40,17,19,22)         41.3048         calculate D2E/DX2 analytically  !
 ! D91   D(1,17,40,38)         135.248          calculate D2E/DX2 analytically  !
 ! D92   D(16,17,40,38)       -101.0752         calculate D2E/DX2 analytically  !
 ! D93   D(19,17,40,38)         31.3464         calculate D2E/DX2 analytically  !
 ! D94   D(16,18,21,42)        171.8614         calculate D2E/DX2 analytically  !
 ! D95   D(23,18,21,42)         -9.979          calculate D2E/DX2 analytically  !
 ! D96   D(16,18,23,24)       -179.9044         calculate D2E/DX2 analytically  !
 ! D97   D(21,18,23,24)          1.855          calculate D2E/DX2 analytically  !
 ! D98   D(17,19,20,37)       -123.459          calculate D2E/DX2 analytically  !
 ! D99   D(22,19,20,37)         60.2996         calculate D2E/DX2 analytically  !
 ! D100  D(17,19,22,28)       -172.0297         calculate D2E/DX2 analytically  !
 ! D101  D(20,19,22,28)          4.7576         calculate D2E/DX2 analytically  !
 ! D102  D(19,20,37,35)          6.0909         calculate D2E/DX2 analytically  !
 ! D103  D(18,21,41,43)        170.2684         calculate D2E/DX2 analytically  !
 ! D104  D(19,22,28,29)        -65.7128         calculate D2E/DX2 analytically  !
 ! D105  D(19,22,28,30)         56.3772         calculate D2E/DX2 analytically  !
 ! D106  D(19,22,28,31)        174.9696         calculate D2E/DX2 analytically  !
 ! D107  D(18,23,24,25)       -179.9118         calculate D2E/DX2 analytically  !
 ! D108  D(18,23,24,26)        -60.672          calculate D2E/DX2 analytically  !
 ! D109  D(18,23,24,27)         61.2029         calculate D2E/DX2 analytically  !
 ! D110  D(34,32,38,39)        -53.5343         calculate D2E/DX2 analytically  !
 ! D111  D(34,32,38,40)         53.9893         calculate D2E/DX2 analytically  !
 ! D112  D(36,35,37,20)        178.3582         calculate D2E/DX2 analytically  !
 ! D113  D(33,38,40,17)          5.9991         calculate D2E/DX2 analytically  !
 ! D114  D(39,38,40,17)        122.309          calculate D2E/DX2 analytically  !
 --------------------------------------------------------------------------------
 Trust Radius=3.00D-01 FncErr=1.00D-07 GrdErr=1.00D-06
 Number of steps in this run=    251 maximum allowed number of steps=    258.
 Search for a saddle point of order  1.
 GradGradGradGradGradGradGradGradGradGradGradGradGradGradGradGradGradGrad

                          Input orientation:                          
 ---------------------------------------------------------------------
 Center     Atomic      Atomic             Coordinates (Angstroms)
 Number     Number       Type             X           Y           Z
 ---------------------------------------------------------------------
      1          6           0       -0.523540   -1.051540   -1.193050
      2          6           0       -1.588880   -1.943080   -0.483970
      3          6           0        0.435530   -2.862140    0.080890
      4          6           0        0.750470   -1.838640   -0.971250
      5          1           0       -0.721620   -0.498290   -2.096600
      6          1           0        1.736730   -1.496940   -1.237160
      7          6           0       -0.884310   -2.515610    0.733760
      8          1           0       -1.414940   -3.389970    1.110420
      9          1           0       -0.767300   -1.784300    1.530730
     10          6           0       -1.151920   -2.678670   -1.645170
     11          1           0       -1.657860   -2.708900   -2.597640
     12          6           0        0.190940   -3.225610   -1.350350
     13          1           0        0.719300   -3.959100   -1.935370
     14          1           0       -2.594260   -1.548650   -0.429950
     15          1           0        1.253400   -3.315620    0.618220
     16          7           0        0.635620    0.234580    0.872820
     17          7           0       -0.181400    0.575300   -0.069490
     18          6           0        1.975200    0.403220    0.558630
     19          6           0       -1.514940    0.783010    0.407790
     20          8           0       -1.873030    0.707210    1.553800
     21          8           0        2.845030    0.050050    1.327020
     22          8           0       -2.274380    1.140480   -0.610480
     23          8           0        2.237840    1.003890   -0.611680
     24          6           0        3.615080    1.176230   -0.937350
     25          1           0        3.631430    1.673710   -1.904640
     26          1           0        4.118460    1.793710   -0.193690
     27          1           0        4.122780    0.214070   -1.011680
     28          6           0       -3.604370    1.562410   -0.295710
     29          1           0       -4.185060    0.734070    0.111260
     30          1           0       -3.571840    2.386940    0.414540
     31          1           0       -4.032770    1.897110   -1.236560
     32          8           0       -1.371820    4.036340    0.363630
     33          1           0       -0.861110    3.747020   -0.410710
     34          1           0       -0.828900    3.811840    1.121600
     35          8           0       -3.963870   -1.214170    1.849140
     36          1           0       -4.374110   -1.324450    2.708340
     37          1           0       -3.297290   -0.522360    1.963240
     38          8           0        0.166970    2.927940   -1.779300
     39          1           0        1.080450    3.219960   -1.800290
     40          1           0        0.199540    2.046480   -1.367050
     41          8           0        5.668130   -0.267390    1.395240
     42          1           0        4.706860   -0.139970    1.382190
     43          1           0        5.884110   -0.437760    2.313150
 ---------------------------------------------------------------------
                    Distance matrix (angstroms):
                    1          2          3          4          5
     1  C    0.000000
     2  C    1.559675   0.000000
     3  C    2.412677   2.293899   0.000000
     4  C    1.513877   2.391842   1.501245   0.000000
     5  H    1.077833   2.332409   3.415881   2.286919   0.000000
     6  H    2.304159   3.438898   2.300902   1.077115   2.789162
     7  C    2.446682   1.518906   1.512713   2.457204   3.479509
     8  H    3.401297   2.160052   2.182378   3.380677   4.373498
     9  H    2.831136   2.181564   2.170386   2.926855   3.848822
    10  C    1.801895   1.442363   2.352221   2.186071   2.267819
    11  H    2.450795   2.249186   3.402982   3.033571   2.452424
    12  C    2.293863   2.358656   1.496791   1.542879   2.971183
    13  H    3.248014   3.390958   2.312823   2.329560   3.752260
    14  H    2.262150   1.081333   3.341533   3.400635   2.718043
    15  H    3.400628   3.343239   1.078554   2.227291   4.382727
    16  N    2.695473   3.395804   3.202634   2.777053   3.346140
    17  N    2.006503   2.914624   3.495599   2.740193   2.356609
    18  C    3.380593   4.392585   3.641620   2.977656   3.890476
    19  C    2.628904   2.869193   4.147085   3.729193   2.922851
    20  O    3.529803   3.355188   4.498797   4.442970   4.013028
    21  O    4.348737   5.187659   3.979872   3.638183   4.974218
    22  O    2.865271   3.161370   4.882886   4.260872   2.702810
    23  O    3.491132   4.831638   4.321361   3.228241   3.635923
    24  C    4.707071   6.084147   5.239731   4.158916   4.791121
    25  H    5.019674   6.507773   5.893220   4.637645   4.868622
    26  H    5.535552   6.828001   5.942752   5.014172   5.683371
    27  H    4.819020   6.128200   4.924692   3.948130   5.015249
    28  C    4.138776   4.047975   6.003271   5.566698   3.974913
    29  H    4.277424   3.776451   5.855211   5.670108   4.288213
    30  H    4.868226   4.846496   6.612350   6.201476   4.770129
    31  H    4.583789   4.613681   6.659718   6.074998   4.176281
    32  O    5.387890   6.043096   7.136910   6.387598   5.199842
    33  H    4.873622   5.736920   6.753069   5.840462   4.569939
    34  H    5.394749   6.022834   6.871963   6.229154   5.380106
    35  O    4.595350   3.408121   5.019685   5.528975   5.156892
    36  H    5.488371   4.281478   5.692154   6.329699   6.091853
    37  H    4.235078   3.305442   4.790799   5.169931   4.808010
    38  O    4.081269   5.337389   6.087484   4.869672   3.553776
    39  H    4.602960   5.959447   6.398961   5.136694   4.142540
    40  H    3.186040   4.460366   5.123160   3.943899   2.802969
    41  O    6.756546   7.681378   5.986681   5.679127   7.285271
    42  H    5.900839   6.809560   5.229517   4.906850   6.457458
    43  H    7.329948   8.120065   6.367702   6.253320   7.942621
                    6          7          8          9         10
     6  H    0.000000
     7  C    3.433958   0.000000
     8  H    4.362077   1.089930   0.000000
     9  H    3.743522   1.087965   1.781649   0.000000
    10  C    3.147580   2.399482   2.858042   3.321772   0.000000
    11  H    3.852661   3.425488   3.777906   4.323358   1.078929
    12  C    2.321762   2.450261   2.943001   3.360985   1.479640
    13  H    2.754068   3.432125   3.762410   4.353571   2.285866
    14  H    4.405875   2.283235   2.674695   2.690275   2.198647
    15  H    2.642658   2.285425   2.714374   2.694595   3.363659
    16  N    2.943233   3.145325   4.171164   2.544977   4.245303
    17  N    3.055627   3.270018   4.317079   2.910618   3.743394
    18  C    2.625326   4.089870   5.117207   3.640265   4.912602
    19  C    4.298534   3.374144   4.232901   2.900179   4.040997
    20  O    5.067357   3.469381   4.146482   2.725948   4.713554
    21  O    3.193200   4.565364   5.479781   4.056509   5.679387
    22  O    4.841251   4.135973   4.921901   3.925609   4.112956
    23  O    2.626116   4.893354   5.967783   4.625450   5.110756
    24  C    3.280842   6.055312   7.095396   5.836215   6.171349
    25  H    3.753457   6.701005   7.758691   6.565701   6.472324
    26  H    4.194025   6.667692   7.693488   6.296541   7.062994
    27  H    2.944763   5.963947   6.939651   5.862612   6.049109
    28  C    6.226821   5.008870   5.594361   4.752401   5.081566
    29  H    6.470181   4.673636   5.067503   4.476401   4.892012
    30  H    6.781855   5.599975   6.205575   5.148841   5.979868
    31  H    6.693781   5.767760   6.349375   5.645703   5.422548
    32  O    6.545441   6.580480   7.463889   5.967195   7.012488
    33  H    5.910238   6.366387   7.318278   5.862891   6.549653
    34  H    6.350539   6.339567   7.225624   5.611414   7.063008
    35  O    6.488609   3.524416   3.431743   3.262590   4.718265
    36  H    7.275925   4.182886   3.946696   3.821951   5.582962
    37  H    6.044313   3.362609   3.534647   2.860141   4.719418
    38  O    4.726270   6.087109   7.125230   5.833898   5.761210
    39  H    4.795515   6.571031   7.641360   6.289077   6.308833
    40  H    3.864667   5.138171   6.188650   4.899672   4.922483
    41  O    4.888479   6.958917   7.746064   6.613179   7.846747
    42  H    4.186172   6.109444   6.936339   5.717719   7.066485
    43  H    5.561234   7.254202   7.964812   6.831296   8.378287
                   11         12         13         14         15
    11  H    0.000000
    12  C    2.289276   0.000000
    13  H    2.766314   1.076764   0.000000
    14  H    2.630951   3.378856   4.365345   0.000000
    15  H    4.380103   2.238792   2.687034   4.361804   0.000000
    16  N    5.095902   4.136803   5.047760   3.912703   3.612533
    17  N    4.399710   4.028170   4.985334   3.234654   4.203672
    18  C    5.731183   4.471711   5.179494   5.066266   3.788709
    19  C    4.609389   4.697884   5.741936   2.702476   4.950430
    20  O    5.380572   5.306706   6.377220   3.089392   5.180061
    21  O    6.579573   4.994242   5.588846   5.935374   3.789910
    22  O    4.375686   5.068328   6.059964   2.714099   5.814788
    23  O    5.736316   4.756480   5.356248   5.467877   4.597819
    24  C    6.756826   5.592093   5.979398   6.799877   5.307923
    25  H    6.903920   6.012283   6.341135   7.163626   6.075629
    26  H    7.708330   6.477411   6.905256   7.502520   5.913799
    27  H    6.668945   5.235023   5.463719   6.968803   4.832042
    28  C    5.227989   6.200143   7.202061   3.273689   6.944665
    29  H    5.057561   6.079864   7.089943   2.834495   6.799547
    30  H    6.221265   6.983843   8.013001   4.142185   7.472859
    31  H    5.357991   6.640402   7.574015   3.820104   7.652213
    32  O    7.372191   7.623376   8.578184   5.772022   7.810756
    33  H    6.862680   7.113881   8.012900   5.572100   7.443839
    34  H    7.552481   7.528367   8.492909   5.853089   7.442449
    35  O    5.227404   5.616500   6.617344   2.679918   5.757705
    36  H    6.119489   6.397426   7.378906   3.614830   6.324731
    37  H    5.316984   5.518622   6.568359   2.697199   5.506374
    38  O    5.981108   6.168529   6.910915   5.430009   6.775727
    39  H    6.579171   6.522196   7.189407   6.174218   6.970861
    40  H    5.251469   5.272123   6.054761   4.648487   5.814124
    41  O    8.693342   6.803598   7.015170   8.558039   5.420822
    42  H    7.933984   6.114040   6.441474   7.653403   4.753398
    43  H    9.281985   7.321579   7.558110   8.980057   5.709496
                   16         17         18         19         20
    16  N    0.000000
    17  N    1.292888   0.000000
    18  C    1.386228   2.252792   0.000000
    19  C    2.267584   1.431527   3.513982   0.000000
    20  O    2.642052   2.348208   3.986433   1.203043   0.000000
    21  O    2.263149   3.374227   1.213160   4.515701   4.769002
    22  O    3.389533   2.234427   4.468702   1.319624   2.243415
    23  O    2.315748   2.516025   1.341421   3.895056   4.655811
    24  C    3.611177   3.940502   2.350470   5.318000   6.045259
    25  H    4.331311   4.371722   3.228768   5.711900   6.572215
    26  H    3.962134   4.470877   2.663271   5.754866   6.334995
    27  H    3.963842   4.420879   2.667162   5.841445   6.540230
    28  C    4.594139   3.569634   5.762397   2.338396   2.673872
    29  H    4.905958   4.010882   6.185338   2.686981   2.725275
    30  H    4.748199   3.874456   5.892840   2.608347   2.646764
    31  H    5.385848   4.235833   6.445938   3.206957   3.723768
    32  O    4.329257   3.685579   4.943696   3.256776   3.570829
    33  H    4.028013   3.261632   4.490576   3.143691   3.758155
    34  H    3.873435   3.509009   4.449562   3.186532   3.303896
    35  O    4.920100   4.603306   6.289191   3.473251   2.854915
    36  H    5.558516   5.376263   6.922415   4.231876   3.422865
    37  H    4.150874   3.878868   5.534327   2.701886   1.925617
    38  O    3.808879   2.929117   3.887136   3.494697   4.494752
    39  H    4.031859   3.403257   3.781416   4.189319   5.127073
    40  H    2.913789   1.998286   3.092170   2.772337   3.823683
    41  O    5.084393   6.088724   3.845434   7.326315   7.605530
    42  H    4.120041   5.149182   2.904354   6.364915   6.636423
    43  H    5.483907   6.594974   4.366368   7.737352   7.877867
                   21         22         23         24         25
    21  O    0.000000
    22  O    5.581335   0.000000
    23  O    2.244337   4.514287   0.000000
    24  C    2.643602   5.898632   1.425676   0.000000
    25  H    3.701125   6.069413   2.015564   1.087844   0.000000
    26  H    2.640934   6.439629   2.082129   1.089818   1.782960
    27  H    2.670031   6.476330   2.082502   1.090429   1.780267
    28  C    6.820209   1.430377   5.877346   7.258188   7.413356
    29  H    7.167156   2.082493   6.469087   7.882720   8.126764
    30  H    6.889840   2.070684   6.059566   7.412506   7.600947
    31  H    7.568864   2.014051   6.364658   7.687575   7.696506
    32  O    5.882215   3.185830   4.814211   5.894230   5.979931
    33  H    5.515684   2.971749   4.143506   5.188698   5.168497
    34  H    5.262226   3.496524   4.504857   5.561895   5.798644
    35  O    6.944925   3.801116   7.031119   8.421343   8.950938
    36  H    7.477518   4.636735   7.756390   9.130806   9.713764
    37  H    6.201655   3.230390   6.292640   7.686318   8.233491
    38  O    5.010337   3.243662   3.058399   3.958135   3.686636
    39  H    4.789795   4.122471   2.768269   3.368360   2.984841
    40  H    4.271108   2.741079   2.410860   3.550759   3.493684
    41  O    2.841710   8.311948   4.172622   3.426373   4.336499
    42  H    1.872315   7.372109   3.373425   2.881776   3.905027
    43  H    3.232092   8.809053   4.891653   4.280095   5.227105
                   26         27         28         29         30
    26  H    0.000000
    27  H    1.778873   0.000000
    28  C    7.726966   7.876515   0.000000
    29  H    8.376412   8.399500   1.090400   0.000000
    30  H    7.737091   8.121739   1.088744   1.788853   0.000000
    31  H    8.218322   8.330438   1.086623   1.786749   1.782841
    32  O    5.956775   6.833144   3.396960   4.345457   2.750127
    33  H    5.353376   6.138572   3.508735   4.516521   3.143074
    34  H    5.502655   6.481818   3.843428   4.664468   3.170803
    35  O    8.862537   8.695865   3.526899   2.620075   3.896121
    36  H    9.500971   9.402273   4.236836   3.319348   4.436166
    37  H    8.062870   8.028071   3.089242   2.407609   3.307246
    38  O    4.406235   4.858268   4.276531   5.227566   4.368560
    39  H    3.720868   4.348914   5.192184   6.128562   5.219502
    40  H    4.098610   4.344632   3.981435   4.809630   4.184887
    41  O    3.028912   2.900547   9.601392   9.986835   9.663555
    42  H    2.562954   2.489399   8.648121   9.024713   8.709678
    43  H    3.792259   3.818594  10.041817  10.373509  10.049808
                   31         32         33         34         35
    31  H    0.000000
    32  O    3.770619   0.000000
    33  H    3.763459   0.971665   0.000000
    34  H    4.414962   0.959000   1.534019   0.000000
    35  O    4.382506   6.040970   6.272754   5.968092   0.000000
    36  H    5.104625   6.576434   6.912991   6.439544   0.958480
    37  H    4.078417   5.200763   5.458774   5.058320   0.967444
    38  O    4.358325   2.861568   1.897598   3.191905   6.883785
    39  H    5.311567   3.370854   2.445073   3.540251   7.643626
    40  H    4.236955   3.069848   2.220676   3.219870   6.189483
    41  O   10.281969   8.315480   7.874511   7.676353   9.689058
    42  H    9.348191   7.445091   7.023209   6.806567   8.749486
    43  H   10.788724   8.744525   8.392246   8.033890   9.889430
                   36         37         38         39         40
    36  H    0.000000
    37  H    1.535599   0.000000
    38  O    7.670928   6.157294   0.000000
    39  H    8.410210   6.879951   0.959251   0.000000
    40  H    6.992156   5.469697   0.973644   1.529952   0.000000
    41  O   10.182740   8.987012   7.109894   6.589372   6.549024
    42  H    9.253415   8.034318   6.325954   5.879469   5.714439
    43  H   10.304051   9.188455   7.794984   7.305782   7.213159
                   41         42         43
    41  O    0.000000
    42  H    0.969766   0.000000
    43  H    0.958244   1.530125   0.000000
 Stoichiometry    C11H22N2O8
 Framework group  C1[X(C11H22N2O8)]
 Deg. of freedom   123
 Full point group                 C1      NOp   1
 Largest Abelian subgroup         C1      NOp   1
 Largest concise Abelian subgroup C1      NOp   1
                         Standard orientation:                         
 ---------------------------------------------------------------------
 Center     Atomic      Atomic             Coordinates (Angstroms)
 Number     Number       Type             X           Y           Z
 ---------------------------------------------------------------------
      1          6           0       -0.523541   -1.051540   -1.193050
      2          6           0       -1.588881   -1.943080   -0.483970
      3          6           0        0.435529   -2.862140    0.080890
      4          6           0        0.750469   -1.838640   -0.971250
      5          1           0       -0.721620   -0.498290   -2.096600
      6          1           0        1.736729   -1.496941   -1.237160
      7          6           0       -0.884311   -2.515610    0.733760
      8          1           0       -1.414941   -3.389970    1.110420
      9          1           0       -0.767301   -1.784300    1.530730
     10          6           0       -1.151921   -2.678670   -1.645170
     11          1           0       -1.657861   -2.708900   -2.597640
     12          6           0        0.190939   -3.225610   -1.350350
     13          1           0        0.719299   -3.959100   -1.935370
     14          1           0       -2.594261   -1.548650   -0.429950
     15          1           0        1.253399   -3.315621    0.618220
     16          7           0        0.635620    0.234580    0.872820
     17          7           0       -0.181400    0.575300   -0.069490
     18          6           0        1.975200    0.403219    0.558630
     19          6           0       -1.514940    0.783010    0.407790
     20          8           0       -1.873030    0.707210    1.553800
     21          8           0        2.845030    0.050049    1.327020
     22          8           0       -2.274380    1.140480   -0.610480
     23          8           0        2.237840    1.003889   -0.611680
     24          6           0        3.615080    1.176229   -0.937350
     25          1           0        3.631430    1.673709   -1.904640
     26          1           0        4.118460    1.793709   -0.193690
     27          1           0        4.122780    0.214069   -1.011680
     28          6           0       -3.604370    1.562411   -0.295710
     29          1           0       -4.185060    0.734071    0.111260
     30          1           0       -3.571840    2.386941    0.414540
     31          1           0       -4.032770    1.897111   -1.236560
     32          8           0       -1.371819    4.036340    0.363630
     33          1           0       -0.861109    3.747020   -0.410710
     34          1           0       -0.828899    3.811840    1.121600
     35          8           0       -3.963871   -1.214169    1.849140
     36          1           0       -4.374111   -1.324449    2.708340
     37          1           0       -3.297290   -0.522359    1.963240
     38          8           0        0.166970    2.927940   -1.779300
     39          1           0        1.080450    3.219960   -1.800290
     40          1           0        0.199540    2.046480   -1.367050
     41          8           0        5.668130   -0.267392    1.395240
     42          1           0        4.706860   -0.139971    1.382190
     43          1           0        5.884110   -0.437762    2.313150
 ---------------------------------------------------------------------
 Rotational constants (GHZ):      0.3329577      0.2299423      0.1721150
 General basis read from cards:  (5D, 7F)
 There are   972 symmetry adapted cartesian basis functions of A   symmetry.
 There are   867 symmetry adapted basis functions of A   symmetry.
   867 basis functions,  1331 primitive gaussians,   972 cartesian basis functions
    83 alpha electrons       83 beta electrons
       nuclear repulsion energy      1968.9150441477 Hartrees.
 NAtoms=   43 NActive=   43 NUniq=   43 SFac= 1.00D+00 NAtFMM=   60 NAOKFM=F Big=F
 Integral buffers will be    131072 words long.
 Raffenetti 2 integral format.
 Two-electron integral symmetry is turned on.
 Nuclear repulsion after empirical dispersion term =     1968.8788330794 Hartrees.
 Force inversion solution in PCM.
 ------------------------------------------------------------------------------
 Polarizable Continuum Model (PCM)
 =================================
 Model                : PCM (using non-symmetric T matrix).
 Atomic radii         : SMD-Coulomb.
 Polarization charges : Total charges.
 Charge compensation  : None.
 Solution method      : Matrix inversion.
 Cavity type          : VdW (van der Waals Surface) (Alpha=1.000).
 Cavity algorithm     : GePol (No added spheres)
                        Default sphere list used, NSphG=   43.
                        Lebedev-Laikov grids with approx.  5.0 points / Ang**2.
                        Smoothing algorithm: Karplus/York (Gamma=1.0000).
                        Polarization charges: spherical gaussians, with
                                              point-specific exponents (IZeta= 3).
                        Self-potential: point-specific (ISelfS= 7).
                        Self-field    : sphere-specific E.n sum rule (ISelfD= 2).
 1st derivatives      : Analytical E(r).r(x)/FMM algorithm (CHGder, D1EAlg=3).
                        Cavity 1st derivative terms included.
 2nd derivatives      : Analytical E(r).r(xy)/FMM algorithm (CHGder, D2EAlg=3).
                        Cavity 2nd derivative terms included.
 Solvent              : Toluene, Eps=   2.374100 Eps(inf)=   2.238315
 ------------------------------------------------------------------------------
 ------------------------------------------------------------------------------
 Atomic radii for non-electrostatic terms: SMD-CDS.
 ------------------------------------------------------------------------------
 Nuclear repulsion after PCM non-electrostatic terms =     1968.8678653884 Hartrees.
 One-electron integrals computed using PRISM.
 NBasis=   867 RedAO= T EigKep=  1.54D-06  NBF=   867
 NBsUse=   863 1.00D-06 EigRej=  6.22D-07 NBFU=   863
 ExpMin= 3.17D-02 ExpMax= 2.70D+04 ExpMxC= 9.22D+02 IAcc=3 IRadAn=         5 AccDes= 0.00D+00
 Harris functional with IExCor= 4639 and IRadAn=       5 diagonalized for initial guess.
 HarFok:  IExCor= 4639 AccDes= 0.00D+00 IRadAn=         5 IDoV= 1 UseB2=F ITyADJ=14
 ICtDFT=  3500011 ScaDFX=  1.000000  1.000000  1.000000  1.000000
 FoFCou: FMM=F IPFlag=           0 FMFlag=      100000 FMFlg1=           0
         NFxFlg=           0 DoJE=T BraDBF=F KetDBF=T FulRan=T
         wScrn=  0.000000 ICntrl=     500 IOpCl=  0 I1Cent=   200000004 NGrid=           0
         NMat0=    1 NMatS0=      1 NMatT0=    0 NMatD0=    1 NMtDS0=    0 NMtDT0=    0
 Petite list used in FoFCou.
 Requested convergence on RMS density matrix=1.00D-08 within 128 cycles.
 Requested convergence on MAX density matrix=1.00D-06.
 Requested convergence on             energy=1.00D-06.
 No special actions if energy rises.
 Inv3:  Mode=1 IEnd=    27870912.
 Iteration    1 A*A^-1 deviation from unit magnitude is 5.77D-15 for   3040.
 Iteration    1 A*A^-1 deviation from orthogonality  is 3.06D-15 for   1292    372.
 Iteration    1 A^-1*A deviation from unit magnitude is 6.00D-15 for   3040.
 Iteration    1 A^-1*A deviation from orthogonality  is 2.70D-15 for   1078   1076.
 Error on total polarization charges =  0.01412
 SCF Done:  E(RwB97XD) =  -1143.68143924     A.U. after   18 cycles
            NFock= 18  Conv=0.66D-08     -V/T= 2.0044
 SMD-CDS (non-electrostatic) energy       (kcal/mol) =      -6.88
 (included in total energy above)
 DoSCS=F DFT=T ScalE2(SS,OS)=  1.000000  1.000000
 Range of M.O.s used for correlation:     1   863
 NBasis=   867 NAE=    83 NBE=    83 NFC=     0 NFV=     0
 NROrb=    863 NOA=    83 NOB=    83 NVA=   780 NVB=   780

 **** Warning!!: The largest alpha MO coefficient is  0.14639670D+03

 PrsmSu:  requested number of processors reduced to:   7 ShMem   1 Linda.
 Symmetrizing basis deriv contribution to polar:
 IMax=3 JMax=2 DiffMx= 0.00D+00
 G2DrvN: will do    22 centers at a time, making    2 passes.
 Calling FoFCou, ICntrl=  3107 FMM=F I1Cent=   0 AccDes= 0.00D+00.
 Calling FoFCou, ICntrl=  3107 FMM=F I1Cent=   0 AccDes= 0.00D+00.
 NEqPCM:  Using equilibrium solvation (IEInf=0, Eps=   2.3741, EpsInf=   2.2383)
 G2PCM: DoFxE=T DoFxN=T DoGrad=T DoDP/DQ/DG/TGxP=FFFF NFrqRd=   0 IEInf=0 SqF1=F DoCFld=F IF1Alg=4.
 End of G2Drv F.D. properties file   721 does not exist.
 End of G2Drv F.D. properties file   722 does not exist.
 End of G2Drv F.D. properties file   788 does not exist.
          IDoAtm=1111111111111111111111111111111111111111111
 NEqPCM:  Using equilibrium solvation (IEInf=0, Eps=   2.3741, EpsInf=   2.2383)
          Differentiating once with respect to nuclear coordinates.
          There are   132 degrees of freedom in the 1st order CPHF.  IDoFFX=6 NUNeed=     0.
    129 vectors produced by pass  0 Test12= 6.47D-14 1.00D-09 XBig12= 1.55D-01 1.53D-01.
 AX will form    72 AO Fock derivatives at one time.
    126 vectors produced by pass  1 Test12= 6.47D-14 1.00D-09 XBig12= 1.33D-02 1.48D-02.
    126 vectors produced by pass  2 Test12= 6.47D-14 1.00D-09 XBig12= 5.05D-04 3.06D-03.
    126 vectors produced by pass  3 Test12= 6.47D-14 1.00D-09 XBig12= 6.86D-06 2.83D-04.
    126 vectors produced by pass  4 Test12= 6.47D-14 1.00D-09 XBig12= 8.04D-08 2.38D-05.
    126 vectors produced by pass  5 Test12= 6.47D-14 1.00D-09 XBig12= 6.94D-10 1.95D-06.
    126 vectors produced by pass  6 Test12= 6.47D-14 1.00D-09 XBig12= 4.96D-12 1.32D-07.
     64 vectors produced by pass  7 Test12= 6.47D-14 1.00D-09 XBig12= 4.13D-14 1.33D-08.
     16 vectors produced by pass  8 Test12= 6.47D-14 1.00D-09 XBig12= 3.04D-15 4.06D-09.
     16 vectors produced by pass  9 Test12= 6.47D-14 1.00D-09 XBig12= 6.59D-15 6.72D-09.
     16 vectors produced by pass 10 Test12= 6.47D-14 1.00D-09 XBig12= 1.51D-14 8.01D-09.
     16 vectors produced by pass 11 Test12= 6.47D-14 1.00D-09 XBig12= 1.10D-14 7.21D-09.
     10 vectors produced by pass 12 Test12= 6.47D-14 1.00D-09 XBig12= 3.30D-15 3.05D-09.
     10 vectors produced by pass 13 Test12= 6.47D-14 1.00D-09 XBig12= 2.93D-14 8.20D-09.
      8 vectors produced by pass 14 Test12= 6.47D-14 1.00D-09 XBig12= 4.63D-15 4.65D-09.
      8 vectors produced by pass 15 Test12= 6.47D-14 1.00D-09 XBig12= 2.37D-14 7.10D-09.
      8 vectors produced by pass 16 Test12= 6.47D-14 1.00D-09 XBig12= 2.00D-14 6.78D-09.
      8 vectors produced by pass 17 Test12= 6.47D-14 1.00D-09 XBig12= 6.15D-15 4.54D-09.
      8 vectors produced by pass 18 Test12= 6.47D-14 1.00D-09 XBig12= 1.34D-14 7.07D-09.
      8 vectors produced by pass 19 Test12= 6.47D-14 1.00D-09 XBig12= 1.21D-14 5.37D-09.
      8 vectors produced by pass 20 Test12= 6.47D-14 1.00D-09 XBig12= 5.26D-14 1.19D-08.
      3 vectors produced by pass 21 Test12= 6.47D-14 1.00D-09 XBig12= 2.32D-15 2.11D-09.
      3 vectors produced by pass 22 Test12= 6.47D-14 1.00D-09 XBig12= 2.71D-15 2.74D-09.
      3 vectors produced by pass 23 Test12= 6.47D-14 1.00D-09 XBig12= 2.52D-15 2.69D-09.
      3 vectors produced by pass 24 Test12= 6.47D-14 1.00D-09 XBig12= 4.87D-15 3.65D-09.
      3 vectors produced by pass 25 Test12= 6.47D-14 1.00D-09 XBig12= 3.92D-15 3.13D-09.
      3 vectors produced by pass 26 Test12= 6.47D-14 1.00D-09 XBig12= 6.72D-15 4.35D-09.
      3 vectors produced by pass 27 Test12= 6.47D-14 1.00D-09 XBig12= 2.59D-15 2.29D-09.
      3 vectors produced by pass 28 Test12= 6.47D-14 1.00D-09 XBig12= 2.89D-15 2.32D-09.
      2 vectors produced by pass 29 Test12= 6.47D-14 1.00D-09 XBig12= 1.30D-15 2.14D-09.
 InvSVY:  IOpt=1 It=  1 EMax= 1.05D-15
 Solved reduced A of dimension  1115 with   132 vectors.
 End of Minotr F.D. properties file   721 does not exist.
 End of Minotr F.D. properties file   722 does not exist.
 End of Minotr F.D. properties file   788 does not exist.

 **********************************************************************

            Population analysis using the SCF density.

 **********************************************************************

 Orbital symmetries:
       Occupied  (A) (A) (A) (A) (A) (A) (A) (A) (A) (A) (A) (A)
                 (A) (A) (A) (A) (A) (A) (A) (A) (A) (A) (A) (A)
                 (A) (A) (A) (A) (A) (A) (A) (A) (A) (A) (A) (A)
                 (A) (A) (A) (A) (A) (A) (A) (A) (A) (A) (A) (A)
                 (A) (A) (A) (A) (A) (A) (A) (A) (A) (A) (A) (A)
                 (A) (A) (A) (A) (A) (A) (A) (A) (A) (A) (A) (A)
                 (A) (A) (A) (A) (A) (A) (A) (A) (A) (A) (A)
       Virtual   (A) (A) (A) (A) (A) (A) (A) (A) (A) (A) (A) (A)
                 (A) (A) (A) (A) (A) (A) (A) (A) (A) (A) (A) (A)
                 (A) (A) (A) (A) (A) (A) (A) (A) (A) (A) (A) (A)
                 (A) (A) (A) (A) (A) (A) (A) (A) (A) (A) (A) (A)
                 (A) (A) (A) (A) (A) (A) (A) (A) (A) (A) (A) (A)
                 (A) (A) (A) (A) (A) (A) (A) (A) (A) (A) (A) (A)
                 (A) (A) (A) (A) (A) (A) (A) (A) (A) (A) (A) (A)
                 (A) (A) (A) (A) (A) (A) (A) (A) (A) (A) (A) (A)
                 (A) (A) (A) (A) (A) (A) (A) (A) (A) (A) (A) (A)
                 (A) (A) (A) (A) (A) (A) (A) (A) (A) (A) (A) (A)
                 (A) (A) (A) (A) (A) (A) (A) (A) (A) (A) (A) (A)
                 (A) (A) (A) (A) (A) (A) (A) (A) (A) (A) (A) (A)
                 (A) (A) (A) (A) (A) (A) (A) (A) (A) (A) (A) (A)
                 (A) (A) (A) (A) (A) (A) (A) (A) (A) (A) (A) (A)
                 (A) (A) (A) (A) (A) (A) (A) (A) (A) (A) (A) (A)
                 (A) (A) (A) (A) (A) (A) (A) (A) (A) (A) (A) (A)
                 (A) (A) (A) (A) (A) (A) (A) (A) (A) (A) (A) (A)
                 (A) (A) (A) (A) (A) (A) (A) (A) (A) (A) (A) (A)
                 (A) (A) (A) (A) (A) (A) (A) (A) (A) (A) (A) (A)
                 (A) (A) (A) (A) (A) (A) (A) (A) (A) (A) (A) (A)
                 (A) (A) (A) (A) (A) (A) (A) (A) (A) (A) (A) (A)
                 (A) (A) (A) (A) (A) (A) (A) (A) (A) (A) (A) (A)
                 (A) (A) (A) (A) (A) (A) (A) (A) (A) (A) (A) (A)
                 (A) (A) (A) (A) (A) (A) (A) (A) (A) (A) (A) (A)
                 (A) (A) (A) (A) (A) (A) (A) (A) (A) (A) (A) (A)
                 (A) (A) (A) (A) (A) (A) (A) (A) (A) (A) (A) (A)
                 (A) (A) (A) (A) (A) (A) (A) (A) (A) (A) (A) (A)
                 (A) (A) (A) (A) (A) (A) (A) (A) (A) (A) (A) (A)
                 (A) (A) (A) (A) (A) (A) (A) (A) (A) (A) (A) (A)
                 (A) (A) (A) (A) (A) (A) (A) (A) (A) (A) (A) (A)
                 (A) (A) (A) (A) (A) (A) (A) (A) (A) (A) (A) (A)
                 (A) (A) (A) (A) (A) (A) (A) (A) (A) (A) (A) (A)
                 (A) (A) (A) (A) (A) (A) (A) (A) (A) (A) (A) (A)
                 (A) (A) (A) (A) (A) (A) (A) (A) (A) (A) (A) (A)
                 (A) (A) (A) (A) (A) (A) (A) (A) (A) (A) (A) (A)
                 (A) (A) (A) (A) (A) (A) (A) (A) (A) (A) (A) (A)
                 (A) (A) (A) (A) (A) (A) (A) (A) (A) (A) (A) (A)
                 (A) (A) (A) (A) (A) (A) (A) (A) (A) (A) (A) (A)
                 (A) (A) (A) (A) (A) (A) (A) (A) (A) (A) (A) (A)
                 (A) (A) (A) (A) (A) (A) (A) (A) (A) (A) (A) (A)
                 (A) (A) (A) (A) (A) (A) (A) (A) (A) (A) (A) (A)
                 (A) (A) (A) (A) (A) (A) (A) (A) (A) (A) (A) (A)
                 (A) (A) (A) (A) (A) (A) (A) (A) (A) (A) (A) (A)
                 (A) (A) (A) (A) (A) (A) (A) (A) (A) (A) (A) (A)
                 (A) (A) (A) (A) (A) (A) (A) (A) (A) (A) (A) (A)
                 (A) (A) (A) (A) (A) (A) (A) (A) (A) (A) (A) (A)
                 (A) (A) (A) (A) (A) (A) (A) (A) (A) (A) (A) (A)
                 (A) (A) (A) (A) (A) (A) (A) (A) (A) (A) (A) (A)
                 (A) (A) (A) (A) (A) (A) (A) (A) (A) (A) (A) (A)
                 (A) (A) (A) (A) (A) (A) (A) (A) (A) (A) (A) (A)
                 (A) (A) (A) (A) (A) (A) (A) (A) (A) (A) (A) (A)
                 (A) (A) (A) (A) (A) (A) (A) (A) (A) (A) (A) (A)
                 (A) (A) (A) (A) (A) (A) (A) (A) (A) (A) (A) (A)
                 (A) (A) (A) (A) (A) (A) (A) (A) (A) (A) (A) (A)
                 (A) (A) (A) (A) (A) (A) (A) (A) (A) (A) (A) (A)
                 (A) (A) (A) (A) (A) (A) (A) (A) (A) (A) (A) (A)
                 (A) (A) (A) (A) (A) (A) (A) (A) (A) (A) (A) (A)
                 (A) (A) (A) (A) (A) (A) (A) (A) (A) (A) (A) (A)
                 (A) (A) (A) (A) (A) (A) (A) (A) (A) (A) (A) (A)
                 (A) (A) (A) (A) (A) (A) (A) (A) (A) (A) (A) (A)
                 (A) (A) (A) (A) (A) (A) (A) (A) (A) (A) (A) (A)
                 (A) (A) (A) (A) (A) (A) (A) (A) (A) (A) (A) (A)
                 (A) (A) (A) (A) (A) (A) (A) (A) (A) (A) (A) (A)
                 (A) (A) (A) (A) (A) (A) (A) (A) (A) (A) (A) (A)
                 (A) (A) (A) (A) (A) (A) (A) (A) (A) (A) (A) (A)
 The electronic state is 1-A.
 Alpha  occ. eigenvalues --  -19.30788 -19.30211 -19.24990 -19.24597 -19.24052
 Alpha  occ. eigenvalues --  -19.23420 -19.22402 -19.22392 -14.50890 -14.45743
 Alpha  occ. eigenvalues --  -10.44605 -10.43130 -10.36198 -10.35192 -10.33754
 Alpha  occ. eigenvalues --  -10.33631 -10.33113 -10.33077 -10.32778 -10.31864
 Alpha  occ. eigenvalues --  -10.29598  -1.23868  -1.22416  -1.14503  -1.12535
 Alpha  occ. eigenvalues --   -1.11452  -1.10802  -1.10232  -1.08729  -1.08596
 Alpha  occ. eigenvalues --   -1.08446  -0.91918  -0.90184  -0.85725  -0.83267
 Alpha  occ. eigenvalues --   -0.80742  -0.79622  -0.69778  -0.68807  -0.67411
 Alpha  occ. eigenvalues --   -0.67028  -0.65784  -0.65612  -0.63794  -0.62516
 Alpha  occ. eigenvalues --   -0.62162  -0.60359  -0.59730  -0.59692  -0.59135
 Alpha  occ. eigenvalues --   -0.58167  -0.57405  -0.56601  -0.55616  -0.55082
 Alpha  occ. eigenvalues --   -0.53471  -0.51931  -0.51295  -0.50781  -0.50076
 Alpha  occ. eigenvalues --   -0.49390  -0.48635  -0.47979  -0.47070  -0.46207
 Alpha  occ. eigenvalues --   -0.46134  -0.45737  -0.45281  -0.45173  -0.44362
 Alpha  occ. eigenvalues --   -0.43733  -0.40680  -0.40472  -0.40045  -0.39677
 Alpha  occ. eigenvalues --   -0.39384  -0.39243  -0.38786  -0.38029  -0.37965
 Alpha  occ. eigenvalues --   -0.37774  -0.33495  -0.28135
 Alpha virt. eigenvalues --   -0.05322   0.03684   0.05050   0.05309   0.05613
 Alpha virt. eigenvalues --    0.06400   0.07169   0.07264   0.07432   0.07567
 Alpha virt. eigenvalues --    0.07994   0.09022   0.09498   0.09705   0.09830
 Alpha virt. eigenvalues --    0.10118   0.10396   0.10499   0.10921   0.11817
 Alpha virt. eigenvalues --    0.12461   0.12520   0.13272   0.13344   0.13480
 Alpha virt. eigenvalues --    0.13898   0.14203   0.14448   0.14843   0.15082
 Alpha virt. eigenvalues --    0.15525   0.15620   0.16013   0.16247   0.16450
 Alpha virt. eigenvalues --    0.16856   0.17037   0.17212   0.17655   0.17868
 Alpha virt. eigenvalues --    0.18426   0.18582   0.18824   0.19107   0.19621
 Alpha virt. eigenvalues --    0.19776   0.19979   0.20150   0.20393   0.20850
 Alpha virt. eigenvalues --    0.20959   0.21099   0.21504   0.21907   0.21945
 Alpha virt. eigenvalues --    0.22110   0.22419   0.22721   0.23213   0.23236
 Alpha virt. eigenvalues --    0.23677   0.23755   0.24141   0.24425   0.24747
 Alpha virt. eigenvalues --    0.24902   0.24981   0.25311   0.25888   0.26225
 Alpha virt. eigenvalues --    0.26524   0.26811   0.27182   0.27581   0.27920
 Alpha virt. eigenvalues --    0.28106   0.28238   0.28464   0.29047   0.29433
 Alpha virt. eigenvalues --    0.29618   0.29794   0.29968   0.30655   0.30956
 Alpha virt. eigenvalues --    0.31037   0.31353   0.31622   0.31963   0.32642
 Alpha virt. eigenvalues --    0.32874   0.33019   0.33513   0.33647   0.33994
 Alpha virt. eigenvalues --    0.34370   0.34829   0.35229   0.35293   0.36058
 Alpha virt. eigenvalues --    0.36344   0.37022   0.37111   0.37717   0.37858
 Alpha virt. eigenvalues --    0.38441   0.39073   0.39449   0.39719   0.40288
 Alpha virt. eigenvalues --    0.40469   0.40739   0.41248   0.41687   0.42306
 Alpha virt. eigenvalues --    0.42862   0.43492   0.44327   0.44733   0.45048
 Alpha virt. eigenvalues --    0.45472   0.45607   0.46096   0.46627   0.47311
 Alpha virt. eigenvalues --    0.47650   0.47923   0.48313   0.48490   0.49875
 Alpha virt. eigenvalues --    0.50492   0.50942   0.51172   0.51775   0.52238
 Alpha virt. eigenvalues --    0.52650   0.52856   0.53795   0.54129   0.54373
 Alpha virt. eigenvalues --    0.55063   0.55960   0.56419   0.56731   0.57297
 Alpha virt. eigenvalues --    0.57563   0.57692   0.58673   0.58792   0.59061
 Alpha virt. eigenvalues --    0.59495   0.59721   0.60313   0.60590   0.60848
 Alpha virt. eigenvalues --    0.61160   0.61609   0.62292   0.62348   0.62704
 Alpha virt. eigenvalues --    0.62977   0.63387   0.63526   0.63934   0.64104
 Alpha virt. eigenvalues --    0.64629   0.65179   0.65467   0.65839   0.66098
 Alpha virt. eigenvalues --    0.66771   0.67465   0.67664   0.68243   0.69350
 Alpha virt. eigenvalues --    0.69559   0.70679   0.70807   0.71308   0.71852
 Alpha virt. eigenvalues --    0.72502   0.73518   0.73829   0.74329   0.74958
 Alpha virt. eigenvalues --    0.75602   0.76333   0.76495   0.77380   0.77574
 Alpha virt. eigenvalues --    0.77801   0.78403   0.78959   0.79614   0.79825
 Alpha virt. eigenvalues --    0.80631   0.82068   0.82192   0.82650   0.83272
 Alpha virt. eigenvalues --    0.83434   0.84253   0.84398   0.84792   0.85918
 Alpha virt. eigenvalues --    0.86399   0.86888   0.87779   0.88771   0.89136
 Alpha virt. eigenvalues --    0.89866   0.90510   0.91695   0.92266   0.93284
 Alpha virt. eigenvalues --    0.93361   0.94013   0.94867   0.95123   0.95901
 Alpha virt. eigenvalues --    0.96036   0.96532   0.97804   0.98225   0.99343
 Alpha virt. eigenvalues --    0.99966   1.00880   1.01829   1.02466   1.03589
 Alpha virt. eigenvalues --    1.04921   1.05050   1.05957   1.07149   1.08430
 Alpha virt. eigenvalues --    1.09587   1.10006   1.10948   1.11743   1.12792
 Alpha virt. eigenvalues --    1.13353   1.14539   1.14721   1.15140   1.15814
 Alpha virt. eigenvalues --    1.15903   1.17538   1.18175   1.18826   1.19142
 Alpha virt. eigenvalues --    1.20372   1.20744   1.21571   1.21896   1.22785
 Alpha virt. eigenvalues --    1.24289   1.25264   1.26023   1.26528   1.27121
 Alpha virt. eigenvalues --    1.27949   1.28076   1.29882   1.30166   1.30698
 Alpha virt. eigenvalues --    1.32227   1.32980   1.33948   1.34098   1.34791
 Alpha virt. eigenvalues --    1.35113   1.36678   1.37240   1.37898   1.38163
 Alpha virt. eigenvalues --    1.39521   1.40683   1.41157   1.41649   1.41772
 Alpha virt. eigenvalues --    1.42580   1.43104   1.43496   1.44236   1.44703
 Alpha virt. eigenvalues --    1.44947   1.45473   1.46716   1.47948   1.48536
 Alpha virt. eigenvalues --    1.49315   1.50820   1.51445   1.52811   1.53973
 Alpha virt. eigenvalues --    1.54417   1.55353   1.56589   1.59397   1.60181
 Alpha virt. eigenvalues --    1.61623   1.62081   1.62515   1.63218   1.64532
 Alpha virt. eigenvalues --    1.64920   1.65429   1.66330   1.66996   1.68247
 Alpha virt. eigenvalues --    1.69188   1.69352   1.70195   1.71390   1.72813
 Alpha virt. eigenvalues --    1.73502   1.74303   1.75018   1.76245   1.77775
 Alpha virt. eigenvalues --    1.78563   1.79674   1.80157   1.80894   1.81551
 Alpha virt. eigenvalues --    1.81994   1.82761   1.83308   1.83980   1.84774
 Alpha virt. eigenvalues --    1.85800   1.86226   1.87304   1.87678   1.88354
 Alpha virt. eigenvalues --    1.89464   1.90276   1.91234   1.91973   1.93074
 Alpha virt. eigenvalues --    1.93610   1.94487   1.95255   1.95859   1.96965
 Alpha virt. eigenvalues --    1.98753   1.99433   2.00371   2.00717   2.02025
 Alpha virt. eigenvalues --    2.03201   2.05098   2.05722   2.06588   2.07826
 Alpha virt. eigenvalues --    2.08240   2.09972   2.10344   2.10678   2.11501
 Alpha virt. eigenvalues --    2.12427   2.12964   2.14057   2.14652   2.15375
 Alpha virt. eigenvalues --    2.15856   2.16639   2.17411   2.17549   2.19494
 Alpha virt. eigenvalues --    2.20074   2.20597   2.20926   2.21440   2.22679
 Alpha virt. eigenvalues --    2.23134   2.23597   2.24396   2.25047   2.25425
 Alpha virt. eigenvalues --    2.26405   2.26760   2.27730   2.28766   2.29227
 Alpha virt. eigenvalues --    2.29973   2.30438   2.31270   2.32246   2.34199
 Alpha virt. eigenvalues --    2.34753   2.35729   2.37163   2.37865   2.38186
 Alpha virt. eigenvalues --    2.39536   2.41258   2.41949   2.43009   2.43833
 Alpha virt. eigenvalues --    2.44152   2.44790   2.45167   2.45933   2.46314
 Alpha virt. eigenvalues --    2.46506   2.47329   2.49144   2.49304   2.50263
 Alpha virt. eigenvalues --    2.51019   2.51230   2.52374   2.52740   2.52878
 Alpha virt. eigenvalues --    2.53752   2.53816   2.55524   2.56040   2.56873
 Alpha virt. eigenvalues --    2.57609   2.58183   2.58434   2.59340   2.59750
 Alpha virt. eigenvalues --    2.60286   2.61331   2.61969   2.63543   2.64278
 Alpha virt. eigenvalues --    2.64757   2.65429   2.65859   2.66276   2.67318
 Alpha virt. eigenvalues --    2.68125   2.68362   2.69595   2.71409   2.72114
 Alpha virt. eigenvalues --    2.72834   2.74050   2.75079   2.75821   2.76951
 Alpha virt. eigenvalues --    2.77271   2.78421   2.79085   2.79822   2.79968
 Alpha virt. eigenvalues --    2.80871   2.81502   2.82166   2.82691   2.84282
 Alpha virt. eigenvalues --    2.84961   2.85390   2.85678   2.86376   2.86843
 Alpha virt. eigenvalues --    2.87552   2.87908   2.88569   2.88883   2.90400
 Alpha virt. eigenvalues --    2.90780   2.91777   2.91968   2.93175   2.93424
 Alpha virt. eigenvalues --    2.94230   2.94727   2.95428   2.96848   2.97393
 Alpha virt. eigenvalues --    2.98304   2.99085   2.99945   3.01068   3.01449
 Alpha virt. eigenvalues --    3.03836   3.05214   3.05604   3.06097   3.07958
 Alpha virt. eigenvalues --    3.09320   3.09753   3.10770   3.12001   3.13036
 Alpha virt. eigenvalues --    3.14015   3.14448   3.15779   3.16223   3.17758
 Alpha virt. eigenvalues --    3.19027   3.19930   3.20785   3.21091   3.22146
 Alpha virt. eigenvalues --    3.22616   3.22856   3.23820   3.24395   3.25293
 Alpha virt. eigenvalues --    3.25815   3.27205   3.27863   3.28428   3.29163
 Alpha virt. eigenvalues --    3.29701   3.30739   3.31048   3.31966   3.32337
 Alpha virt. eigenvalues --    3.33628   3.34814   3.35497   3.36871   3.37225
 Alpha virt. eigenvalues --    3.37519   3.37987   3.39221   3.40463   3.41070
 Alpha virt. eigenvalues --    3.41981   3.42076   3.43074   3.43499   3.45189
 Alpha virt. eigenvalues --    3.46470   3.47493   3.47929   3.48479   3.49212
 Alpha virt. eigenvalues --    3.50218   3.50751   3.52930   3.53270   3.54161
 Alpha virt. eigenvalues --    3.55028   3.55911   3.57573   3.58486   3.59906
 Alpha virt. eigenvalues --    3.60213   3.60852   3.62533   3.64247   3.64461
 Alpha virt. eigenvalues --    3.66634   3.67292   3.67689   3.68555   3.69459
 Alpha virt. eigenvalues --    3.69769   3.71715   3.71872   3.73197   3.74519
 Alpha virt. eigenvalues --    3.75665   3.77555   3.79577   3.81710   3.82400
 Alpha virt. eigenvalues --    3.82525   3.85951   3.86822   3.87603   3.88730
 Alpha virt. eigenvalues --    3.89435   3.89944   3.91135   3.94725   3.95628
 Alpha virt. eigenvalues --    3.95904   3.98515   3.99641   4.01167   4.02028
 Alpha virt. eigenvalues --    4.04655   4.07142   4.07573   4.08108   4.08611
 Alpha virt. eigenvalues --    4.09781   4.10455   4.10563   4.11621   4.13424
 Alpha virt. eigenvalues --    4.14539   4.17034   4.18019   4.19915   4.20635
 Alpha virt. eigenvalues --    4.23823   4.25532   4.26435   4.28183   4.28781
 Alpha virt. eigenvalues --    4.30069   4.30937   4.32873   4.33183   4.34660
 Alpha virt. eigenvalues --    4.35359   4.38213   4.39282   4.39870   4.41761
 Alpha virt. eigenvalues --    4.42943   4.43903   4.46039   4.47472   4.50221
 Alpha virt. eigenvalues --    4.52147   4.52403   4.54474   4.56244   4.57199
 Alpha virt. eigenvalues --    4.57707   4.60003   4.61914   4.63111   4.64406
 Alpha virt. eigenvalues --    4.66480   4.70348   4.73916   4.77152   4.77761
 Alpha virt. eigenvalues --    4.79429   4.81829   4.82415   4.84217   4.87851
 Alpha virt. eigenvalues --    4.95626   4.97558   4.99586   5.01994   5.05399
 Alpha virt. eigenvalues --    5.07538   5.08647   5.10263   5.10802   5.12515
 Alpha virt. eigenvalues --    5.14223   5.15371   5.17437   5.18923   5.19091
 Alpha virt. eigenvalues --    5.19293   5.20055   5.21138   5.21525   5.22282
 Alpha virt. eigenvalues --    5.24900   5.26069   5.27388   5.29114   5.30097
 Alpha virt. eigenvalues --    5.30613   5.31322   5.31921   5.32409   5.32844
 Alpha virt. eigenvalues --    5.34685   5.37686   5.39537   5.42156   5.43522
 Alpha virt. eigenvalues --    5.48260   5.49064   5.49401   5.49544   5.51313
 Alpha virt. eigenvalues --    5.52641   5.53023   5.53675   5.54047   5.55170
 Alpha virt. eigenvalues --    5.55800   5.58569   5.59275   5.59816   5.60571
 Alpha virt. eigenvalues --    5.61923   5.63212   5.64792   5.71276   5.79253
 Alpha virt. eigenvalues --    5.79741   5.82118   5.83977   5.87908   5.92689
 Alpha virt. eigenvalues --    6.00415   6.04965   6.09522   6.12637   6.13779
 Alpha virt. eigenvalues --    6.14068   6.16835   6.17227   6.17961   6.23530
 Alpha virt. eigenvalues --    6.29372   6.32285   6.33157   6.34345   6.37122
 Alpha virt. eigenvalues --    6.38098   6.40357   6.41103   6.42435   6.42506
 Alpha virt. eigenvalues --    6.45232   6.46278   6.48179   6.50146   6.50713
 Alpha virt. eigenvalues --    6.52062   6.52739   6.53510   6.54217   6.55149
 Alpha virt. eigenvalues --    6.55473   6.56739   6.57032   6.59579   6.63096
 Alpha virt. eigenvalues --    6.66552   6.67367   6.76859   6.79531   6.87177
 Alpha virt. eigenvalues --    6.89187   6.91533   6.92686   7.00140   7.00956
 Alpha virt. eigenvalues --    7.03290   7.04734   7.06447   7.08409   7.09955
 Alpha virt. eigenvalues --    7.11435   7.14395   7.16923   7.17977   7.20610
 Alpha virt. eigenvalues --    7.23215   7.24510   7.27191   7.33665   7.35444
 Alpha virt. eigenvalues --    7.45911   7.49998   7.56278   7.61120  22.58999
 Alpha virt. eigenvalues --   22.59772  22.64162  22.72136  22.74505  22.77611
 Alpha virt. eigenvalues --   22.85733  22.96908  23.00988  23.61787  23.68206
 Alpha virt. eigenvalues --   32.62415  32.81271  43.75439  43.76524  43.84760
 Alpha virt. eigenvalues --   43.98657  44.24411  44.29545  44.36259  44.47454
          Condensed to atoms (all electrons):
               1          2          3          4          5          6
     1  C    7.246807   0.456639  -0.031976   0.521187   0.457009  -0.043397
     2  C    0.456639   6.572949  -0.648742  -0.238995  -0.042974   0.009625
     3  C   -0.031976  -0.648742   5.899463   0.497686   0.019320  -0.056139
     4  C    0.521187  -0.238995   0.497686   7.232100  -0.017649   0.430724
     5  H    0.457009  -0.042974   0.019320  -0.017649   0.442282  -0.002528
     6  H   -0.043397   0.009625  -0.056139   0.430724  -0.002528   0.463030
     7  C    0.011264   0.304031   0.640697  -0.511624   0.019340  -0.007962
     8  H    0.014868  -0.029784  -0.030747   0.024943  -0.000105   0.000027
     9  H   -0.021475   0.014817  -0.050398  -0.041249  -0.000003   0.000213
    10  C   -0.892940   0.285659  -0.598784  -1.047033  -0.045295   0.033685
    11  H    0.001432  -0.013927   0.007910  -0.001091  -0.006606   0.000096
    12  C   -1.086536  -0.566887  -0.003552  -0.162126  -0.023600  -0.025872
    13  H    0.006914   0.013931  -0.032695   0.000618   0.000170  -0.003007
    14  H   -0.023130   0.365040   0.011823   0.002967   0.001441  -0.000093
    15  H    0.003355   0.003519   0.447772  -0.030884  -0.000023  -0.002984
    16  N   -0.323990  -0.251923   0.117655   0.166821  -0.003067  -0.009060
    17  N   -0.242283   0.034495   0.024416  -0.159293  -0.066321   0.001887
    18  C    0.303465   0.258126  -0.038267  -0.249349  -0.003091   0.030449
    19  C   -0.423845  -0.254100  -0.082237  -0.064734   0.013977   0.004891
    20  O   -0.064095  -0.095824  -0.012888   0.031160  -0.002783  -0.000445
    21  O    0.131885   0.069673   0.000169  -0.123673   0.000844  -0.001751
    22  O    0.025498  -0.031435   0.015683  -0.116395   0.028439   0.001352
    23  O    0.005018   0.009698   0.017836   0.093367  -0.003354  -0.015527
    24  C   -0.008674  -0.009823  -0.008454   0.014220   0.000867  -0.003396
    25  H    0.000419   0.000608  -0.000134  -0.003216  -0.000009   0.000120
    26  H    0.000236  -0.000506   0.000469  -0.000711   0.000003   0.000015
    27  H   -0.000255   0.000176  -0.002818   0.007453  -0.000018   0.002320
    28  C    0.066748   0.003682  -0.003115   0.027738  -0.002265  -0.000589
    29  H    0.007400  -0.007785   0.001961   0.002503   0.000020   0.000000
    30  H   -0.010623   0.006731  -0.001174  -0.003739   0.000002   0.000001
    31  H    0.005080  -0.004372   0.000397   0.001507   0.000136   0.000000
    32  O    0.022606   0.008045  -0.000208   0.013238  -0.000273  -0.000058
    33  H   -0.008824  -0.000248  -0.000361  -0.005409  -0.000167   0.000016
    34  H   -0.001958   0.000558  -0.000124  -0.000372   0.000010   0.000001
    35  O   -0.017109  -0.057517   0.004313  -0.005247  -0.000062   0.000005
    36  H   -0.000457   0.011149  -0.002041  -0.000767   0.000000   0.000000
    37  H   -0.000087   0.002029  -0.004610  -0.003432   0.000083   0.000003
    38  O    0.024453  -0.006805   0.002057   0.032290   0.005110  -0.000905
    39  H    0.006306   0.001095  -0.000538  -0.003138  -0.000131   0.000084
    40  H    0.063192   0.011525  -0.005104  -0.020176   0.005421   0.000874
    41  O    0.002384   0.001044   0.001424  -0.002797   0.000001  -0.000083
    42  H   -0.003596  -0.001378   0.001403   0.007438   0.000000   0.000036
    43  H   -0.000429  -0.000152   0.000310   0.001899   0.000000   0.000007
               7          8          9         10         11         12
     1  C    0.011264   0.014868  -0.021475  -0.892940   0.001432  -1.086536
     2  C    0.304031  -0.029784   0.014817   0.285659  -0.013927  -0.566887
     3  C    0.640697  -0.030747  -0.050398  -0.598784   0.007910  -0.003552
     4  C   -0.511624   0.024943  -0.041249  -1.047033  -0.001091  -0.162126
     5  H    0.019340  -0.000105  -0.000003  -0.045295  -0.006606  -0.023600
     6  H   -0.007962   0.000027   0.000213   0.033685   0.000096  -0.025872
     7  C    6.728680   0.401796   0.430875  -1.039637   0.019104  -1.214287
     8  H    0.401796   0.506076  -0.012295  -0.019910  -0.000250  -0.015738
     9  H    0.430875  -0.012295   0.450352   0.013016  -0.000009  -0.002019
    10  C   -1.039637  -0.019910   0.013016   7.504556   0.408725   1.705690
[...]
     4  C   -0.097927   0.029741  -0.127042  -0.129143   0.102487   0.014212
     5  H    0.014285  -0.003144   0.000879   0.029445  -0.003095   0.000889
     6  H    0.004776  -0.000450  -0.002587   0.001438  -0.015784  -0.003794
     7  C    0.285270  -0.049820   0.087768   0.324925  -0.101445  -0.026025
     8  H    0.012006   0.002994  -0.000235  -0.000852   0.000020   0.000064
     9  H    0.018337   0.001368   0.001062   0.006352  -0.001634   0.000147
    10  C   -0.204134   0.039448  -0.113793  -0.236949   0.125527   0.041267
    11  H   -0.000648  -0.000395   0.000030   0.001197  -0.000137   0.000008
    12  C   -0.113105   0.027785  -0.177863  -0.167810   0.161942   0.057489
    13  H    0.000079   0.000061  -0.000111   0.000027   0.000016  -0.000105
    14  H    0.015217  -0.005502  -0.000102  -0.008711   0.000242  -0.000117
    15  H   -0.001948  -0.000215   0.002563   0.000260   0.000068   0.000524
    16  N   -0.011087  -0.132050  -0.732795   0.007057   0.111699   0.009892
    17  N   -0.752914  -0.174502   0.120452  -1.440894  -0.334653   0.016980
    18  C   -0.457082  -0.135180   0.949120   0.006803  -0.000605  -0.300013
    19  C    7.189781   0.904702  -0.100482   0.738230  -0.221653   0.011028
    20  O    0.904702   8.363806  -0.038337  -0.199581  -0.016831   0.007250
    21  O   -0.100482  -0.038337   8.683258   0.035360  -0.320821   0.020008
    22  O    0.738230  -0.199581   0.035360   9.397627  -0.150302   0.003420
    23  O   -0.221653  -0.016831  -0.320821  -0.150302   8.840430   0.154176
    24  C    0.011028   0.007250   0.020008   0.003420   0.154176   5.047479
    25  H   -0.001058   0.000007   0.006681  -0.000047  -0.071896   0.400545
    26  H    0.000651   0.000097  -0.019237   0.000017  -0.024538   0.436280
    27  H   -0.000703  -0.000076  -0.016644  -0.000187  -0.034196   0.414453
    28  C   -0.498338  -0.081571  -0.003136   0.048551   0.014757  -0.000486
    29  H   -0.024368  -0.005673  -0.000004  -0.011031   0.000033   0.000004
    30  H    0.004592  -0.006632  -0.000032  -0.015714  -0.000116   0.000110
    31  H    0.027341   0.006796   0.000018  -0.054532  -0.000163  -0.000010
    32  O   -0.096867  -0.002224   0.000447  -0.134840   0.005901   0.000135
    33  H    0.024598   0.000507   0.000035  -0.008901  -0.004691  -0.003427
    34  H    0.005721  -0.003444   0.000007  -0.004622  -0.001732  -0.000244
    35  O    0.003163  -0.017483  -0.000364   0.013287  -0.000086   0.000116
    36  H   -0.004343  -0.000056  -0.000007  -0.001253   0.000004   0.000002
    37  H    0.022184  -0.006896   0.000319   0.015232  -0.000158  -0.000080
    38  O   -0.034843   0.007376  -0.003174  -0.030859   0.021175   0.019953
    39  H    0.001885  -0.000762   0.000851   0.001546   0.011861   0.003018
    40  H   -0.039582  -0.006720  -0.000129   0.037062   0.047691   0.001526
    41  O   -0.001125  -0.000038  -0.028776  -0.000015   0.006161   0.004520
    42  H    0.001594  -0.000010  -0.002802  -0.000020  -0.001221  -0.012569
    43  H    0.000146  -0.000001   0.002223  -0.000001  -0.000210  -0.000340
              25         26         27         28         29         30
     1  C    0.000580   0.000054  -0.000563   0.065793   0.007726  -0.010312
     2  C    0.000626  -0.000536   0.000141   0.002729  -0.007218   0.005629
     3  C   -0.000105   0.000387  -0.002622  -0.002811   0.002175  -0.001123
     4  C   -0.003318  -0.000488   0.007241   0.029737   0.002604  -0.003586
     5  H   -0.000010   0.000004  -0.000018  -0.002593   0.000014   0.000013
     6  H    0.000128   0.000017   0.002368  -0.000604  -0.000001   0.000001
     7  C    0.000260  -0.001034   0.000158  -0.097562   0.005255   0.000473
     8  H    0.000000   0.000000   0.000000  -0.001061  -0.000001   0.000001
     9  H    0.000000   0.000000   0.000002  -0.000543  -0.000140   0.000048
    10  C    0.000178   0.000718   0.001825   0.068824  -0.004298   0.003147
    11  H    0.000000   0.000000   0.000000  -0.000089  -0.000004   0.000001
    12  C   -0.000987   0.001342   0.004450   0.033945   0.000838  -0.000143
    13  H    0.000000   0.000000   0.000001   0.000036   0.000000   0.000000
    14  H    0.000000   0.000000   0.000000  -0.002458  -0.000048  -0.000190
    15  H    0.000001  -0.000003  -0.000003  -0.000083   0.000000   0.000000
    16  N   -0.003826   0.015326   0.005045   0.016214  -0.002126  -0.003698
    17  N    0.001727  -0.001392  -0.009649   0.256904   0.002361  -0.010582
    18  C    0.036298  -0.033120  -0.002381  -0.018876  -0.002066  -0.000346
    19  C   -0.001058   0.000651  -0.000703  -0.498338  -0.024368   0.004592
    20  O    0.000007   0.000097  -0.000076  -0.081571  -0.005673  -0.006632
    21  O    0.006681  -0.019237  -0.016644  -0.003136  -0.000004  -0.000032
    22  O   -0.000047   0.000017  -0.000187   0.048551  -0.011031  -0.015714
    23  O   -0.071896  -0.024538  -0.034196   0.014757   0.000033  -0.000116
    24  C    0.400545   0.436280   0.414453  -0.000486   0.000004   0.000110
    25  H    0.508043  -0.016603  -0.018512   0.000073   0.000000   0.000000
    26  H   -0.016603   0.481264  -0.027838  -0.000044   0.000000   0.000000
    27  H   -0.018512  -0.027838   0.504022   0.000001   0.000000   0.000000
    28  C    0.000073  -0.000044   0.000001   5.126502   0.409312   0.416163
    29  H    0.000000   0.000000   0.000000   0.409312   0.504184  -0.028492
    30  H    0.000000   0.000000   0.000000   0.416163  -0.028492   0.472691
    31  H    0.000000   0.000000   0.000000   0.410235  -0.020899  -0.014148
    32  O   -0.000053  -0.000053  -0.000003   0.008341  -0.000085  -0.006613
    33  H   -0.000003   0.000015   0.000002  -0.003310  -0.000082   0.000050
    34  H   -0.000001   0.000002   0.000000   0.001225  -0.000023   0.000433
    35  O    0.000000   0.000000   0.000000   0.012626   0.002075  -0.000608
    36  H    0.000000   0.000000   0.000000  -0.000170  -0.000091   0.000002
    37  H    0.000000   0.000000   0.000000  -0.009607  -0.004686  -0.000395
    38  O   -0.001064  -0.000250  -0.000239   0.016871  -0.000073   0.000599
    39  H    0.000442   0.000083   0.000037  -0.001270   0.000000  -0.000009
    40  H   -0.000242   0.000344   0.000226  -0.002640   0.000000   0.000193
    41  O    0.000507  -0.003911  -0.007402  -0.000006   0.000000   0.000000
    42  H    0.000262  -0.000116   0.001682   0.000025   0.000000   0.000000
    43  H   -0.000013   0.000336   0.000566   0.000002   0.000000   0.000000
              31         32         33         34         35         36
     1  C    0.004797   0.023539  -0.009104  -0.001911  -0.015046  -0.000662
     2  C   -0.003902   0.008094  -0.000404   0.000619  -0.059793   0.011624
     3  C    0.000376  -0.000360  -0.000278  -0.000120   0.004879  -0.002329
     4  C    0.001332   0.013056  -0.005051  -0.000364  -0.004474  -0.000902
     5  H    0.000145  -0.000314  -0.000152   0.000010  -0.000066   0.000000
     6  H    0.000000  -0.000057   0.000016   0.000001   0.000005   0.000000
     7  C    0.001405  -0.019153   0.001563   0.000112   0.044674  -0.010871
     8  H   -0.000001   0.000001   0.000000   0.000000   0.004960   0.000079
     9  H    0.000003  -0.000105   0.000004   0.000006   0.001579   0.000219
    10  C   -0.005934   0.008474  -0.001627   0.000042  -0.019762   0.005473
    11  H    0.000004  -0.000003   0.000000   0.000000  -0.000068  -0.000001
    12  C   -0.000949   0.003725  -0.001082  -0.000081  -0.000601   0.001220
    13  H    0.000000   0.000000   0.000000   0.000000   0.000011   0.000000
    14  H   -0.000083   0.000154  -0.000008  -0.000003  -0.012419   0.000575
    15  H    0.000000  -0.000002   0.000000   0.000000  -0.000031  -0.000001
    16  N    0.001658  -0.012686   0.003089  -0.001089  -0.012561   0.000217
    17  N   -0.017419   0.216409   0.028907   0.013622   0.003441  -0.000346
    18  C    0.000357  -0.003211   0.009869  -0.001588  -0.007238   0.000365
    19  C    0.027341  -0.096867   0.024598   0.005721   0.003163  -0.004343
    20  O    0.006796  -0.002224   0.000507  -0.003444  -0.017483  -0.000056
    21  O    0.000018   0.000447   0.000035   0.000007  -0.000364  -0.000007
    22  O   -0.054532  -0.134840  -0.008901  -0.004622   0.013287  -0.001253
    23  O   -0.000163   0.005901  -0.004691  -0.001732  -0.000086   0.000004
    24  C   -0.000010   0.000135  -0.003427  -0.000244   0.000116   0.000002
    25  H    0.000000  -0.000053  -0.000003  -0.000001   0.000000   0.000000
    26  H    0.000000  -0.000053   0.000015   0.000002   0.000000   0.000000
    27  H    0.000000  -0.000003   0.000002   0.000000   0.000000   0.000000
    28  C    0.410235   0.008341  -0.003310   0.001225   0.012626  -0.000170
    29  H   -0.020899  -0.000085  -0.000082  -0.000023   0.002075  -0.000091
    30  H   -0.014148  -0.006613   0.000050   0.000433  -0.000608   0.000002
    31  H    0.497214  -0.001541   0.000145   0.000026   0.000152  -0.000004
    32  O   -0.001541   8.046487   0.319111   0.330138   0.000088   0.000021
    33  H    0.000145   0.319111   0.341763  -0.030190  -0.000004   0.000000
    34  H    0.000026   0.330138  -0.030190   0.340563   0.000010   0.000000
    35  O    0.000152   0.000088  -0.000004   0.000010   8.143394   0.315697
    36  H   -0.000004   0.000021   0.000000   0.000000   0.315697   0.345170
    37  H    0.000136  -0.000281   0.000010   0.000016   0.301841  -0.011259
    38  O   -0.000078   0.014320  -0.050100  -0.004549  -0.000039   0.000001
    39  H   -0.000002  -0.002026  -0.000308   0.000033   0.000000   0.000000
    40  H    0.000097  -0.004704  -0.005349   0.000195   0.000005   0.000000
    41  O    0.000000   0.000007  -0.000001   0.000000   0.000000   0.000000
    42  H    0.000000  -0.000002   0.000000   0.000000   0.000000   0.000000
    43  H    0.000000   0.000000   0.000000   0.000000   0.000000   0.000000
              37         38         39         40         41         42
     1  C   -0.000361   0.027021   0.006064   0.061040   0.002538  -0.003576
     2  C    0.003995  -0.005658   0.000963   0.010630   0.001076  -0.001307
     3  C   -0.005346   0.001374  -0.000506  -0.004983   0.001735   0.001381
     4  C   -0.003909   0.030843  -0.002788  -0.019320  -0.003074   0.007110
     5  H    0.000081   0.004965  -0.000112   0.005616   0.000001  -0.000001
     6  H    0.000004  -0.000941   0.000079   0.000857  -0.000087   0.000076
     7  C    0.003816  -0.013422  -0.000002  -0.001755   0.003217  -0.001492
     8  H   -0.000080  -0.000007   0.000000  -0.000002   0.000000   0.000000
     9  H    0.002113  -0.000017  -0.000001   0.000035   0.000003  -0.000003
    10  C   -0.007697   0.012372  -0.000083   0.019388  -0.001583   0.000622
    11  H    0.000003  -0.000003   0.000000   0.000006   0.000000   0.000000
    12  C   -0.003916   0.010055  -0.000334   0.006020  -0.009151   0.004329
    13  H    0.000000   0.000009   0.000000   0.000001  -0.000001   0.000001
    14  H    0.000045  -0.000056  -0.000001  -0.000077   0.000000   0.000000
    15  H    0.000004  -0.000022   0.000000  -0.000003  -0.000002  -0.000028
    16  N    0.011235  -0.022281  -0.003472  -0.034730  -0.006763   0.019479
    17  N   -0.022224  -0.078177  -0.015519  -0.120230   0.000854  -0.004790
    18  C    0.007177  -0.086688   0.001437   0.004516   0.009799   0.009888
    19  C    0.022184  -0.034843   0.001885  -0.039582  -0.001125   0.001594
    20  O   -0.006896   0.007376  -0.000762  -0.006720  -0.000038  -0.000010
    21  O    0.000319  -0.003174   0.000851  -0.000129  -0.028776  -0.002802
    22  O    0.015232  -0.030859   0.001546   0.037062  -0.000015  -0.000020
    23  O   -0.000158   0.021175   0.011861   0.047691   0.006161  -0.001221
    24  C   -0.000080   0.019953   0.003018   0.001526   0.004520  -0.012569
    25  H    0.000000  -0.001064   0.000442  -0.000242   0.000507   0.000262
    26  H    0.000000  -0.000250   0.000083   0.000344  -0.003911  -0.000116
    27  H    0.000000  -0.000239   0.000037   0.000226  -0.007402   0.001682
    28  C   -0.009607   0.016871  -0.001270  -0.002640  -0.000006   0.000025
    29  H   -0.004686  -0.000073   0.000000   0.000000   0.000000   0.000000
    30  H   -0.000395   0.000599  -0.000009   0.000193   0.000000   0.000000
    31  H    0.000136  -0.000078  -0.000002   0.000097   0.000000   0.000000
    32  O   -0.000281   0.014320  -0.002026  -0.004704   0.000007  -0.000002
    33  H    0.000010  -0.050100  -0.000308  -0.005349  -0.000001   0.000000
    34  H    0.000016  -0.004549   0.000033   0.000195   0.000000   0.000000
    35  O    0.301841  -0.000039   0.000000   0.000005   0.000000   0.000000
    36  H   -0.011259   0.000001   0.000000   0.000000   0.000000   0.000000
    37  H    0.389580  -0.000007   0.000000   0.000013   0.000000   0.000000
    38  O   -0.000007   8.230950   0.305232   0.284487   0.000048  -0.000013
    39  H    0.000000   0.305232   0.345843  -0.006704   0.000000   0.000001
    40  H    0.000013   0.284487  -0.006704   0.425895  -0.000016   0.000003
    41  O    0.000000   0.000048   0.000000  -0.000016   8.144983   0.286580
    42  H    0.000000  -0.000013   0.000001   0.000003   0.286580   0.378618
    43  H    0.000000   0.000001   0.000000   0.000000   0.290356  -0.010385
              43
     1  C   -0.000415
     2  C   -0.000146
     3  C    0.000284
     4  C    0.001895
     5  H    0.000000
     6  H    0.000009
     7  C   -0.000285
     8  H    0.000000
     9  H    0.000000
    10  C    0.000102
    11  H    0.000000
    12  C    0.000702
    13  H    0.000000
    14  H    0.000000
    15  H   -0.000003
    16  N    0.004900
    17  N   -0.000554
    18  C   -0.007196
    19  C    0.000146
    20  O   -0.000001
    21  O    0.002223
    22  O   -0.000001
    23  O   -0.000210
    24  C   -0.000340
    25  H   -0.000013
    26  H    0.000336
    27  H    0.000566
    28  C    0.000002
    29  H    0.000000
    30  H    0.000000
    31  H    0.000000
    32  O    0.000000
    33  H    0.000000
    34  H    0.000000
    35  O    0.000000
    36  H    0.000000
    37  H    0.000000
    38  O    0.000001
    39  H    0.000000
    40  H    0.000000
    41  O    0.290356
    42  H   -0.010385
    43  H    0.379556
 Mulliken charges:
               1
     1  C   -0.181131
     2  C   -0.175202
     3  C   -0.099263
     4  C   -0.300020
     5  H    0.224823
     6  H    0.194371
     7  C   -0.248237
     8  H    0.156176
     9  H    0.207280
    10  C    0.035808
    11  H    0.204706
    12  C   -0.022677
    13  H    0.181594
    14  H    0.226335
    15  H    0.177936
    16  N   -0.230310
    17  N   -0.376559
    18  C    0.517186
    19  C    0.070741
    20  O   -0.328479
    21  O   -0.422914
    22  O   -0.062096
    23  O   -0.343538
    24  C   -0.291357
    25  H    0.161380
    26  H    0.192228
    27  H    0.178815
    28  C   -0.211609
    29  H    0.174828
    30  H    0.198594
    31  H    0.167426
    32  O   -0.713265
    33  H    0.394389
    34  H    0.357182
    35  O   -0.701361
    36  H    0.351627
    37  H    0.319098
    38  O   -0.655091
    39  H    0.354525
    40  H    0.341341
    41  O   -0.690433
    42  H    0.326684
    43  H    0.338468
 Sum of Mulliken charges =   0.00000
 Mulliken charges with hydrogens summed into heavy atoms:
               1
     1  C    0.043693
     2  C    0.051133
     3  C    0.078673
     4  C   -0.105649
     7  C    0.115219
    10  C    0.240514
    12  C    0.158917
    16  N   -0.230310
    17  N   -0.376559
    18  C    0.517186
    19  C    0.070741
    20  O   -0.328479
    21  O   -0.422914
    22  O   -0.062096
    23  O   -0.343538
    24  C    0.241065
    28  C    0.329240
    32  O    0.038306
    35  O   -0.030637
    38  O    0.040775
    41  O   -0.025281
 Electronic spatial extent (au):  <R**2>=           6873.6715
 Charge=              0.0000 electrons
 Dipole moment (field-independent basis, Debye):
    X=             -1.9575    Y=             -6.5131    Z=             -4.4116  Tot=              8.1065
 Quadrupole moment (field-independent basis, Debye-Ang):
   XX=           -138.1291   YY=           -124.8036   ZZ=           -115.9733
   XY=             11.6077   XZ=             -4.6968   YZ=              6.5716
 Traceless Quadrupole moment (field-independent basis, Debye-Ang):
   XX=            -11.8271   YY=              1.4984   ZZ=             10.3287
   XY=             11.6077   XZ=             -4.6968   YZ=              6.5716
 Octapole moment (field-independent basis, Debye-Ang**2):
  XXX=           -145.4917  YYY=            -81.8570  ZZZ=             28.5378  XYY=             55.9422
  XXY=             29.3888  XXZ=              5.3512  XZZ=             -2.3545  YZZ=            -20.0552
  YYZ=             -8.4832  XYZ=            -10.0321
 Hexadecapole moment (field-independent basis, Debye-Ang**3):
 XXXX=          -5234.2907 YYYY=          -3188.3408 ZZZZ=           -953.3326 XXXY=            -20.1094
 XXXZ=            -11.4397 YYYX=            194.8684 YYYZ=             37.4064 ZZZX=            -15.4266
 ZZZY=             -1.5120 XXYY=          -1237.6954 XXZZ=           -613.3871 YYZZ=           -592.3871
 XXYZ=           -101.5984 YYXZ=            -17.2590 ZZXY=             48.4830
 N-N= 1.968840707671D+03 E-N=-6.618725307714D+03  KE= 1.138639868606D+03
 1\1\GINC-D8S3B2\FTS\RwB97XD\Gen\C11H22N2O8\PMMASS\18-Feb-2022\0\\#n wB
 97XD/Gen scrf(smd,solvent=toluene) opt=(calcfc,ts,noeigentest) int=(gr
 id=ultrafine)\\ts cycloaddition toluene with 4 h2o - opt4\\0,1\C,-0.50
 80081136,-1.0554759126,-1.1975474296\C,-1.5911814349,-1.9382945824,-0.
 5065358411\C,0.4170565503,-2.8673291355,0.0996064197\C,0.7575360222,-1
 .8483443576,-0.9489665013\H,-0.6861123018,-0.4998749513,-2.1037047203\
 H,1.7500999145,-1.5137736271,-1.1994328311\C,-0.9132394476,-2.51152177
 86,0.7259843775\H,-1.4558618826,-3.3819892879,1.0945348622\H,-0.807377
 8571,-1.7798194086,1.5240414044\C,-1.1352655315,-2.6789459688,-1.65745
 31997\H,-1.6230703141,-2.7084412391,-2.6193339186\C,0.1978960643,-3.23
 39642278,-1.3346275004\H,0.7331497424,-3.9717436644,-1.907743499\H,-2.
 5952392931,-1.5386949154,-0.4743946975\H,1.2212479904,-3.3230542203,0.
 6553258833\N,0.6399407888,0.233086827,0.8730125303\N,-0.1774339403,0.5
 732566194,-0.0689627901\C,1.9794052519,0.4053414099,0.5572356902\C,-1.
 5112508818,0.7814742919,0.4058093634\O,-1.8690303931,0.7168382547,1.55
 27952884\O,2.8511454455,0.0600155198,1.3270573616\O,-2.2714318972,1.12
 83844926,-0.6153593618\O,2.2389974857,0.9990142702,-0.6169967099\C,3.6
 148832788,1.1798165133,-0.9437125701\H,3.6269791821,1.6661149144,-1.91
 67309233\H,4.1114899026,1.8104588937,-0.2064988104\H,4.1322155108,0.22
 19896388,-1.0062731809\C,-3.6008464375,1.5554015998,-0.3038489006\H,-4
 .1765028043,0.7392804364,0.1337710392\H,-3.5641547833,2.4034013303,0.3
 782911006\H,-4.0365599819,1.8583626517,-1.2521015882\O,-1.3888883225,4
 .0364781249,0.3767108548\H,-0.8683610941,3.7518449807,-0.3929393668\H,
 -0.8629016179,3.7937238502,1.1410085027\O,-3.9616302397,-1.201631357,1
 .8576735233\H,-4.3516682629,-1.3265362168,2.7242463991\H,-3.2936612233
 ,-0.510469778,1.9673761905\O,0.1620260534,2.9395127433,-1.7597875626\H
 ,1.075019403,3.2328190921,-1.7829993699\H,0.1973302804,2.0545184536,-1
 .3554975203\O,5.6714088969,-0.2682939136,1.370795538\H,4.7107825929,-0
 .1347598812,1.368027563\H,5.8954176993,-0.4457664847,2.2854149016\\Ver
 sion=ES64L-G09RevD.01\State=1-A\HF=-1143.6814529\RMSD=3.692e-09\RMSF=3
 .324e-06\Dipole=-0.776457,-2.5577861,-1.7397346\Quadrupole=-8.7847321,
 1.0720587,7.7126733,8.6585,-3.4372812,4.860044\PG=C01 [X(C11H22N2O8)]\
 \@


 A COMPLEXITY IS MERELY A DISARRANGEMENT OF SIMPLICITIES.

                                    -- G. O. ABELL IN "EXPLORATION OF THE UNIVERSE"
 Job cpu time:       9 days  1 hours 12 minutes 33.3 seconds.
 File lengths (MBytes):  RWF=   2430 Int=      0 D2E=      0 Chk=     59 Scr=      1
 Normal termination of Gaussian 09 at Fri Feb 18 14:49:12 2022.
