 Entering Gaussian System, Link 0=g09
 Input=ts_cyclo_water_ma_freq.com
 Output=ts_cyclo_water_ma_freq.log
 Initial command:
 /apps/applications/gaussian/G09.D01/2/default/g09/l1.exe "/nobackup/pmmass/Temp/Gau-40879.inp" -scrdir="/nobackup/pmmass/Temp/"
 Entering Link 1 = /apps/applications/gaussian/G09.D01/2/default/g09/l1.exe PID=     40880.
  
 Copyright (c) 1988,1990,1992,1993,1995,1998,2003,2009,2013,
            Gaussian, Inc.  All Rights Reserved.
  
 This is part of the Gaussian(R) 09 program.  It is based on
 the Gaussian(R) 03 system (copyright 2003, Gaussian, Inc.),
 the Gaussian(R) 98 system (copyright 1998, Gaussian, Inc.),
 the Gaussian(R) 94 system (copyright 1995, Gaussian, Inc.),
 the Gaussian 92(TM) system (copyright 1992, Gaussian, Inc.),
 the Gaussian 90(TM) system (copyright 1990, Gaussian, Inc.),
 the Gaussian 88(TM) system (copyright 1988, Gaussian, Inc.),
 the Gaussian 86(TM) system (copyright 1986, Carnegie Mellon
 University), and the Gaussian 82(TM) system (copyright 1983,
 Carnegie Mellon University). Gaussian is a federally registered
 trademark of Gaussian, Inc.
  
 This software contains proprietary and confidential information,
 including trade secrets, belonging to Gaussian, Inc.
  
 This software is provided under written license and may be
 used, copied, transmitted, or stored only in accord with that
 written license.
  
 The following legend is applicable only to US Government
 contracts under FAR:
  
                    RESTRICTED RIGHTS LEGEND
  
 Use, reproduction and disclosure by the US Government is
 subject to restrictions as set forth in subparagraphs (a)
 and (c) of the Commercial Computer Software - Restricted
 Rights clause in FAR 52.227-19.
  
 Gaussian, Inc.
 340 Quinnipiac St., Bldg. 40, Wallingford CT 06492
  
  
 ---------------------------------------------------------------
 Warning -- This program may not be used in any manner that
 competes with the business of Gaussian, Inc. or will provide
 assistance to any competitor of Gaussian, Inc.  The licensee
 of this program is prohibited from giving any competitor of
 Gaussian, Inc. access to this program.  By using this program,
 the user acknowledges that Gaussian, Inc. is engaged in the
 business of creating and licensing software in the field of
 computational chemistry and represents and warrants to the
 licensee that it is not a competitor of Gaussian, Inc. and that
 it will not use this program in any manner prohibited above.
 ---------------------------------------------------------------
  

 Cite this work as:
 Gaussian 09, Revision D.01,
 M. J. Frisch, G. W. Trucks, H. B. Schlegel, G. E. Scuseria, 
 M. A. Robb, J. R. Cheeseman, G. Scalmani, V. Barone, B. Mennucci, 
 G. A. Petersson, H. Nakatsuji, M. Caricato, X. Li, H. P. Hratchian, 
 A. F. Izmaylov, J. Bloino, G. Zheng, J. L. Sonnenberg, M. Hada, 
 M. Ehara, K. Toyota, R. Fukuda, J. Hasegawa, M. Ishida, T. Nakajima, 
 Y. Honda, O. Kitao, H. Nakai, T. Vreven, J. A. Montgomery, Jr., 
 J. E. Peralta, F. Ogliaro, M. Bearpark, J. J. Heyd, E. Brothers, 
 K. N. Kudin, V. N. Staroverov, T. Keith, R. Kobayashi, J. Normand, 
 K. Raghavachari, A. Rendell, J. C. Burant, S. S. Iyengar, J. Tomasi, 
 M. Cossi, N. Rega, J. M. Millam, M. Klene, J. E. Knox, J. B. Cross, 
 V. Bakken, C. Adamo, J. Jaramillo, R. Gomperts, R. E. Stratmann, 
 O. Yazyev, A. J. Austin, R. Cammi, C. Pomelli, J. W. Ochterski, 
 R. L. Martin, K. Morokuma, V. G. Zakrzewski, G. A. Voth, 
 P. Salvador, J. J. Dannenberg, S. Dapprich, A. D. Daniels, 
 O. Farkas, J. B. Foresman, J. V. Ortiz, J. Cioslowski, 
 and D. J. Fox, Gaussian, Inc., Wallingford CT, 2013.
 
 ******************************************
 Gaussian 09:  ES64L-G09RevD.01 24-Apr-2013
                20-Feb-2022 
 ******************************************
 %nprocshared=8
 Will use up to    8 processors via shared memory.
 %mem=4GB
 %NoSave
 %chk="ts_cyclo_water_ma_freq.chk"
 -----------------------------------------------------------------
 #n wB97XD/Gen scrf(smd,solvent=toluene) freq int=(grid=ultrafine)
 -----------------------------------------------------------------
 1/10=4,30=1,38=1/1,3;
 2/12=2,17=6,18=5,40=1/2;
 3/5=7,11=2,16=1,25=1,30=1,70=32201,71=2,72=13,74=-58,75=-5,140=1/1,2,3;
 4//1;
 5/5=2,38=5,53=13,98=1/2;
 8/6=4,10=90,11=11/1;
 11/6=1,8=1,9=11,15=111,16=1/1,2,10;
 10/6=1/2;
 6/7=2,8=2,9=2,10=2,18=1,28=1/1;
 7/8=1,10=1,25=1/1,2,3,16;
 1/10=4,30=1/3;
 99//99;
 -----------------------------
 ts cylco water toluene - freq
 -----------------------------
 Symbolic Z-matrix:
 Charge =  0 Multiplicity = 1
 C                    -0.50496  -1.05898  -1.19622 
 C                    -1.58832  -1.94164  -0.50531 
 C                     0.41994  -2.86692   0.1065 
 C                     0.76109  -1.84977  -0.94363 
 H                    -0.68208  -0.50554  -2.10389 
 H                     1.75371  -1.51452  -1.19299 
 C                    -0.91194  -2.5114    0.72968 
 H                    -1.45418  -3.38174   1.0991 
 H                    -0.80844  -1.77786   1.52636 
 C                    -1.12939  -2.6842   -1.6538 
 H                    -1.61539  -2.71635  -2.6165 
 C                     0.20385  -3.23689  -1.32734 
 H                     0.74106  -3.97524  -1.89789 
 H                    -2.59292  -1.5432   -0.47586 
 H                     1.22366  -3.32047   0.66467 
 N                     0.63762   0.23542   0.87367 
 N                    -0.17844   0.57257  -0.07053 
 C                     1.97745   0.40863   0.55998 
 C                    -1.51338   0.78017   0.40136 
 O                    -1.87318   0.71755   1.54782 
 O                     2.8482    0.06602   1.33214 
 O                    -2.27211   1.12396  -0.62194 
 O                     2.23847   1.00011  -0.61504 
 C                     3.61473   1.18189  -0.93963 
 H                     3.62802   1.66612  -1.91366 
 H                     4.10921   1.81472  -0.20286 
 H                     4.13334   0.22457  -0.99919 
 C                    -3.60261   1.55002  -0.31378 
 H                    -4.17808   0.73413   0.12453 
 H                    -3.56821   2.39952   0.36661 
 H                    -4.03696   1.85041  -1.26348 
 O                    -1.39494   4.03525   0.36551 
 H                    -0.87265   3.74961  -0.40257 
 H                    -0.87006   3.79478   1.13129 
 O                    -3.964    -1.20282   1.85298 
 H                    -4.35547  -1.32635   2.7191 
 H                    -3.29707  -0.51061   1.96242 
 O                     0.16123   2.93561  -1.76579 
 H                     1.07391   3.22999  -1.78796 
 H                     0.19687   2.05153  -1.35954 
 O                     5.66877  -0.25874   1.38174 
 H                     4.70799  -0.12639   1.37693 
 H                     5.89132  -0.43398   2.29715 
 

 GradGradGradGradGradGradGradGradGradGradGradGradGradGradGradGradGradGrad
 Berny optimization.
 Initialization pass.
 Trust Radius=3.00D-01 FncErr=1.00D-07 GrdErr=1.00D-07
 Number of steps in this run=      2 maximum allowed number of steps=      2.
 GradGradGradGradGradGradGradGradGradGradGradGradGradGradGradGradGradGrad

                          Input orientation:                          
 ---------------------------------------------------------------------
 Center     Atomic      Atomic             Coordinates (Angstroms)
 Number     Number       Type             X           Y           Z
 ---------------------------------------------------------------------
      1          6           0       -0.504960   -1.058980   -1.196220
      2          6           0       -1.588320   -1.941640   -0.505310
      3          6           0        0.419940   -2.866920    0.106500
      4          6           0        0.761090   -1.849770   -0.943630
      5          1           0       -0.682080   -0.505540   -2.103890
      6          1           0        1.753710   -1.514520   -1.192990
      7          6           0       -0.911940   -2.511400    0.729680
      8          1           0       -1.454180   -3.381740    1.099100
      9          1           0       -0.808440   -1.777860    1.526360
     10          6           0       -1.129390   -2.684200   -1.653800
     11          1           0       -1.615390   -2.716350   -2.616500
     12          6           0        0.203850   -3.236890   -1.327340
     13          1           0        0.741060   -3.975240   -1.897890
     14          1           0       -2.592920   -1.543200   -0.475860
     15          1           0        1.223660   -3.320470    0.664670
     16          7           0        0.637620    0.235420    0.873670
     17          7           0       -0.178440    0.572570   -0.070530
     18          6           0        1.977450    0.408630    0.559980
     19          6           0       -1.513380    0.780170    0.401360
     20          8           0       -1.873180    0.717550    1.547820
     21          8           0        2.848200    0.066020    1.332140
     22          8           0       -2.272110    1.123960   -0.621940
     23          8           0        2.238470    1.000110   -0.615040
     24          6           0        3.614730    1.181890   -0.939630
     25          1           0        3.628020    1.666120   -1.913660
     26          1           0        4.109210    1.814720   -0.202860
     27          1           0        4.133340    0.224570   -0.999190
     28          6           0       -3.602610    1.550020   -0.313780
     29          1           0       -4.178080    0.734130    0.124530
     30          1           0       -3.568210    2.399520    0.366610
     31          1           0       -4.036960    1.850410   -1.263480
     32          8           0       -1.394940    4.035250    0.365510
     33          1           0       -0.872650    3.749610   -0.402570
     34          1           0       -0.870060    3.794780    1.131290
     35          8           0       -3.964000   -1.202820    1.852980
     36          1           0       -4.355470   -1.326350    2.719100
     37          1           0       -3.297070   -0.510610    1.962420
     38          8           0        0.161230    2.935610   -1.765790
     39          1           0        1.073910    3.229990   -1.787960
     40          1           0        0.196870    2.051530   -1.359540
     41          8           0        5.668770   -0.258740    1.381740
     42          1           0        4.707990   -0.126390    1.376930
     43          1           0        5.891320   -0.433980    2.297150
 ---------------------------------------------------------------------
                    Distance matrix (angstroms):
                    1          2          3          4          5
     1  C    0.000000
     2  C    1.558882   0.000000
     3  C    2.412709   2.294246   0.000000
     4  C    1.513946   2.391713   1.501250   0.000000
     5  H    1.077744   2.332190   3.417073   2.288208   0.000000
     6  H    2.304152   3.438677   2.301435   1.076971   2.789418
     7  C    2.446272   1.518985   1.512829   2.456980   3.479286
     8  H    3.400695   2.160096   2.182343   3.380399   4.373535
     9  H    2.832195   2.182366   2.170477   2.927362   3.848828
    10  C    1.800176   1.442581   2.352119   2.185070   2.269191
    11  H    2.448903   2.249007   3.402935   3.032674   2.453878
    12  C    2.294100   2.359084   1.496486   1.543325   2.974588
    13  H    3.247996   3.391286   2.312806   2.329943   3.755873
    14  H    2.261187   1.081130   3.341961   3.400320   2.716345
    15  H    3.400790   3.343240   1.078530   2.227904   4.384131
    16  N    2.695442   3.405288   3.203193   2.768726   3.340134
    17  N    2.008917   2.915141   3.495639   2.740940   2.355956
    18  C    3.376459   4.401514   3.655230   2.973339   3.873630
    19  C    2.636597   2.869829   4.138349   3.728109   2.936050
    20  O    3.543704   3.371614   4.492686   4.442728   4.031086
    21  O    4.347633   5.204770   4.000097   3.633925   4.959421
    22  O    2.866678   3.143100   4.868766   4.259913   2.716550
    23  O    3.479085   4.828070   4.333773   3.226831   3.607391
    24  C    4.696720   6.084144   5.262503   4.163441   4.760830
    25  H    5.002241   6.496890   5.909423   4.639152   4.830037
    26  H    5.525892   6.831073   5.968599   5.018679   5.652785
    27  H    4.816653   6.137897   4.956733   3.959551   4.994166
    28  C    4.144999   4.035559   5.988898   5.567509   3.994911
    29  H    4.295513   3.776678   5.840349   5.675641   4.327199
    30  H    4.877208   4.850348   6.611232   6.206129   4.782519
    31  H    4.576472   4.577150   6.632798   6.067530   4.184735
    32  O    5.402059   6.043090   7.141486   6.402794   5.217747
    33  H    4.887496   5.736991   6.760800   5.857893   4.586623
    34  H    5.395330   6.008400   6.862401   6.231123   5.384652
    35  O    4.613379   3.428008   5.003834   5.528657   5.187872
    36  H    5.497967   4.293311   5.657170   6.314170   6.117905
    37  H    4.251305   3.325262   4.776275   5.167895   4.834571
    38  O    4.089617   5.332664   6.102602   4.892406   3.559072
    39  H    4.608498   5.956376   6.417863   5.158945   4.139746
    40  H    3.192884   4.456682   5.137138   3.963769   2.804499
    41  O    6.738042   7.684951   5.998254   5.658979   7.248712
    42  H    5.887756   6.817733   5.245176   4.892142   6.427497
    43  H    7.314824   8.128458   6.376060   6.231081   7.910996
                    6          7          8          9         10
     6  H    0.000000
     7  C    3.434548   0.000000
     8  H    4.362424   1.089948   0.000000
     9  H    3.745507   1.087884   1.781000   0.000000
    10  C    3.145276   2.399609   2.858410   3.322330   0.000000
    11  H    3.849885   3.425459   3.778150   4.323797   1.078898
    12  C    2.320921   2.450031   2.942390   3.361116   1.479720
    13  H    2.752724   3.432107   3.762083   4.353725   2.285814
    14  H    4.405484   2.283951   2.675342   2.692270   2.198032
    15  H    2.644487   2.284646   2.713542   2.692877   3.364073
    16  N    2.928998   3.157038   4.184530   2.563277   4.246718
    17  N    3.057624   3.269439   4.316493   2.910581   3.744009
    18  C    2.611794   4.111441   5.141366   3.670942   4.911097
    19  C    4.299004   3.362136   4.220408   2.882028   4.046355
    20  O    5.064436   3.466908   4.145008   2.713154   4.730275
    21  O    3.173688   4.598337   5.518318   4.099833   5.683377
    22  O    4.847154   4.110083   4.892067   3.895906   4.107630
    23  O    2.625335   4.905513   5.981183   4.646114   5.098592
    24  C    3.286064   6.075996   7.118777   5.865634   6.161442
    25  H    3.761499   6.711941   7.770867   6.586115   6.451803
    26  H    4.196734   6.693048   7.723316   6.330886   7.056092
    27  H    2.953749   5.994112   6.973426   5.899942   6.048618
    28  C    6.233344   4.982333   5.561856   4.718929   5.083413
    29  H    6.479075   4.644065   5.030885   4.430541   4.913446
    30  H    6.787849   5.595063   6.199083   5.139246   5.989500
    31  H    6.697730   5.723969   6.295072   5.600972   5.400833
    32  O    6.568323   6.574537   7.453416   5.956828   7.021334
    33  H    5.935789   6.362687   7.310906   5.854726   6.559375
    34  H    6.362005   6.319094   7.200324   5.586966   7.056994
    35  O    6.485931   3.505603   3.408111   3.224114   4.746262
    36  H    7.256854   4.149703   3.907238   3.769338   5.601214
    37  H    6.039439   3.348381   3.519226   2.826544   4.743456
    38  O    4.761066   6.086788   7.122223   5.830550   5.767192
    39  H    4.829751   6.576144   7.644693   6.293371   6.312699
    40  H    3.894638   5.139517   6.187996   4.899316   4.926733
    41  O    4.851176   6.986086   7.782637   6.654539   7.830220
    42  H    4.154415   6.139285   6.974728   5.760268   7.057104
    43  H    5.519824   7.284022   8.005060   6.876548   8.364440
                   11         12         13         14         15
    11  H    0.000000
    12  C    2.289657   0.000000
    13  H    2.766597   1.076700   0.000000
    14  H    2.629484   3.378687   4.364907   0.000000
    15  H    4.380781   2.239442   2.688557   4.361855   0.000000
    16  N    5.096105   4.133949   5.042014   3.926972   3.609914
    17  N    4.400430   4.029603   4.986712   3.235813   4.202638
    18  C    5.723987   4.471851   5.175722   5.076503   3.805962
    19  C    4.619907   4.698303   5.743081   2.707946   4.937203
    20  O    5.403673   5.312080   6.381963   3.118381   5.164879
    21  O    6.577004   4.997463   5.586136   5.955186   3.814834
    22  O    4.376932   5.064087   6.058802   2.690353   5.799028
    23  O    5.715781   4.753864   5.351827   5.461696   4.618973
    24  C    6.735156   5.595537   5.980989   6.795301   5.344365
    25  H    6.869744   6.009011   6.337170   7.146125   6.106948
    26  H    7.689428   6.483445   6.909501   7.501247   5.953922
    27  H    6.656771   5.246930   5.472991   6.974343   4.878727
    28  C    5.239606   6.199270   7.204538   3.257876   6.926176
    29  H    5.097689   6.089190   7.103963   2.838914   6.775716
    30  H    6.235750   6.990495   8.020931   4.148010   7.467874
    31  H    5.343216   6.623380   7.561094   3.771231   7.624296
    32  O    7.384110   7.635829   8.593802   5.767336   7.813653
    33  H    6.874721   7.129182   8.032020   5.565837   7.451144
    34  H    7.549587   7.526123   8.493812   5.834827   7.431566
    35  O    5.270958   5.623420   6.625174   2.723824   5.727856
    36  H    6.157009   6.388367   7.369385   3.655322   6.270876
    37  H    5.353489   5.523727   6.573595   2.739941   5.478729
    38  O    5.985377   6.188199   6.936390   5.413779   6.795177
    39  H    6.578584   6.541385   7.213752   6.160405   6.996166
    40  H    5.253277   5.288523   6.075189   4.635289   5.831819
    41  O    8.665146   6.787772   6.989326   8.564814   5.444941
    42  H    7.914576   6.105372   6.424533   7.664429   4.780169
    43  H    9.257638   7.303461   7.527553   8.994570   5.725720
                   16         17         18         19         20
    16  N    0.000000
    17  N    1.292725   0.000000
    18  C    1.386920   2.252172   0.000000
    19  C    2.268619   1.431029   3.514128   0.000000
    20  O    2.644058   2.347812   3.987306   1.203224   0.000000
    21  O    2.263969   3.374111   1.213185   4.516607   4.771000
    22  O    3.390115   2.234175   4.468489   1.319472   2.243250
    23  O    2.315973   2.514107   1.341138   3.893305   4.654403
    24  C    3.612070   3.938876   2.351052   5.315745   6.043192
    25  H    4.331120   4.368308   3.228708   5.707733   6.568472
    26  H    3.962959   4.465914   2.665223   5.748817   6.329112
    27  H    3.965827   4.424360   2.666974   5.844286   6.542826
    28  C    4.595407   3.569246   5.762230   2.338584   2.673853
    29  H    4.899070   4.007651   6.179492   2.679437   2.708984
    30  H    4.757042   3.875484   5.895369   2.616453   2.664096
    31  H    5.387699   4.236057   6.448012   3.207111   3.724073
    32  O    4.339151   3.695965   4.956128   3.257431   3.554392
    33  H    4.032274   3.268908   4.495745   3.142358   3.741453
    34  H    3.874082   3.507898   4.461022   3.167733   3.263295
    35  O    4.919603   4.602430   6.290425   3.470589   2.855253
    36  H    5.547584   5.369871   6.912151   4.229281   3.422161
    37  H    4.150147   3.877115   5.534655   2.698995   1.925547
    38  O    3.805880   2.928010   3.885034   3.485223   4.476452
    39  H    4.030145   3.402915   3.780116   4.181962   5.111274
    40  H    2.912000   1.997430   3.090978   2.764431   3.810164
    41  O    5.080827   6.081943   3.840119   7.322824   7.606690
    42  H    4.117291   5.144014   2.899914   6.362313   6.637261
    43  H    5.484137   6.592499   4.364187   7.739364   7.885111
                   21         22         23         24         25
    21  O    0.000000
    22  O    5.581688   0.000000
    23  O    2.244060   4.512285   0.000000
    24  C    2.644555   5.895691   1.425656   0.000000
    25  H    3.701845   6.064158   2.015151   1.087837   0.000000
    26  H    2.646568   6.432264   2.081622   1.089869   1.783385
    27  H    2.666800   6.479275   2.083162   1.090397   1.780357
    28  C    6.820869   1.430636   5.874638   7.253772   7.406423
    29  H    7.160538   2.083724   6.464505   7.877869   8.121454
    30  H    6.895490   2.069821   6.053059   7.401589   7.584407
    31  H    7.571441   2.013454   6.365886   7.687663   7.694713
    32  O    5.890110   3.196888   4.834793   5.911163   6.003126
    33  H    5.515685   2.983396   4.157398   5.197903   5.184627
    34  H    5.269673   3.488960   4.530211   5.588313   5.834007
    35  O    6.948906   3.794947   7.029556   8.421559   8.947467
    36  H    7.466941   4.637559   7.746544   9.121494   9.703270
    37  H    6.204361   3.225101   6.290292   7.685013   8.229157
    38  O    5.005150   3.242162   3.063546   3.960396   3.694875
    39  H    4.784750   4.121992   2.775663   3.371964   2.997494
    40  H    4.268131   2.738668   2.414103   3.551671   3.496910
    41  O    2.839638   8.305671   4.163987   3.418077   4.327749
    42  H    1.870253   7.367540   3.366820   2.876328   3.899668
    43  H    3.231381   8.808510   4.886796   4.274417   5.221481
                   26         27         28         29         30
    26  H    0.000000
    27  H    1.778567   0.000000
    28  C    7.717159   7.878549   0.000000
    29  H    8.363853   8.402506   1.090393   0.000000
    30  H    7.720691   8.118478   1.088928   1.789991   0.000000
    31  H    8.215003   8.334687   1.086657   1.786776   1.782818
    32  O    5.962337   6.851684   3.392876   4.324504   2.720058
    33  H    5.348141   6.151569   3.506959   4.505199   3.111338
    34  H    5.522112   6.505333   3.820210   4.617807   3.132331
    35  O    8.860516   8.702829   3.521872   2.604831   3.916989
    36  H    9.489730   9.396325   4.247195   3.317957   4.476170
    37  H    8.059068   8.032597   3.085553   2.388178   3.330012
    38  O    4.391548   4.869812   4.265523   5.220099   4.329347
    39  H    3.705209   4.360599   5.183179   6.121302   5.184702
    40  H    4.086611   4.354702   3.972553   4.803977   4.156503
    41  O    3.040135   2.874015   9.597129   9.976313   9.665332
    42  H    2.573360   2.469685   8.644936   9.015056   8.711857
    43  H    3.805603   3.793421  10.044298  10.367139  10.061730
                   31         32         33         34         35
    31  H    0.000000
    32  O    3.795709   0.000000
    33  H    3.789589   0.971763   0.000000
    34  H    4.420945   0.959033   1.534527   0.000000
    35  O    4.363469   6.020798   6.258635   5.921934   0.000000
    36  H    5.104331   6.561317   6.902190   6.394935   0.958474
    37  H    4.065499   5.180064   5.442469   5.011740   0.967433
    38  O    4.365177   2.858901   1.894696   3.192930   6.873109
    39  H    5.319710   3.373588   2.445078   3.552468   7.634578
    40  H    4.239693   3.073240   2.223317   3.222033   6.182549
    41  O   10.278468   8.328690   7.876599   7.697405   9.690388
    42  H    9.346318   7.455734   7.023784   6.822797   8.751499
    43  H   10.792000   8.763266   8.398941   8.059646   9.895238
                   36         37         38         39         40
    36  H    0.000000
    37  H    1.535645   0.000000
    38  O    7.660230   6.142949   0.000000
    39  H    8.399523   6.867525   0.959237   0.000000
    40  H    6.983493   5.459633   0.973605   1.530200   0.000000
    41  O   10.169253   8.988154   7.102381   6.582627   6.541686
    42  H    9.240543   8.035634   6.318668   5.872679   5.708048
    43  H   10.294225   9.194804   7.790735   7.302071   7.209431
                   41         42         43
    41  O    0.000000
    42  H    0.969865   0.000000
    43  H    0.958234   1.530257   0.000000
 Stoichiometry    C11H22N2O8
 Framework group  C1[X(C11H22N2O8)]
 Deg. of freedom   123
 Full point group                 C1      NOp   1
 Largest Abelian subgroup         C1      NOp   1
 Largest concise Abelian subgroup C1      NOp   1
                         Standard orientation:                         
 ---------------------------------------------------------------------
 Center     Atomic      Atomic             Coordinates (Angstroms)
 Number     Number       Type             X           Y           Z
 ---------------------------------------------------------------------
      1          6           0       -0.504960   -1.058981   -1.196220
      2          6           0       -1.588319   -1.941642   -0.505310
      3          6           0        0.419942   -2.866920    0.106500
      4          6           0        0.761091   -1.849769   -0.943630
      5          1           0       -0.682080   -0.505541   -2.103890
      6          1           0        1.753711   -1.514518   -1.192990
      7          6           0       -0.911938   -2.511401    0.729680
      8          1           0       -1.454177   -3.381742    1.099100
      9          1           0       -0.808439   -1.777861    1.526360
     10          6           0       -1.129388   -2.684201   -1.653800
     11          1           0       -1.615388   -2.716352   -2.616500
     12          6           0        0.203853   -3.236890   -1.327340
     13          1           0        0.741064   -3.975239   -1.897890
     14          1           0       -2.592919   -1.543203   -0.475860
     15          1           0        1.223663   -3.320469    0.664670
     16          7           0        0.637619    0.235420    0.873670
     17          7           0       -0.178441    0.572570   -0.070530
     18          6           0        1.977449    0.408632    0.559980
     19          6           0       -1.513382    0.780168    0.401360
     20          8           0       -1.873182    0.717548    1.547820
     21          8           0        2.848199    0.066023    1.332140
     22          8           0       -2.272112    1.123957   -0.621940
     23          8           0        2.238468    1.000112   -0.615040
     24          6           0        3.614728    1.181894   -0.939630
     25          1           0        3.628017    1.666124   -1.913660
     26          1           0        4.109207    1.814724   -0.202860
     27          1           0        4.133339    0.224574   -0.999190
     28          6           0       -3.602612    1.550016   -0.313780
     29          1           0       -4.178082    0.734125    0.124530
     30          1           0       -3.568213    2.399516    0.366610
     31          1           0       -4.036963    1.850405   -1.263480
     32          8           0       -1.394945    4.035248    0.365510
     33          1           0       -0.872655    3.749609   -0.402570
     34          1           0       -0.870065    3.794779    1.131290
     35          8           0       -3.963999   -1.202825    1.852980
     36          1           0       -4.355469   -1.326355    2.719100
     37          1           0       -3.297070   -0.510614    1.962420
     38          8           0        0.161226    2.935610   -1.765790
     39          1           0        1.073906    3.229991   -1.787960
     40          1           0        0.196867    2.051530   -1.359540
     41          8           0        5.668770   -0.258734    1.381740
     42          1           0        4.707989   -0.126385    1.376930
     43          1           0        5.891320   -0.433974    2.297150
 ---------------------------------------------------------------------
 Rotational constants (GHZ):      0.3330197      0.2300044      0.1719858
 General basis read from cards:  (5D, 7F)
 There are   972 symmetry adapted cartesian basis functions of A   symmetry.
 There are   867 symmetry adapted basis functions of A   symmetry.
   867 basis functions,  1331 primitive gaussians,   972 cartesian basis functions
    83 alpha electrons       83 beta electrons
       nuclear repulsion energy      1968.8878148107 Hartrees.
 NAtoms=   43 NActive=   43 NUniq=   43 SFac= 1.00D+00 NAtFMM=   60 NAOKFM=F Big=F
 Integral buffers will be    131072 words long.
 Raffenetti 2 integral format.
 Two-electron integral symmetry is turned on.
 Nuclear repulsion after empirical dispersion term =     1968.8515933326 Hartrees.
 Force inversion solution in PCM.
 ------------------------------------------------------------------------------
 Polarizable Continuum Model (PCM)
 =================================
 Model                : PCM (using non-symmetric T matrix).
 Atomic radii         : SMD-Coulomb.
 Polarization charges : Total charges.
 Charge compensation  : None.
 Solution method      : Matrix inversion.
 Cavity type          : VdW (van der Waals Surface) (Alpha=1.000).
 Cavity algorithm     : GePol (No added spheres)
                        Default sphere list used, NSphG=   43.
                        Lebedev-Laikov grids with approx.  5.0 points / Ang**2.
                        Smoothing algorithm: Karplus/York (Gamma=1.0000).
                        Polarization charges: spherical gaussians, with
                                              point-specific exponents (IZeta= 3).
                        Self-potential: point-specific (ISelfS= 7).
                        Self-field    : sphere-specific E.n sum rule (ISelfD= 2).
 1st derivatives      : Analytical E(r).r(x)/FMM algorithm (CHGder, D1EAlg=3).
                        Cavity 1st derivative terms included.
 2nd derivatives      : Analytical E(r).r(xy)/FMM algorithm (CHGder, D2EAlg=3).
                        Cavity 2nd derivative terms included.
 Solvent              : Toluene, Eps=   2.374100 Eps(inf)=   2.238315
 ------------------------------------------------------------------------------
 ------------------------------------------------------------------------------
 Atomic radii for non-electrostatic terms: SMD-CDS.
 ------------------------------------------------------------------------------
 Nuclear repulsion after PCM non-electrostatic terms =     1968.8406599624 Hartrees.
 One-electron integrals computed using PRISM.
 NBasis=   867 RedAO= T EigKep=  1.54D-06  NBF=   867
 NBsUse=   863 1.00D-06 EigRej=  6.24D-07 NBFU=   863
 ExpMin= 3.17D-02 ExpMax= 2.70D+04 ExpMxC= 9.22D+02 IAcc=3 IRadAn=         5 AccDes= 0.00D+00
 Harris functional with IExCor= 4639 and IRadAn=       5 diagonalized for initial guess.
 HarFok:  IExCor= 4639 AccDes= 0.00D+00 IRadAn=         5 IDoV= 1 UseB2=F ITyADJ=14
 ICtDFT=  3500011 ScaDFX=  1.000000  1.000000  1.000000  1.000000
 FoFCou: FMM=F IPFlag=           0 FMFlag=      100000 FMFlg1=           0
         NFxFlg=           0 DoJE=T BraDBF=F KetDBF=T FulRan=T
         wScrn=  0.000000 ICntrl=     500 IOpCl=  0 I1Cent=   200000004 NGrid=           0
         NMat0=    1 NMatS0=      1 NMatT0=    0 NMatD0=    1 NMtDS0=    0 NMtDT0=    0
 Petite list used in FoFCou.
 Requested convergence on RMS density matrix=1.00D-08 within 128 cycles.
 Requested convergence on MAX density matrix=1.00D-06.
 Requested convergence on             energy=1.00D-06.
 No special actions if energy rises.
 Inv3:  Mode=1 IEnd=    27980748.
 Iteration    1 A*A^-1 deviation from unit magnitude is 6.22D-15 for   3052.
 Iteration    1 A*A^-1 deviation from orthogonality  is 2.47D-15 for   1208    288.
 Iteration    1 A^-1*A deviation from unit magnitude is 6.22D-15 for   3052.
 Iteration    1 A^-1*A deviation from orthogonality  is 4.28D-15 for   1321    737.
 Error on total polarization charges =  0.01411
 SCF Done:  E(RwB97XD) =  -1143.68145286     A.U. after   18 cycles
            NFock= 18  Conv=0.66D-08     -V/T= 2.0044
 SMD-CDS (non-electrostatic) energy       (kcal/mol) =      -6.86
 (included in total energy above)
 DoSCS=F DFT=T ScalE2(SS,OS)=  1.000000  1.000000
 Range of M.O.s used for correlation:     1   863
 NBasis=   867 NAE=    83 NBE=    83 NFC=     0 NFV=     0
 NROrb=    863 NOA=    83 NOB=    83 NVA=   780 NVB=   780

 **** Warning!!: The largest alpha MO coefficient is  0.13889874D+03

 PrsmSu:  requested number of processors reduced to:   7 ShMem   1 Linda.
 Symmetrizing basis deriv contribution to polar:
 IMax=3 JMax=2 DiffMx= 0.00D+00
 G2DrvN: will do    22 centers at a time, making    2 passes.
 Calling FoFCou, ICntrl=  3107 FMM=F I1Cent=   0 AccDes= 0.00D+00.
 Calling FoFCou, ICntrl=  3107 FMM=F I1Cent=   0 AccDes= 0.00D+00.
 NEqPCM:  Using equilibrium solvation (IEInf=0, Eps=   2.3741, EpsInf=   2.2383)
 G2PCM: DoFxE=T DoFxN=T DoGrad=T DoDP/DQ/DG/TGxP=FFFF NFrqRd=   0 IEInf=0 SqF1=F DoCFld=F IF1Alg=4.
 End of G2Drv F.D. properties file   721 does not exist.
 End of G2Drv F.D. properties file   722 does not exist.
 End of G2Drv F.D. properties file   788 does not exist.
          IDoAtm=1111111111111111111111111111111111111111111
 NEqPCM:  Using equilibrium solvation (IEInf=0, Eps=   2.3741, EpsInf=   2.2383)
          Differentiating once with respect to electric field.
                with respect to dipole field.
          Differentiating once with respect to nuclear coordinates.
          There are   132 degrees of freedom in the 1st order CPHF.  IDoFFX=6 NUNeed=     3.
    132 vectors produced by pass  0 Test12= 6.47D-14 1.00D-09 XBig12= 1.31D+02 7.47D+00.
 AX will form    72 AO Fock derivatives at one time.
    129 vectors produced by pass  1 Test12= 6.47D-14 1.00D-09 XBig12= 2.00D+01 4.16D-01.
    129 vectors produced by pass  2 Test12= 6.47D-14 1.00D-09 XBig12= 5.70D-01 8.22D-02.
    129 vectors produced by pass  3 Test12= 6.47D-14 1.00D-09 XBig12= 9.00D-03 8.82D-03.
    129 vectors produced by pass  4 Test12= 6.47D-14 1.00D-09 XBig12= 1.03D-04 8.31D-04.
    129 vectors produced by pass  5 Test12= 6.47D-14 1.00D-09 XBig12= 8.18D-07 5.52D-05.
    129 vectors produced by pass  6 Test12= 6.47D-14 1.00D-09 XBig12= 5.60D-09 4.21D-06.
     65 vectors produced by pass  7 Test12= 6.47D-14 1.00D-09 XBig12= 3.65D-11 4.29D-07.
      5 vectors produced by pass  8 Test12= 6.47D-14 1.00D-09 XBig12= 2.49D-13 4.08D-08.
      4 vectors produced by pass  9 Test12= 6.47D-14 1.00D-09 XBig12= 1.09D-14 6.92D-09.
      4 vectors produced by pass 10 Test12= 6.47D-14 1.00D-09 XBig12= 1.56D-14 7.77D-09.
      3 vectors produced by pass 11 Test12= 6.47D-14 1.00D-09 XBig12= 6.86D-15 5.44D-09.
      3 vectors produced by pass 12 Test12= 6.47D-14 1.00D-09 XBig12= 1.39D-15 2.10D-09.
      3 vectors produced by pass 13 Test12= 6.47D-14 1.00D-09 XBig12= 3.98D-15 3.83D-09.
      3 vectors produced by pass 14 Test12= 6.47D-14 1.00D-09 XBig12= 1.47D-15 2.33D-09.
      3 vectors produced by pass 15 Test12= 6.47D-14 1.00D-09 XBig12= 7.65D-15 5.48D-09.
      3 vectors produced by pass 16 Test12= 6.47D-14 1.00D-09 XBig12= 9.26D-16 1.80D-09.
      3 vectors produced by pass 17 Test12= 6.47D-14 1.00D-09 XBig12= 1.12D-15 2.06D-09.
      3 vectors produced by pass 18 Test12= 6.47D-14 1.00D-09 XBig12= 1.28D-15 2.35D-09.
      3 vectors produced by pass 19 Test12= 6.47D-14 1.00D-09 XBig12= 9.18D-16 1.92D-09.
      3 vectors produced by pass 20 Test12= 6.47D-14 1.00D-09 XBig12= 1.02D-15 2.16D-09.
      3 vectors produced by pass 21 Test12= 6.47D-14 1.00D-09 XBig12= 1.49D-15 2.53D-09.
      3 vectors produced by pass 22 Test12= 6.47D-14 1.00D-09 XBig12= 1.42D-15 2.15D-09.
      3 vectors produced by pass 23 Test12= 6.47D-14 1.00D-09 XBig12= 1.89D-15 2.39D-09.
      3 vectors produced by pass 24 Test12= 6.47D-14 1.00D-09 XBig12= 1.21D-15 2.27D-09.
      3 vectors produced by pass 25 Test12= 6.47D-14 1.00D-09 XBig12= 1.32D-15 2.34D-09.
      3 vectors produced by pass 26 Test12= 6.47D-14 1.00D-09 XBig12= 1.58D-15 2.96D-09.
      3 vectors produced by pass 27 Test12= 6.47D-14 1.00D-09 XBig12= 2.17D-15 2.70D-09.
      3 vectors produced by pass 28 Test12= 6.47D-14 1.00D-09 XBig12= 2.30D-15 2.94D-09.
      3 vectors produced by pass 29 Test12= 6.47D-14 1.00D-09 XBig12= 3.06D-15 3.04D-09.
      3 vectors produced by pass 30 Test12= 6.47D-14 1.00D-09 XBig12= 1.54D-15 2.63D-09.
      2 vectors produced by pass 31 Test12= 6.47D-14 1.00D-09 XBig12= 1.19D-15 1.89D-09.
 InvSVY:  IOpt=1 It=  1 EMax= 1.05D-14
 Solved reduced A of dimension  1046 with   132 vectors.
 Isotropic polarizability for W=    0.000000      245.18 Bohr**3.
 End of Minotr F.D. properties file   721 does not exist.
 End of Minotr F.D. properties file   722 does not exist.
 End of Minotr F.D. properties file   788 does not exist.

 **********************************************************************

            Population analysis using the SCF density.

 **********************************************************************

 Orbital symmetries:
       Occupied  (A) (A) (A) (A) (A) (A) (A) (A) (A) (A) (A) (A)
                 (A) (A) (A) (A) (A) (A) (A) (A) (A) (A) (A) (A)
                 (A) (A) (A) (A) (A) (A) (A) (A) (A) (A) (A) (A)
                 (A) (A) (A) (A) (A) (A) (A) (A) (A) (A) (A) (A)
                 (A) (A) (A) (A) (A) (A) (A) (A) (A) (A) (A) (A)
                 (A) (A) (A) (A) (A) (A) (A) (A) (A) (A) (A) (A)
                 (A) (A) (A) (A) (A) (A) (A) (A) (A) (A) (A)
       Virtual   (A) (A) (A) (A) (A) (A) (A) (A) (A) (A) (A) (A)
                 (A) (A) (A) (A) (A) (A) (A) (A) (A) (A) (A) (A)
                 (A) (A) (A) (A) (A) (A) (A) (A) (A) (A) (A) (A)
                 (A) (A) (A) (A) (A) (A) (A) (A) (A) (A) (A) (A)
                 (A) (A) (A) (A) (A) (A) (A) (A) (A) (A) (A) (A)
                 (A) (A) (A) (A) (A) (A) (A) (A) (A) (A) (A) (A)
                 (A) (A) (A) (A) (A) (A) (A) (A) (A) (A) (A) (A)
                 (A) (A) (A) (A) (A) (A) (A) (A) (A) (A) (A) (A)
                 (A) (A) (A) (A) (A) (A) (A) (A) (A) (A) (A) (A)
                 (A) (A) (A) (A) (A) (A) (A) (A) (A) (A) (A) (A)
                 (A) (A) (A) (A) (A) (A) (A) (A) (A) (A) (A) (A)
                 (A) (A) (A) (A) (A) (A) (A) (A) (A) (A) (A) (A)
                 (A) (A) (A) (A) (A) (A) (A) (A) (A) (A) (A) (A)
                 (A) (A) (A) (A) (A) (A) (A) (A) (A) (A) (A) (A)
                 (A) (A) (A) (A) (A) (A) (A) (A) (A) (A) (A) (A)
                 (A) (A) (A) (A) (A) (A) (A) (A) (A) (A) (A) (A)
                 (A) (A) (A) (A) (A) (A) (A) (A) (A) (A) (A) (A)
                 (A) (A) (A) (A) (A) (A) (A) (A) (A) (A) (A) (A)
                 (A) (A) (A) (A) (A) (A) (A) (A) (A) (A) (A) (A)
                 (A) (A) (A) (A) (A) (A) (A) (A) (A) (A) (A) (A)
                 (A) (A) (A) (A) (A) (A) (A) (A) (A) (A) (A) (A)
                 (A) (A) (A) (A) (A) (A) (A) (A) (A) (A) (A) (A)
                 (A) (A) (A) (A) (A) (A) (A) (A) (A) (A) (A) (A)
                 (A) (A) (A) (A) (A) (A) (A) (A) (A) (A) (A) (A)
                 (A) (A) (A) (A) (A) (A) (A) (A) (A) (A) (A) (A)
                 (A) (A) (A) (A) (A) (A) (A) (A) (A) (A) (A) (A)
                 (A) (A) (A) (A) (A) (A) (A) (A) (A) (A) (A) (A)
                 (A) (A) (A) (A) (A) (A) (A) (A) (A) (A) (A) (A)
                 (A) (A) (A) (A) (A) (A) (A) (A) (A) (A) (A) (A)
                 (A) (A) (A) (A) (A) (A) (A) (A) (A) (A) (A) (A)
                 (A) (A) (A) (A) (A) (A) (A) (A) (A) (A) (A) (A)
                 (A) (A) (A) (A) (A) (A) (A) (A) (A) (A) (A) (A)
                 (A) (A) (A) (A) (A) (A) (A) (A) (A) (A) (A) (A)
                 (A) (A) (A) (A) (A) (A) (A) (A) (A) (A) (A) (A)
                 (A) (A) (A) (A) (A) (A) (A) (A) (A) (A) (A) (A)
                 (A) (A) (A) (A) (A) (A) (A) (A) (A) (A) (A) (A)
                 (A) (A) (A) (A) (A) (A) (A) (A) (A) (A) (A) (A)
                 (A) (A) (A) (A) (A) (A) (A) (A) (A) (A) (A) (A)
                 (A) (A) (A) (A) (A) (A) (A) (A) (A) (A) (A) (A)
                 (A) (A) (A) (A) (A) (A) (A) (A) (A) (A) (A) (A)
                 (A) (A) (A) (A) (A) (A) (A) (A) (A) (A) (A) (A)
                 (A) (A) (A) (A) (A) (A) (A) (A) (A) (A) (A) (A)
                 (A) (A) (A) (A) (A) (A) (A) (A) (A) (A) (A) (A)
                 (A) (A) (A) (A) (A) (A) (A) (A) (A) (A) (A) (A)
                 (A) (A) (A) (A) (A) (A) (A) (A) (A) (A) (A) (A)
                 (A) (A) (A) (A) (A) (A) (A) (A) (A) (A) (A) (A)
                 (A) (A) (A) (A) (A) (A) (A) (A) (A) (A) (A) (A)
                 (A) (A) (A) (A) (A) (A) (A) (A) (A) (A) (A) (A)
                 (A) (A) (A) (A) (A) (A) (A) (A) (A) (A) (A) (A)
                 (A) (A) (A) (A) (A) (A) (A) (A) (A) (A) (A) (A)
                 (A) (A) (A) (A) (A) (A) (A) (A) (A) (A) (A) (A)
                 (A) (A) (A) (A) (A) (A) (A) (A) (A) (A) (A) (A)
                 (A) (A) (A) (A) (A) (A) (A) (A) (A) (A) (A) (A)
                 (A) (A) (A) (A) (A) (A) (A) (A) (A) (A) (A) (A)
                 (A) (A) (A) (A) (A) (A) (A) (A) (A) (A) (A) (A)
                 (A) (A) (A) (A) (A) (A) (A) (A) (A) (A) (A) (A)
                 (A) (A) (A) (A) (A) (A) (A) (A) (A) (A) (A) (A)
                 (A) (A) (A) (A) (A) (A) (A) (A) (A) (A) (A) (A)
                 (A) (A) (A) (A) (A) (A) (A) (A) (A) (A) (A) (A)
                 (A) (A) (A) (A) (A) (A) (A) (A) (A) (A) (A) (A)
                 (A) (A) (A) (A) (A) (A) (A) (A) (A) (A) (A) (A)
                 (A) (A) (A) (A) (A) (A) (A) (A) (A) (A) (A) (A)
                 (A) (A) (A) (A) (A) (A) (A) (A) (A) (A) (A) (A)
                 (A) (A) (A) (A) (A) (A) (A) (A) (A) (A) (A) (A)
                 (A) (A) (A) (A) (A) (A) (A) (A) (A) (A) (A) (A)
 The electronic state is 1-A.
 Alpha  occ. eigenvalues --  -19.30800 -19.30236 -19.25005 -19.24621 -19.24040
 Alpha  occ. eigenvalues --  -19.23449 -19.22411 -19.22393 -14.50882 -14.45803
 Alpha  occ. eigenvalues --  -10.44620 -10.43161 -10.36181 -10.35182 -10.33757
 Alpha  occ. eigenvalues --  -10.33644 -10.33106 -10.33094 -10.32789 -10.31877
 Alpha  occ. eigenvalues --  -10.29617  -1.23884  -1.22446  -1.14512  -1.12559
 Alpha  occ. eigenvalues --   -1.11475  -1.10826  -1.10222  -1.08743  -1.08605
 Alpha  occ. eigenvalues --   -1.08446  -0.91932  -0.90199  -0.85736  -0.83284
 Alpha  occ. eigenvalues --   -0.80734  -0.79638  -0.69787  -0.68815  -0.67425
 Alpha  occ. eigenvalues --   -0.67041  -0.65788  -0.65627  -0.63822  -0.62529
 Alpha  occ. eigenvalues --   -0.62179  -0.60374  -0.59750  -0.59697  -0.59150
 Alpha  occ. eigenvalues --   -0.58191  -0.57417  -0.56594  -0.55615  -0.55090
 Alpha  occ. eigenvalues --   -0.53484  -0.51939  -0.51317  -0.50791  -0.50083
 Alpha  occ. eigenvalues --   -0.49408  -0.48645  -0.48006  -0.47075  -0.46216
 Alpha  occ. eigenvalues --   -0.46152  -0.45731  -0.45277  -0.45175  -0.44372
 Alpha  occ. eigenvalues --   -0.43746  -0.40704  -0.40467  -0.40058  -0.39699
 Alpha  occ. eigenvalues --   -0.39369  -0.39248  -0.38808  -0.38042  -0.37967
 Alpha  occ. eigenvalues --   -0.37798  -0.33513  -0.28159
 Alpha virt. eigenvalues --   -0.05329   0.03676   0.05046   0.05312   0.05609
 Alpha virt. eigenvalues --    0.06389   0.07176   0.07262   0.07424   0.07573
 Alpha virt. eigenvalues --    0.07980   0.09016   0.09497   0.09714   0.09823
 Alpha virt. eigenvalues --    0.10110   0.10386   0.10483   0.10914   0.11819
 Alpha virt. eigenvalues --    0.12468   0.12515   0.13266   0.13336   0.13471
 Alpha virt. eigenvalues --    0.13906   0.14206   0.14430   0.14814   0.15080
 Alpha virt. eigenvalues --    0.15517   0.15596   0.15993   0.16230   0.16452
 Alpha virt. eigenvalues --    0.16863   0.17059   0.17174   0.17668   0.17870
 Alpha virt. eigenvalues --    0.18393   0.18580   0.18812   0.19098   0.19603
 Alpha virt. eigenvalues --    0.19774   0.20031   0.20223   0.20382   0.20853
 Alpha virt. eigenvalues --    0.20963   0.21077   0.21502   0.21913   0.21967
 Alpha virt. eigenvalues --    0.22128   0.22447   0.22683   0.23174   0.23236
 Alpha virt. eigenvalues --    0.23683   0.23723   0.24125   0.24422   0.24705
 Alpha virt. eigenvalues --    0.24900   0.24978   0.25360   0.25884   0.26175
 Alpha virt. eigenvalues --    0.26506   0.26795   0.27227   0.27585   0.27903
 Alpha virt. eigenvalues --    0.28101   0.28236   0.28494   0.28998   0.29444
 Alpha virt. eigenvalues --    0.29628   0.29789   0.29919   0.30610   0.30985
 Alpha virt. eigenvalues --    0.31000   0.31322   0.31641   0.31975   0.32660
 Alpha virt. eigenvalues --    0.32946   0.33051   0.33560   0.33653   0.33975
 Alpha virt. eigenvalues --    0.34345   0.34776   0.35225   0.35280   0.36014
 Alpha virt. eigenvalues --    0.36326   0.37045   0.37131   0.37724   0.37871
 Alpha virt. eigenvalues --    0.38430   0.39036   0.39477   0.39764   0.40376
 Alpha virt. eigenvalues --    0.40504   0.40748   0.41194   0.41683   0.42226
 Alpha virt. eigenvalues --    0.42751   0.43500   0.44276   0.44665   0.44923
 Alpha virt. eigenvalues --    0.45441   0.45641   0.46149   0.46657   0.47221
 Alpha virt. eigenvalues --    0.47563   0.48037   0.48318   0.48572   0.49864
 Alpha virt. eigenvalues --    0.50513   0.50974   0.51171   0.51843   0.52106
 Alpha virt. eigenvalues --    0.52630   0.52858   0.53711   0.54088   0.54330
 Alpha virt. eigenvalues --    0.55045   0.55871   0.56338   0.56779   0.57262
 Alpha virt. eigenvalues --    0.57601   0.57644   0.58713   0.58805   0.59063
 Alpha virt. eigenvalues --    0.59423   0.59757   0.60285   0.60584   0.60898
 Alpha virt. eigenvalues --    0.61176   0.61627   0.62275   0.62417   0.62689
 Alpha virt. eigenvalues --    0.62944   0.63394   0.63494   0.64046   0.64115
 Alpha virt. eigenvalues --    0.64573   0.65118   0.65417   0.65838   0.66056
 Alpha virt. eigenvalues --    0.66750   0.67433   0.67770   0.68295   0.69359
 Alpha virt. eigenvalues --    0.69499   0.70726   0.70834   0.71211   0.71925
 Alpha virt. eigenvalues --    0.72546   0.73464   0.73861   0.74162   0.74994
 Alpha virt. eigenvalues --    0.75657   0.76376   0.76490   0.77310   0.77489
 Alpha virt. eigenvalues --    0.77771   0.78325   0.79019   0.79626   0.79768
 Alpha virt. eigenvalues --    0.80559   0.82141   0.82175   0.82706   0.83263
 Alpha virt. eigenvalues --    0.83273   0.84234   0.84310   0.84834   0.85918
 Alpha virt. eigenvalues --    0.86407   0.86852   0.87828   0.88695   0.89042
 Alpha virt. eigenvalues --    0.89909   0.90482   0.91678   0.92285   0.93251
 Alpha virt. eigenvalues --    0.93467   0.94019   0.94967   0.95162   0.95883
 Alpha virt. eigenvalues --    0.96067   0.96410   0.97756   0.98259   0.99372
 Alpha virt. eigenvalues --    1.00019   1.00881   1.01814   1.02420   1.03558
 Alpha virt. eigenvalues --    1.04833   1.04981   1.05955   1.07132   1.08444
 Alpha virt. eigenvalues --    1.09520   1.09934   1.10874   1.11813   1.12851
 Alpha virt. eigenvalues --    1.13420   1.14521   1.14817   1.15004   1.15693
 Alpha virt. eigenvalues --    1.15925   1.17554   1.18149   1.18819   1.19230
 Alpha virt. eigenvalues --    1.20412   1.20736   1.21454   1.21820   1.22646
 Alpha virt. eigenvalues --    1.24315   1.25174   1.25987   1.26438   1.27113
 Alpha virt. eigenvalues --    1.27895   1.27976   1.29707   1.30191   1.30670
 Alpha virt. eigenvalues --    1.32296   1.32886   1.33946   1.34031   1.34729
 Alpha virt. eigenvalues --    1.34960   1.36709   1.37266   1.37855   1.38205
 Alpha virt. eigenvalues --    1.39397   1.40658   1.41120   1.41553   1.41759
 Alpha virt. eigenvalues --    1.42592   1.43097   1.43513   1.44282   1.44778
 Alpha virt. eigenvalues --    1.45113   1.45426   1.46532   1.47825   1.48569
 Alpha virt. eigenvalues --    1.49365   1.50962   1.51374   1.52753   1.53951
 Alpha virt. eigenvalues --    1.54485   1.55258   1.56660   1.59471   1.60224
 Alpha virt. eigenvalues --    1.61464   1.62055   1.62526   1.63265   1.64541
 Alpha virt. eigenvalues --    1.65013   1.65471   1.66403   1.66983   1.68387
 Alpha virt. eigenvalues --    1.69271   1.69429   1.70167   1.71397   1.72714
 Alpha virt. eigenvalues --    1.73605   1.74233   1.75019   1.76193   1.77823
 Alpha virt. eigenvalues --    1.78574   1.79704   1.80170   1.81030   1.81588
 Alpha virt. eigenvalues --    1.82175   1.82806   1.83437   1.83946   1.84880
 Alpha virt. eigenvalues --    1.85841   1.86253   1.87306   1.87721   1.88235
 Alpha virt. eigenvalues --    1.89516   1.90325   1.91304   1.91967   1.92981
 Alpha virt. eigenvalues --    1.93699   1.94447   1.95286   1.95805   1.96933
 Alpha virt. eigenvalues --    1.98766   1.99428   2.00332   2.00799   2.01974
 Alpha virt. eigenvalues --    2.03185   2.05007   2.05648   2.06559   2.07784
 Alpha virt. eigenvalues --    2.08185   2.09976   2.10400   2.10677   2.11577
 Alpha virt. eigenvalues --    2.12378   2.12994   2.13948   2.14714   2.15400
 Alpha virt. eigenvalues --    2.15955   2.16578   2.17451   2.17536   2.19647
 Alpha virt. eigenvalues --    2.20051   2.20602   2.20963   2.21329   2.22672
 Alpha virt. eigenvalues --    2.23110   2.23633   2.24419   2.25041   2.25441
 Alpha virt. eigenvalues --    2.26365   2.26819   2.27750   2.28848   2.29312
 Alpha virt. eigenvalues --    2.29904   2.30431   2.31257   2.32177   2.34260
 Alpha virt. eigenvalues --    2.34632   2.35708   2.37351   2.37836   2.38217
 Alpha virt. eigenvalues --    2.39531   2.41191   2.41816   2.43037   2.43879
 Alpha virt. eigenvalues --    2.44214   2.44732   2.45115   2.45963   2.46327
 Alpha virt. eigenvalues --    2.46629   2.47225   2.49106   2.49338   2.50308
 Alpha virt. eigenvalues --    2.50874   2.51292   2.52291   2.52728   2.52958
 Alpha virt. eigenvalues --    2.53830   2.53872   2.55502   2.55917   2.56802
 Alpha virt. eigenvalues --    2.57622   2.58109   2.58398   2.59136   2.59716
 Alpha virt. eigenvalues --    2.60156   2.61284   2.61974   2.63398   2.64267
 Alpha virt. eigenvalues --    2.64677   2.65370   2.65933   2.66504   2.67350
 Alpha virt. eigenvalues --    2.68104   2.68481   2.69589   2.71417   2.71994
 Alpha virt. eigenvalues --    2.72762   2.74065   2.75186   2.75941   2.76919
 Alpha virt. eigenvalues --    2.77181   2.78390   2.79082   2.79724   2.80042
 Alpha virt. eigenvalues --    2.80816   2.81522   2.82072   2.82543   2.84349
 Alpha virt. eigenvalues --    2.84899   2.85323   2.85778   2.86280   2.86732
 Alpha virt. eigenvalues --    2.87547   2.87889   2.88594   2.88793   2.90487
 Alpha virt. eigenvalues --    2.90749   2.91820   2.92028   2.93036   2.93294
 Alpha virt. eigenvalues --    2.94123   2.94735   2.95431   2.96882   2.97337
 Alpha virt. eigenvalues --    2.98258   2.99079   2.99950   3.01080   3.01453
 Alpha virt. eigenvalues --    3.03866   3.05131   3.05717   3.06195   3.07744
 Alpha virt. eigenvalues --    3.09202   3.09803   3.10725   3.11911   3.12962
 Alpha virt. eigenvalues --    3.13881   3.14451   3.15772   3.16256   3.17706
 Alpha virt. eigenvalues --    3.19086   3.19934   3.20828   3.20907   3.22071
 Alpha virt. eigenvalues --    3.22567   3.22817   3.23739   3.24329   3.25551
 Alpha virt. eigenvalues --    3.25917   3.27251   3.27673   3.28413   3.29139
 Alpha virt. eigenvalues --    3.29634   3.30580   3.30937   3.31846   3.32164
 Alpha virt. eigenvalues --    3.33562   3.34676   3.35432   3.36796   3.37188
 Alpha virt. eigenvalues --    3.37524   3.38105   3.39209   3.40454   3.41111
 Alpha virt. eigenvalues --    3.42026   3.42074   3.43037   3.43466   3.45129
 Alpha virt. eigenvalues --    3.46464   3.47380   3.47981   3.48436   3.49201
 Alpha virt. eigenvalues --    3.50239   3.50795   3.53000   3.53214   3.54116
 Alpha virt. eigenvalues --    3.55097   3.55901   3.57516   3.58436   3.59746
 Alpha virt. eigenvalues --    3.60021   3.60757   3.62522   3.64187   3.64421
 Alpha virt. eigenvalues --    3.66667   3.67265   3.67704   3.68543   3.69366
 Alpha virt. eigenvalues --    3.69727   3.71699   3.71976   3.73035   3.74634
 Alpha virt. eigenvalues --    3.75581   3.77581   3.79614   3.81563   3.82416
 Alpha virt. eigenvalues --    3.82643   3.85977   3.86872   3.87588   3.88710
 Alpha virt. eigenvalues --    3.89504   3.89773   3.91078   3.94652   3.95658
 Alpha virt. eigenvalues --    3.95858   3.98492   3.99631   4.01173   4.02135
 Alpha virt. eigenvalues --    4.04538   4.07147   4.07605   4.08108   4.08599
 Alpha virt. eigenvalues --    4.09801   4.10463   4.10564   4.11560   4.13403
 Alpha virt. eigenvalues --    4.14356   4.17059   4.18008   4.19980   4.20657
 Alpha virt. eigenvalues --    4.23813   4.25565   4.26483   4.28142   4.28598
 Alpha virt. eigenvalues --    4.30171   4.30939   4.32885   4.33320   4.34554
 Alpha virt. eigenvalues --    4.35355   4.38173   4.39276   4.39927   4.41636
 Alpha virt. eigenvalues --    4.42910   4.43834   4.45945   4.47606   4.50201
 Alpha virt. eigenvalues --    4.52106   4.52455   4.54510   4.56253   4.57129
 Alpha virt. eigenvalues --    4.57720   4.59927   4.61888   4.63073   4.64497
 Alpha virt. eigenvalues --    4.66488   4.70432   4.73926   4.77134   4.77874
 Alpha virt. eigenvalues --    4.79442   4.81915   4.82511   4.84333   4.87912
 Alpha virt. eigenvalues --    4.95730   4.97568   4.99518   5.02015   5.05360
 Alpha virt. eigenvalues --    5.07593   5.08721   5.10231   5.10814   5.12570
 Alpha virt. eigenvalues --    5.14387   5.15350   5.17498   5.18993   5.19084
 Alpha virt. eigenvalues --    5.19255   5.20086   5.21127   5.21544   5.22121
 Alpha virt. eigenvalues --    5.24876   5.26060   5.27338   5.29066   5.30141
 Alpha virt. eigenvalues --    5.30625   5.31318   5.31913   5.32367   5.32862
 Alpha virt. eigenvalues --    5.34690   5.37543   5.39459   5.42138   5.43407
 Alpha virt. eigenvalues --    5.48307   5.49102   5.49414   5.49535   5.51301
 Alpha virt. eigenvalues --    5.52640   5.53012   5.53659   5.54019   5.55167
 Alpha virt. eigenvalues --    5.55775   5.58541   5.59290   5.59838   5.60564
 Alpha virt. eigenvalues --    5.61897   5.63211   5.64796   5.71250   5.79222
 Alpha virt. eigenvalues --    5.79720   5.82059   5.83934   5.87836   5.92636
 Alpha virt. eigenvalues --    6.00410   6.05032   6.09507   6.12564   6.13736
 Alpha virt. eigenvalues --    6.14048   6.16831   6.17219   6.17941   6.23536
 Alpha virt. eigenvalues --    6.29356   6.32279   6.33070   6.34322   6.37090
 Alpha virt. eigenvalues --    6.38107   6.40431   6.41042   6.42438   6.42508
 Alpha virt. eigenvalues --    6.45180   6.46300   6.48198   6.50216   6.50781
 Alpha virt. eigenvalues --    6.52074   6.52794   6.53519   6.54234   6.55227
 Alpha virt. eigenvalues --    6.55459   6.56750   6.57088   6.59550   6.63150
 Alpha virt. eigenvalues --    6.66530   6.67300   6.76809   6.79505   6.87092
 Alpha virt. eigenvalues --    6.89139   6.91490   6.92620   7.00093   7.01040
 Alpha virt. eigenvalues --    7.03271   7.04749   7.06426   7.08398   7.09917
 Alpha virt. eigenvalues --    7.11456   7.14363   7.16902   7.17947   7.20496
 Alpha virt. eigenvalues --    7.23187   7.24463   7.27253   7.33549   7.35386
 Alpha virt. eigenvalues --    7.45924   7.49962   7.56290   7.61093  22.59063
 Alpha virt. eigenvalues --   22.59748  22.64123  22.72161  22.74610  22.77492
 Alpha virt. eigenvalues --   22.85618  22.97085  23.00841  23.61756  23.68217
 Alpha virt. eigenvalues --   32.62375  32.81190  43.75446  43.76585  43.84628
 Alpha virt. eigenvalues --   43.98452  44.24212  44.29647  44.36238  44.47422
          Condensed to atoms (all electrons):
               1          2          3          4          5          6
     1  C    7.181787   0.430204  -0.012950   0.498935   0.456144  -0.047088
     2  C    0.430204   6.561773  -0.648231  -0.234567  -0.041454   0.008521
     3  C   -0.012950  -0.648231   5.921069   0.499824   0.018626  -0.055100
     4  C    0.498935  -0.234567   0.499824   7.180425  -0.021093   0.429642
     5  H    0.456144  -0.041454   0.018626  -0.021093   0.442775  -0.002505
     6  H   -0.047088   0.008521  -0.055100   0.429642  -0.002505   0.462860
     7  C    0.010935   0.304215   0.663738  -0.524363   0.020176  -0.008082
     8  H    0.015538  -0.029467  -0.030891   0.025483  -0.000101   0.000029
     9  H   -0.022857   0.014607  -0.052204  -0.042383   0.000014   0.000242
    10  C   -0.850256   0.265649  -0.620948  -0.991260  -0.042988   0.035502
    11  H    0.001122  -0.015208   0.008224  -0.000767  -0.006556   0.000101
    12  C   -1.048742  -0.551733  -0.043314  -0.120339  -0.023771  -0.021894
    13  H    0.007222   0.014158  -0.033014   0.001848   0.000165  -0.002997
    14  H   -0.023413   0.365922   0.011975   0.003243   0.001319  -0.000094
    15  H    0.004276   0.003932   0.447520  -0.029856  -0.000017  -0.002920
    16  N   -0.317482  -0.244989   0.120178   0.179982  -0.003532  -0.009117
    17  N   -0.228753   0.026996   0.026901  -0.143628  -0.066392   0.001703
    18  C    0.265412   0.247019  -0.018767  -0.249989  -0.002474   0.031355
    19  C   -0.385457  -0.201732  -0.106937  -0.097915   0.014286   0.004775
    20  O   -0.060543  -0.102020  -0.013303   0.029743  -0.003144  -0.000450
    21  O    0.126242   0.067876   0.006184  -0.127038   0.000879  -0.002587
    22  O    0.007975  -0.035242   0.017781  -0.129139   0.029445   0.001438
    23  O    0.021887   0.011036   0.012394   0.102478  -0.003095  -0.015784
    24  C   -0.006202  -0.009225  -0.011501   0.014209   0.000889  -0.003794
    25  H    0.000580   0.000626  -0.000105  -0.003318  -0.000010   0.000128
    26  H    0.000053  -0.000536   0.000387  -0.000487   0.000004   0.000017
    27  H   -0.000563   0.000141  -0.002622   0.007241  -0.000018   0.002368
    28  C    0.065795   0.002729  -0.002811   0.029738  -0.002593  -0.000604
    29  H    0.007726  -0.007218   0.002175   0.002604   0.000014  -0.000001
    30  H   -0.010312   0.005628  -0.001123  -0.003586   0.000013   0.000001
    31  H    0.004797  -0.003902   0.000376   0.001332   0.000145   0.000000
    32  O    0.023540   0.008094  -0.000360   0.013056  -0.000314  -0.000057
    33  H   -0.009104  -0.000404  -0.000278  -0.005051  -0.000152   0.000016
    34  H   -0.001911   0.000619  -0.000120  -0.000364   0.000010   0.000001
    35  O   -0.015045  -0.059793   0.004880  -0.004473  -0.000066   0.000005
    36  H   -0.000663   0.011623  -0.002329  -0.000902   0.000000   0.000000
    37  H   -0.000361   0.003995  -0.005346  -0.003909   0.000081   0.000004
    38  O    0.027022  -0.005658   0.001374   0.030842   0.004965  -0.000941
    39  H    0.006064   0.000964  -0.000506  -0.002788  -0.000112   0.000079
    40  H    0.061038   0.010630  -0.004983  -0.019320   0.005616   0.000857
    41  O    0.002538   0.001076   0.001735  -0.003074   0.000001  -0.000087
    42  H   -0.003576  -0.001307   0.001381   0.007110  -0.000001   0.000076
    43  H   -0.000415  -0.000146   0.000284   0.001895   0.000000   0.000009
               7          8          9         10         11         12
     1  C    0.010935   0.015538  -0.022857  -0.850256   0.001122  -1.048742
     2  C    0.304215  -0.029467   0.014607   0.265649  -0.015208  -0.551733
     3  C    0.663738  -0.030891  -0.052204  -0.620948   0.008224  -0.043314
     4  C   -0.524363   0.025483  -0.042383  -0.991260  -0.000767  -0.120339
     5  H    0.020176  -0.000101   0.000014  -0.042988  -0.006556  -0.023771
     6  H   -0.008082   0.000029   0.000242   0.035502   0.000101  -0.021894
     7  C    6.824091   0.400884   0.428973  -1.100824   0.018778  -1.268625
     8  H    0.400884   0.505638  -0.012272  -0.019819  -0.000250  -0.016287
     9  H    0.428973  -0.012272   0.451025   0.015943  -0.000008  -0.000593
    10  C   -1.100824  -0.019819   0.015943   7.512090   0.409704   1.720991
    11  H    0.018778  -0.000250  -0.000008   0.409704   0.435838  -0.054015
    12  C   -1.268625  -0.016287  -0.000593   1.720991  -0.054015   7.356925
    13  H   -0.005771   0.000118   0.000054  -0.064844  -0.002999   0.447196
    14  H   -0.047470  -0.001961  -0.001504   0.017799  -0.001485   0.028379
    15  H    0.004059  -0.001885  -0.002853  -0.000644   0.000094  -0.054534
    16  N    0.068036   0.000552  -0.024972  -0.071824   0.000851   0.164536
    17  N   -0.099087  -0.007395   0.008370   0.255637   0.001864   0.035361
    18  C    0.122546  -0.001975   0.004304  -0.237258   0.000101  -0.364698
    19  C    0.285273   0.012006   0.018338  -0.204142  -0.000647  -0.113103
    20  O   -0.049825   0.002994   0.001367   0.039452  -0.000395   0.027787
    21  O    0.087768  -0.000235   0.001062  -0.113796   0.000030  -0.177863
    22  O    0.324933  -0.000852   0.006352  -0.236961   0.001197  -0.167810
    23  O   -0.101444   0.000020  -0.001634   0.125531  -0.000137   0.161940
    24  C   -0.026023   0.000064   0.000147   0.041267   0.000008   0.057487
    25  H    0.000260   0.000000   0.000000   0.000178   0.000000  -0.000987
    26  H   -0.001034   0.000000   0.000000   0.000718   0.000000   0.001342
    27  H    0.000158   0.000000   0.000002   0.001825   0.000000   0.004451
    28  C   -0.097564  -0.001061  -0.000543   0.068826  -0.000089   0.033946
    29  H    0.005255  -0.000001  -0.000140  -0.004298  -0.000004   0.000838
    30  H    0.000473   0.000001   0.000048   0.003147   0.000001  -0.000143
    31  H    0.001405  -0.000001   0.000003  -0.005934   0.000004  -0.000949
    32  O   -0.019153   0.000001  -0.000105   0.008474  -0.000003   0.003725
    33  H    0.001562   0.000000   0.000004  -0.001627   0.000000  -0.001082
    34  H    0.000112   0.000000   0.000006   0.000042   0.000000  -0.000081
    35  O    0.044674   0.004960   0.001579  -0.019762  -0.000068  -0.000601
    36  H   -0.010871   0.000079   0.000219   0.005473  -0.000001   0.001220
    37  H    0.003817  -0.000080   0.002113  -0.007698   0.000003  -0.003916
    38  O   -0.013422  -0.000007  -0.000017   0.012372  -0.000003   0.010055
    39  H   -0.000002   0.000000  -0.000001  -0.000083   0.000000  -0.000334
    40  H   -0.001755  -0.000002   0.000035   0.019387   0.000006   0.006020
    41  O    0.003217   0.000000   0.000003  -0.001583   0.000000  -0.009151
    42  H   -0.001492   0.000000  -0.000003   0.000622   0.000000   0.004329
    43  H   -0.000285   0.000000   0.000000   0.000102   0.000000   0.000702
              13         14         15         16         17         18
     1  C    0.007222  -0.023413   0.004276  -0.317482  -0.228753   0.265412
     2  C    0.014158   0.365922   0.003932  -0.244989   0.026996   0.247019
     3  C   -0.033014   0.011975   0.447520   0.120178   0.026901  -0.018767
     4  C    0.001848   0.003243  -0.029856   0.179982  -0.143628  -0.249989
     5  H    0.000165   0.001319  -0.000017  -0.003532  -0.066392  -0.002474
     6  H   -0.002997  -0.000094  -0.002920  -0.009117   0.001703   0.031355
     7  C   -0.005771  -0.047470   0.004059   0.068036  -0.099087   0.122546
     8  H    0.000118  -0.001961  -0.001885   0.000552  -0.007395  -0.001975
     9  H    0.000054  -0.001504  -0.002853  -0.024972   0.008370   0.004304
    10  C   -0.064844   0.017799  -0.000644  -0.071824   0.255637  -0.237258
    11  H   -0.002999  -0.001485   0.000094   0.000851   0.001864   0.000101
    12  C    0.447196   0.028379  -0.054534   0.164536   0.035361  -0.364698
    13  H    0.460724   0.000042  -0.003344  -0.000810  -0.000999   0.001633
    14  H    0.000042   0.428751  -0.000027   0.004129   0.003494  -0.001890
    15  H   -0.003344  -0.000027   0.459558  -0.002318   0.001835  -0.001890
    16  N   -0.000810   0.004129  -0.002318   8.714291  -0.206312  -0.367553
    17  N   -0.000999   0.003494   0.001835  -0.206312  10.270594  -0.181442
    18  C    0.001633  -0.001890  -0.001890  -0.367553  -0.181442   6.258355
    19  C    0.000079   0.015216  -0.001949  -0.011089  -0.752928  -0.457090
    20  O    0.000061  -0.005502  -0.000215  -0.132050  -0.174492  -0.135180
    21  O   -0.000111  -0.000102   0.002563  -0.732790   0.120458   0.949110
    22  O    0.000027  -0.008712   0.000260   0.007063  -1.440895   0.006801
    23  O    0.000016   0.000242   0.000068   0.111704  -0.334656  -0.000601
    24  C   -0.000105  -0.000117   0.000524   0.009892   0.016981  -0.300012
    25  H    0.000000   0.000000   0.000001  -0.003826   0.001727   0.036298
    26  H    0.000000   0.000000  -0.000003   0.015327  -0.001393  -0.033121
    27  H    0.000001   0.000000  -0.000003   0.005046  -0.009649  -0.002379
    28  C    0.000036  -0.002458  -0.000083   0.016214   0.256907  -0.018875
    29  H    0.000000  -0.000048   0.000000  -0.002126   0.002361  -0.002066
    30  H    0.000000  -0.000190   0.000000  -0.003698  -0.010583  -0.000346
    31  H    0.000000  -0.000083   0.000000   0.001658  -0.017419   0.000357
    32  O    0.000000   0.000154  -0.000002  -0.012686   0.216410  -0.003210
    33  H    0.000000  -0.000008   0.000000   0.003089   0.028907   0.009869
    34  H    0.000000  -0.000003   0.000000  -0.001089   0.013622  -0.001588
    35  O    0.000011  -0.012419  -0.000031  -0.012560   0.003441  -0.007238
    36  H    0.000000   0.000575  -0.000001   0.000217  -0.000346   0.000365
    37  H    0.000000   0.000045   0.000004   0.011235  -0.022224   0.007177
    38  O    0.000009  -0.000056  -0.000022  -0.022282  -0.078180  -0.086687
    39  H    0.000000  -0.000001   0.000000  -0.003472  -0.015520   0.001437
    40  H    0.000001  -0.000077  -0.000003  -0.034729  -0.120228   0.004516
    41  O   -0.000001   0.000000  -0.000002  -0.006764   0.000854   0.009799
    42  H    0.000001   0.000000  -0.000028   0.019479  -0.004790   0.009889
    43  H    0.000000   0.000000  -0.000003   0.004901  -0.000554  -0.007196
              19         20         21         22         23         24
     1  C   -0.385457  -0.060543   0.126242   0.007975   0.021887  -0.006202
     2  C   -0.201732  -0.102020   0.067876  -0.035242   0.011036  -0.009225
     3  C   -0.106937  -0.013303   0.006184   0.017781   0.012394  -0.011501
     4  C   -0.097915   0.029743  -0.127038  -0.129139   0.102478   0.014209
     5  H    0.014286  -0.003144   0.000879   0.029445  -0.003095   0.000889
     6  H    0.004775  -0.000450  -0.002587   0.001438  -0.015784  -0.003794
     7  C    0.285273  -0.049825   0.087768   0.324933  -0.101444  -0.026023
     8  H    0.012006   0.002994  -0.000235  -0.000852   0.000020   0.000064
     9  H    0.018338   0.001367   0.001062   0.006352  -0.001634   0.000147
    10  C   -0.204142   0.039452  -0.113796  -0.236961   0.125531   0.041267
    11  H   -0.000647  -0.000395   0.000030   0.001197  -0.000137   0.000008
    12  C   -0.113103   0.027787  -0.177863  -0.167810   0.161940   0.057487
    13  H    0.000079   0.000061  -0.000111   0.000027   0.000016  -0.000105
    14  H    0.015216  -0.005502  -0.000102  -0.008712   0.000242  -0.000117
    15  H   -0.001949  -0.000215   0.002563   0.000260   0.000068   0.000524
    16  N   -0.011089  -0.132050  -0.732790   0.007063   0.111704   0.009892
    17  N   -0.752928  -0.174492   0.120458  -1.440895  -0.334656   0.016981
    18  C   -0.457090  -0.135180   0.949110   0.006801  -0.000601  -0.300012
    19  C    7.189801   0.904697  -0.100477   0.738241  -0.221654   0.011031
    20  O    0.904697   8.363801  -0.038336  -0.199594  -0.016829   0.007250
    21  O   -0.100477  -0.038336   8.683258   0.035360  -0.320820   0.020009
    22  O    0.738241  -0.199594   0.035360   9.397644  -0.150303   0.003420
    23  O   -0.221654  -0.016829  -0.320820  -0.150303   8.840425   0.154174
    24  C    0.011031   0.007250   0.020009   0.003420   0.154174   5.047476
    25  H   -0.001058   0.000007   0.006681  -0.000047  -0.071896   0.400545
    26  H    0.000651   0.000097  -0.019237   0.000017  -0.024538   0.436280
    27  H   -0.000703  -0.000076  -0.016644  -0.000187  -0.034198   0.414453
    28  C   -0.498345  -0.081570  -0.003136   0.048547   0.014758  -0.000487
    29  H   -0.024368  -0.005673  -0.000004  -0.011030   0.000033   0.000004
    30  H    0.004592  -0.006632  -0.000032  -0.015714  -0.000115   0.000110
    31  H    0.027341   0.006796   0.000018  -0.054533  -0.000163  -0.000010
    32  O   -0.096869  -0.002223   0.000447  -0.134842   0.005901   0.000135
    33  H    0.024598   0.000507   0.000035  -0.008900  -0.004691  -0.003427
    34  H    0.005721  -0.003444   0.000007  -0.004622  -0.001732  -0.000244
    35  O    0.003162  -0.017484  -0.000364   0.013287  -0.000086   0.000116
    36  H   -0.004343  -0.000056  -0.000007  -0.001253   0.000004   0.000002
    37  H    0.022185  -0.006895   0.000319   0.015232  -0.000158  -0.000080
    38  O   -0.034840   0.007377  -0.003174  -0.030859   0.021174   0.019953
    39  H    0.001885  -0.000762   0.000851   0.001546   0.011861   0.003018
    40  H   -0.039582  -0.006720  -0.000129   0.037061   0.047690   0.001526
    41  O   -0.001125  -0.000038  -0.028776  -0.000015   0.006161   0.004520
    42  H    0.001594  -0.000010  -0.002803  -0.000020  -0.001222  -0.012569
    43  H    0.000146  -0.000001   0.002223  -0.000001  -0.000210  -0.000340
              25         26         27         28         29         30
     1  C    0.000580   0.000053  -0.000563   0.065795   0.007726  -0.010312
     2  C    0.000626  -0.000536   0.000141   0.002729  -0.007218   0.005628
     3  C   -0.000105   0.000387  -0.002622  -0.002811   0.002175  -0.001123
     4  C   -0.003318  -0.000487   0.007241   0.029738   0.002604  -0.003586
     5  H   -0.000010   0.000004  -0.000018  -0.002593   0.000014   0.000013
     6  H    0.000128   0.000017   0.002368  -0.000604  -0.000001   0.000001
     7  C    0.000260  -0.001034   0.000158  -0.097564   0.005255   0.000473
     8  H    0.000000   0.000000   0.000000  -0.001061  -0.000001   0.000001
     9  H    0.000000   0.000000   0.000002  -0.000543  -0.000140   0.000048
    10  C    0.000178   0.000718   0.001825   0.068826  -0.004298   0.003147
    11  H    0.000000   0.000000   0.000000  -0.000089  -0.000004   0.000001
    12  C   -0.000987   0.001342   0.004451   0.033946   0.000838  -0.000143
    13  H    0.000000   0.000000   0.000001   0.000036   0.000000   0.000000
    14  H    0.000000   0.000000   0.000000  -0.002458  -0.000048  -0.000190
    15  H    0.000001  -0.000003  -0.000003  -0.000083   0.000000   0.000000
    16  N   -0.003826   0.015327   0.005046   0.016214  -0.002126  -0.003698
    17  N    0.001727  -0.001393  -0.009649   0.256907   0.002361  -0.010583
    18  C    0.036298  -0.033121  -0.002379  -0.018875  -0.002066  -0.000346
    19  C   -0.001058   0.000651  -0.000703  -0.498345  -0.024368   0.004592
    20  O    0.000007   0.000097  -0.000076  -0.081570  -0.005673  -0.006632
    21  O    0.006681  -0.019237  -0.016644  -0.003136  -0.000004  -0.000032
    22  O   -0.000047   0.000017  -0.000187   0.048547  -0.011030  -0.015714
    23  O   -0.071896  -0.024538  -0.034198   0.014758   0.000033  -0.000115
    24  C    0.400545   0.436280   0.414453  -0.000487   0.000004   0.000110
    25  H    0.508043  -0.016603  -0.018512   0.000073   0.000000   0.000000
    26  H   -0.016603   0.481265  -0.027837  -0.000044   0.000000   0.000000
    27  H   -0.018512  -0.027837   0.504020   0.000001   0.000000   0.000000
    28  C    0.000073  -0.000044   0.000001   5.126510   0.409311   0.416162
    29  H    0.000000   0.000000   0.000000   0.409311   0.504185  -0.028492
    30  H    0.000000   0.000000   0.000000   0.416162  -0.028492   0.472690
    31  H    0.000000   0.000000   0.000000   0.410235  -0.020900  -0.014147
    32  O   -0.000053  -0.000053  -0.000003   0.008341  -0.000085  -0.006613
    33  H   -0.000003   0.000015   0.000002  -0.003310  -0.000082   0.000050
    34  H   -0.000001   0.000002   0.000000   0.001225  -0.000023   0.000433
    35  O    0.000000   0.000000   0.000000   0.012626   0.002075  -0.000608
    36  H    0.000000   0.000000   0.000000  -0.000170  -0.000090   0.000002
    37  H    0.000000   0.000000   0.000000  -0.009607  -0.004685  -0.000395
    38  O   -0.001064  -0.000250  -0.000239   0.016871  -0.000073   0.000599
    39  H    0.000442   0.000083   0.000037  -0.001270   0.000000  -0.000009
    40  H   -0.000242   0.000344   0.000226  -0.002640   0.000000   0.000193
    41  O    0.000507  -0.003911  -0.007402  -0.000006   0.000000   0.000000
    42  H    0.000262  -0.000116   0.001682   0.000025   0.000000   0.000000
    43  H   -0.000013   0.000336   0.000566   0.000002   0.000000   0.000000
              31         32         33         34         35         36
     1  C    0.004797   0.023540  -0.009104  -0.001911  -0.015045  -0.000663
     2  C   -0.003902   0.008094  -0.000404   0.000619  -0.059793   0.011623
     3  C    0.000376  -0.000360  -0.000278  -0.000120   0.004880  -0.002329
     4  C    0.001332   0.013056  -0.005051  -0.000364  -0.004473  -0.000902
     5  H    0.000145  -0.000314  -0.000152   0.000010  -0.000066   0.000000
     6  H    0.000000  -0.000057   0.000016   0.000001   0.000005   0.000000
     7  C    0.001405  -0.019153   0.001562   0.000112   0.044674  -0.010871
     8  H   -0.000001   0.000001   0.000000   0.000000   0.004960   0.000079
     9  H    0.000003  -0.000105   0.000004   0.000006   0.001579   0.000219
    10  C   -0.005934   0.008474  -0.001627   0.000042  -0.019762   0.005473
    11  H    0.000004  -0.000003   0.000000   0.000000  -0.000068  -0.000001
    12  C   -0.000949   0.003725  -0.001082  -0.000081  -0.000601   0.001220
    13  H    0.000000   0.000000   0.000000   0.000000   0.000011   0.000000
    14  H   -0.000083   0.000154  -0.000008  -0.000003  -0.012419   0.000575
    15  H    0.000000  -0.000002   0.000000   0.000000  -0.000031  -0.000001
    16  N    0.001658  -0.012686   0.003089  -0.001089  -0.012560   0.000217
    17  N   -0.017419   0.216410   0.028907   0.013622   0.003441  -0.000346
    18  C    0.000357  -0.003210   0.009869  -0.001588  -0.007238   0.000365
    19  C    0.027341  -0.096869   0.024598   0.005721   0.003162  -0.004343
    20  O    0.006796  -0.002223   0.000507  -0.003444  -0.017484  -0.000056
    21  O    0.000018   0.000447   0.000035   0.000007  -0.000364  -0.000007
    22  O   -0.054533  -0.134842  -0.008900  -0.004622   0.013287  -0.001253
    23  O   -0.000163   0.005901  -0.004691  -0.001732  -0.000086   0.000004
    24  C   -0.000010   0.000135  -0.003427  -0.000244   0.000116   0.000002
    25  H    0.000000  -0.000053  -0.000003  -0.000001   0.000000   0.000000
    26  H    0.000000  -0.000053   0.000015   0.000002   0.000000   0.000000
    27  H    0.000000  -0.000003   0.000002   0.000000   0.000000   0.000000
    28  C    0.410235   0.008341  -0.003310   0.001225   0.012626  -0.000170
    29  H   -0.020900  -0.000085  -0.000082  -0.000023   0.002075  -0.000090
    30  H   -0.014147  -0.006613   0.000050   0.000433  -0.000608   0.000002
    31  H    0.497215  -0.001541   0.000145   0.000026   0.000152  -0.000004
    32  O   -0.001541   8.046486   0.319111   0.330137   0.000089   0.000021
    33  H    0.000145   0.319111   0.341764  -0.030190  -0.000004   0.000000
    34  H    0.000026   0.330137  -0.030190   0.340563   0.000010   0.000000
    35  O    0.000152   0.000089  -0.000004   0.000010   8.143392   0.315698
    36  H   -0.000004   0.000021   0.000000   0.000000   0.315698   0.345169
    37  H    0.000136  -0.000281   0.000010   0.000016   0.301841  -0.011259
    38  O   -0.000078   0.014319  -0.050100  -0.004549  -0.000039   0.000001
    39  H   -0.000002  -0.002026  -0.000308   0.000033   0.000000   0.000000
    40  H    0.000097  -0.004704  -0.005349   0.000195   0.000005   0.000000
    41  O    0.000000   0.000007  -0.000001   0.000000   0.000000   0.000000
    42  H    0.000000  -0.000002   0.000000   0.000000   0.000000   0.000000
    43  H    0.000000   0.000000   0.000000   0.000000   0.000000   0.000000
              37         38         39         40         41         42
     1  C   -0.000361   0.027022   0.006064   0.061038   0.002538  -0.003576
     2  C    0.003995  -0.005658   0.000964   0.010630   0.001076  -0.001307
     3  C   -0.005346   0.001374  -0.000506  -0.004983   0.001735   0.001381
     4  C   -0.003909   0.030842  -0.002788  -0.019320  -0.003074   0.007110
     5  H    0.000081   0.004965  -0.000112   0.005616   0.000001  -0.000001
     6  H    0.000004  -0.000941   0.000079   0.000857  -0.000087   0.000076
     7  C    0.003817  -0.013422  -0.000002  -0.001755   0.003217  -0.001492
     8  H   -0.000080  -0.000007   0.000000  -0.000002   0.000000   0.000000
     9  H    0.002113  -0.000017  -0.000001   0.000035   0.000003  -0.000003
    10  C   -0.007698   0.012372  -0.000083   0.019387  -0.001583   0.000622
    11  H    0.000003  -0.000003   0.000000   0.000006   0.000000   0.000000
    12  C   -0.003916   0.010055  -0.000334   0.006020  -0.009151   0.004329
    13  H    0.000000   0.000009   0.000000   0.000001  -0.000001   0.000001
    14  H    0.000045  -0.000056  -0.000001  -0.000077   0.000000   0.000000
    15  H    0.000004  -0.000022   0.000000  -0.000003  -0.000002  -0.000028
    16  N    0.011235  -0.022282  -0.003472  -0.034729  -0.006764   0.019479
    17  N   -0.022224  -0.078180  -0.015520  -0.120228   0.000854  -0.004790
    18  C    0.007177  -0.086687   0.001437   0.004516   0.009799   0.009889
    19  C    0.022185  -0.034840   0.001885  -0.039582  -0.001125   0.001594
    20  O   -0.006895   0.007377  -0.000762  -0.006720  -0.000038  -0.000010
    21  O    0.000319  -0.003174   0.000851  -0.000129  -0.028776  -0.002803
    22  O    0.015232  -0.030859   0.001546   0.037061  -0.000015  -0.000020
    23  O   -0.000158   0.021174   0.011861   0.047690   0.006161  -0.001222
    24  C   -0.000080   0.019953   0.003018   0.001526   0.004520  -0.012569
    25  H    0.000000  -0.001064   0.000442  -0.000242   0.000507   0.000262
    26  H    0.000000  -0.000250   0.000083   0.000344  -0.003911  -0.000116
    27  H    0.000000  -0.000239   0.000037   0.000226  -0.007402   0.001682
    28  C   -0.009607   0.016871  -0.001270  -0.002640  -0.000006   0.000025
    29  H   -0.004685  -0.000073   0.000000   0.000000   0.000000   0.000000
    30  H   -0.000395   0.000599  -0.000009   0.000193   0.000000   0.000000
    31  H    0.000136  -0.000078  -0.000002   0.000097   0.000000   0.000000
    32  O   -0.000281   0.014319  -0.002026  -0.004704   0.000007  -0.000002
    33  H    0.000010  -0.050100  -0.000308  -0.005349  -0.000001   0.000000
    34  H    0.000016  -0.004549   0.000033   0.000195   0.000000   0.000000
    35  O    0.301841  -0.000039   0.000000   0.000005   0.000000   0.000000
    36  H   -0.011259   0.000001   0.000000   0.000000   0.000000   0.000000
    37  H    0.389579  -0.000007   0.000000   0.000013   0.000000   0.000000
    38  O   -0.000007   8.230955   0.305231   0.284488   0.000048  -0.000013
    39  H    0.000000   0.305231   0.345842  -0.006704   0.000000   0.000001
    40  H    0.000013   0.284488  -0.006704   0.425892  -0.000016   0.000003
    41  O    0.000000   0.000048   0.000000  -0.000016   8.144986   0.286580
    42  H    0.000000  -0.000013   0.000001   0.000003   0.286580   0.378619
    43  H    0.000000   0.000001   0.000000   0.000000   0.290355  -0.010385
              43
     1  C   -0.000415
     2  C   -0.000146
     3  C    0.000284
     4  C    0.001895
     5  H    0.000000
     6  H    0.000009
     7  C   -0.000285
     8  H    0.000000
     9  H    0.000000
    10  C    0.000102
    11  H    0.000000
    12  C    0.000702
    13  H    0.000000
    14  H    0.000000
    15  H   -0.000003
    16  N    0.004901
    17  N   -0.000554
    18  C   -0.007196
    19  C    0.000146
    20  O   -0.000001
    21  O    0.002223
    22  O   -0.000001
    23  O   -0.000210
    24  C   -0.000340
    25  H   -0.000013
    26  H    0.000336
    27  H    0.000566
    28  C    0.000002
    29  H    0.000000
    30  H    0.000000
    31  H    0.000000
    32  O    0.000000
    33  H    0.000000
    34  H    0.000000
    35  O    0.000000
    36  H    0.000000
    37  H    0.000000
    38  O    0.000001
    39  H    0.000000
    40  H    0.000000
    41  O    0.290355
    42  H   -0.010385
    43  H    0.379556
 Mulliken charges:
               1
     1  C   -0.181139
     2  C   -0.175204
     3  C   -0.099263
     4  C   -0.300020
     5  H    0.224822
     6  H    0.194370
     7  C   -0.248242
     8  H    0.156176
     9  H    0.207280
    10  C    0.035818
    11  H    0.204705
[...]
 8,0.00036395,-0.00005469,0.00010289,-0.00001141,0.00026348,-0.00119660
 ,0.00033182,-0.00090874,-0.00025303,0.00066941,0.00021192,0.00000255,-
 0.00001375,-0.00002899,0.00007682,-0.00011882,0.00011356,-0.00005750,-
 0.00007942,0.00000487,0.00002227,0.00000876,0.00001169,-0.00001566,0.0
 0000180,0.00002018,0.00000387,-0.00000299,0.00000832,0.00000337,-0.000
 00515,-0.00046974,-0.00101139,-0.00097575,0.00193986,0.00168442,0.0010
 5359,0.00038756,0.00004041,-0.00043178,-0.00003353,-0.00001913,0.00000
 590,0.00000955,0.00000666,0.00000042,0.00002484,0.00001657,-0.00000725
 ,-0.00584594,0.01255968,-0.01007294,-0.01495657,-0.01974375,0.01095777
 ,0.00014545,-0.00002207,0.00000011,-0.00000624,-0.00000116,-0.00007967
 ,-0.00009680,0.00001697,-0.00010956,0.00000189,0.00061855,0.00020300,0
 .00020887,-0.00038631,-0.00028082,-0.00008966,0.00007186,-0.00005725,0
 .00001221,-0.00002613,0.00001998,-0.00001753,0.00001972,-0.00000730,0.
 00003488,-0.00002360,0.00000962,0.00027602,-0.00026060,0.00000352,-0.0
 0000905,-0.00002436,-0.00003020,-0.00054323,-0.00028421,0.00007531,0.0
 0002390,0.00008907,-0.00006032,-0.00005969,-0.00006883,-0.00003610,0.0
 0001660,0.00004030,-0.00002807,-0.00029938,0.00073266,-0.00202500,-0.0
 0546811,0.00212288,-0.00023598,0.00339576,0.00340641,-0.00522359,0.000
 53643,-0.00327474,0.00514664,-0.00023868,0.00022793,-0.00129296,-0.000
 08572,-0.00089898,0.00183125,-0.00020396,0.00058101,-0.00128508,-0.000
 49959,-0.00209386,0.00247792,-0.00161288,-0.00058885,0.00083897,-0.000
 11989,0.00002200,0.00001802,0.00025141,0.00003550,0.00003377,0.0004125
 8,-0.00006682,-0.00001873,-0.00111663,0.00059369,-0.00015481,0.0002715
 6,-0.00005780,-0.00008710,0.00009804,-0.00005769,-0.00004873,0.0000186
 9,-0.00001340,0.00004182,-0.00055398,-0.00112333,0.00045307,0.00084215
 ,0.00294856,-0.00110379,0.00011581,0.00014859,0.00021117,0.00011163,0.
 00014473,-0.00011967,-0.00000945,-0.00001142,0.00001984,-0.00013602,-0
 .00015038,0.00013626,-0.05048098,0.04525702,-0.02290506,-0.00296612,-0
 .04403753,0.01908317,0.05788241,0.00095042,0.00008533,0.00057023,-0.00
 024912,-0.00038345,-0.00019983,-0.00014137,-0.00008443,-0.00019078,-0.
 00040159,0.00140586,0.00049749,-0.00021437,-0.00043073,-0.00065457,0.0
 0000828,-0.00018342,-0.00031558,0.00015103,0.00002451,-0.00002880,-0.0
 0000892,0.00009666,-0.00003684,-0.00001947,-0.00011691,0.00004282,0.00
 090279,-0.00067347,0.00038402,-0.00002765,0.00002904,-0.00012546,-0.00
 129989,-0.00085915,0.00014614,0.00005972,0.00022167,-0.00015793,-0.000
 02661,0.00002359,-0.00015856,0.00004216,0.00002568,-0.00011288,0.00229
 725,0.00088742,-0.00232322,0.00110116,0.00015712,-0.00378369,0.0026453
 6,0.00063417,0.00051661,-0.00677998,0.00496486,0.00006108,0.00265002,-
 0.00148411,-0.00248239,-0.00129978,-0.00003383,-0.00015072,0.00182060,
 -0.00185416,0.00136706,-0.00031311,-0.00266034,0.00155993,0.00058333,0
 .00050199,-0.00069009,-0.00016912,0.00007369,0.00020199,-0.00030337,-0
 .00001194,-0.00003412,-0.00017092,-0.00010161,0.00007510,-0.00067541,0
 .00040173,-0.00000844,0.00011567,-0.00009948,-0.00005067,0.00027171,0.
 00003037,-0.00011894,0.00014961,0.00000711,0.00005203,-0.00209275,0.00
 112953,0.00232464,0.00382951,-0.00446173,-0.00303715,0.00022361,0.0000
 9124,-0.00077821,0.00034501,0.00005747,-0.00015767,-0.00004473,0.00000
 791,0.00002447,-0.00033008,-0.00012668,0.00015763,-0.00452657,-0.38562
 545,0.16808977,0.00444793,-0.01252226,0.00652356,-0.00362508,0.4008720
 1,-0.00258725,-0.00394981,-0.00117649,-0.00022239,0.00034078,0.0001027
 1,0.00002534,-0.00007121,0.00028370,0.00100451,-0.00216397,-0.00110063
 ,-0.00031522,-0.00045089,0.00049134,0.00011030,0.00017935,0.00050628,-
 0.00006657,0.00014526,0.00002844,-0.00000517,-0.00004938,-0.00000325,-
 0.00002894,0.00006141,0.00000677,-0.00122218,0.00176696,-0.00059074,-0
 .00003662,-0.00009362,0.00017745,0.00233946,0.00129913,0.00010680,-0.0
 0007716,-0.00030822,0.00024934,0.00001172,-0.00006223,0.00024936,-0.00
 004518,0.00000703,0.00014542,-0.00450715,0.00270185,-0.00107868,0.0029
 0570,-0.00445367,0.00047069,-0.00108858,-0.00046995,-0.00108760,0.0045
 7419,-0.00111494,-0.00022090,-0.00147732,0.00075263,0.00104852,0.00035
 848,0.00030921,-0.00027899,-0.00108104,0.00077896,-0.00105700,0.000291
 42,0.00086583,-0.00186565,-0.00035370,-0.00053700,0.00055512,0.0002067
 1,0.00006369,-0.00013133,0.00009079,0.00003063,-0.00003339,0.00020344,
 0.00004549,-0.00006823,0.00045679,-0.00022313,-0.00002452,-0.00006472,
 0.00002756,0.00001098,-0.00003820,0.00000414,0.00002502,-0.00014086,0.
 00000909,-0.00003034,0.00055545,0.00129483,-0.00154156,-0.00056384,-0.
 00299216,0.00302989,0.00011435,-0.00050634,-0.00050285,-0.00026395,-0.
 00006214,0.00011428,0.00003463,0.00000521,-0.00001598,0.00023490,0.000
 09802,-0.00011821,-0.00152419,0.17333613,-0.08961991,-0.00236840,0.000
 39402,-0.00000463,0.00461643,-0.16702139,0.09296017,-0.00170253,-0.002
 66554,-0.00153490,0.00016252,0.00061260,0.00017076,0.00010139,-0.00000
 920,0.00018066,0.00051592,-0.00085617,-0.00019083,-0.00001802,0.000103
 23,0.00016077,0.00002105,0.00014039,0.00031496,-0.00006942,-0.00001891
 ,0.00003086,-0.00001459,-0.00004820,0.00002322,0.00003611,0.00001725,0
 .00000705,-0.00046293,0.00099522,-0.00068044,-0.00004839,-0.00010013,0
 .00011460,0.00091438,0.00064677,0.00008413,-0.00001647,-0.00011247,0.0
 0009638,-0.00001175,-0.00006332,0.00009963,0.00000731,0.00008258,0.000
 08516,-0.00523280,0.00111786,-0.00239924,0.00154038,0.00073464,0.00257
 016,0.00740510,-0.00369130,0.00867381,0.00033345,-0.00055023,-0.000055
 12,-0.00034954,0.00011440,0.00013592,-0.01707666,0.00524177,-0.0082586
 0,-0.00040569,0.00023420,-0.00004131,-0.00046934,0.00137301,-0.0026609
 8,-0.00071024,-0.00012612,0.00015798,-0.00017052,0.00012159,-0.0002127
 9,0.00005380,-0.00027369,0.00015013,-0.00008949,0.00031489,0.00032084,
 0.00022863,-0.00007859,-0.00003065,-0.00001088,-0.00000105,0.00000596,
 -0.00001744,0.00001120,0.00001293,-0.00002140,0.00000491,-0.00001325,-
 0.00004559,0.00015480,0.00004815,0.00005621,-0.00010135,-0.00003715,0.
 00001531,-0.00007423,-0.00003547,-0.00017352,-0.00002230,0.00008671,0.
 00003520,0.00000855,-0.00001102,0.00011736,0.00002331,-0.00006976,-0.0
 0011140,0.00027689,-0.00011244,0.00001311,-0.00016322,0.00008226,0.000
 14383,-0.00021617,0.00011243,0.55731186,0.00048686,0.00076032,0.000459
 69,-0.00011290,-0.00014505,-0.00006606,0.00004923,-0.00004462,-0.00001
 693,-0.00016306,0.00038421,0.00013271,-0.00002448,-0.00003715,-0.00005
 042,0.00003497,-0.00012667,-0.00002329,0.00004043,0.00001651,-0.000093
 79,0.00000498,0.00000858,-0.00000104,0.00001567,-0.00002173,0.00000007
 ,0.00022986,-0.00036993,0.00019408,0.00000166,0.00003862,-0.00003863,-
 0.00042511,-0.00026674,-0.00001102,0.00003498,0.00005531,-0.00001468,-
 0.00000316,0.00001948,-0.00004573,0.00007990,0.00007261,-0.00004857,0.
 00141698,-0.00035642,0.00047472,-0.00066814,-0.00016315,-0.00084503,-0
 .00170908,0.00023719,-0.00034068,0.00024356,0.00003260,-0.00005645,-0.
 00000580,0.00003016,0.00004208,0.00288330,0.00211313,0.00124567,-0.000
 04604,0.00001946,-0.00005196,0.00086693,0.00039736,-0.00032389,-0.0006
 1648,-0.00099584,0.00002003,0.00016526,0.00012468,0.00017326,0.0002725
 5,0.00031871,0.00008918,0.00009097,-0.00021996,0.00002407,0.,-0.000018
 77,0.00000082,-0.00000241,0.00000500,-0.00000078,-0.00000771,-0.000002
 14,0.00000329,-0.00000322,-0.00000269,-0.00000069,0.00008157,0.0000548
 9,0.00000786,-0.00004481,-0.00002600,-0.00000821,-0.00005663,-0.000031
 91,0.00000069,-0.00001382,0.00004596,-0.00001321,0.00000920,-0.0000199
 4,0.00000107,0.00000061,-0.00003173,0.00000869,0.00009157,0.00008061,0
 .00002418,-0.00004993,-0.00000479,-0.00005982,-0.00008312,-0.00009089,
 0.00004115,-0.09162146,0.03470859,-0.00028254,-0.00044219,-0.00021009,
 0.00001548,0.00014779,0.00001445,-0.00000807,0.00002929,0.00001792,0.0
 0013333,-0.00010564,-0.00003478,0.00000417,0.00001782,0.00002884,0.000
 05185,0.00001879,0.00007658,-0.00001448,-0.00003684,0.00000086,-0.0000
 1753,-0.00001699,0.00000548,-0.00000305,0.00002171,-0.00001090,-0.0000
 3276,0.00012589,-0.00009475,-0.00000216,-0.00000975,0.00001861,0.00010
 675,0.00007677,0.00000840,0.00001563,0.00000361,0.00001392,-0.00000360
 ,-0.00001642,0.00001745,0.00001688,0.00001484,-0.00002330,-0.00100661,
 -0.00001250,-0.00029460,0.00014624,0.00007929,0.00044769,0.00212541,0.
 00010823,0.00008713,0.00024034,-0.00012485,-0.00016685,-0.00015142,0.0
 0003248,0.00017156,-0.00338525,0.00067999,0.00217696,-0.00012527,0.000
 05037,0.00002999,-0.00127100,-0.00015498,0.00069604,0.00096893,-0.0001
 3100,-0.00105316,-0.00035318,0.00024828,-0.00015973,-0.00006467,-0.000
 54777,0.00005893,-0.00013726,0.00084379,0.00035239,0.00006829,-0.00002
 638,-0.00001432,-0.00000628,-0.00000035,-0.00000156,-0.00000506,0.0000
 0593,0.00000122,-0.00000471,0.00000098,-0.00000138,-0.00002771,0.00005
 247,0.00007540,0.00004914,-0.00004918,-0.00006572,-0.00000190,-0.00002
 029,-0.00003992,-0.00003192,-0.00001404,0.00005179,-0.00000446,0.00000
 162,-0.00001118,0.00003503,0.00001788,-0.00003965,-0.00010847,0.000104
 84,0.00003922,0.00004720,-0.00008912,-0.00000232,0.00010461,-0.0000428
 0,-0.00000630,0.10166930,-0.09836853,0.53825934,0.00277125,0.00431106,
 0.00252487,-0.00029056,-0.00094376,-0.00027532,-0.00012735,-0.00000317
 ,-0.00027800,-0.00079954,0.00145607,0.00035971,0.00002234,-0.00015950,
 -0.00025220,0.00001842,-0.00025017,-0.00047138,0.00012108,0.00003789,-
 0.00009021,0.00001910,0.00007010,-0.00003103,-0.00003797,-0.00003285,-
 0.00001060,0.00081427,-0.00166819,0.00108663,0.00007741,0.00017565,-0.
 00019006,-0.00158362,-0.00110363,-0.00013481,0.00004398,0.00020049,-0.
 00015406,0.00001873,0.00010689,-0.00016637,0.00003428,-0.00005722,-0.0
 0014338,0.00858090,-0.00175959,0.00383490,-0.00258790,-0.00116674,-0.0
 0411311,-0.01396567,0.00657956,-0.01503417,-0.00030156,0.00079582,0.00
 012450,0.00046593,-0.00016611,-0.00019595,0.00768290,-0.00560349,0.010
 42533,0.00050394,-0.00032281,-0.00000101,-0.00064456,-0.00283772,0.005
 49666,0.00192940,0.00071612,-0.00123950,-0.00001047,-0.00011976,0.0001
 7580,0.00008742,-0.00014129,-0.00008931,0.00016887,0.00015402,-0.00007
 471,-0.00028934,0.00009895,0.00004558,0.00001163,0.00000214,-0.0000051
 3,0.00002510,-0.00001538,-0.00001758,0.00002947,-0.00000560,0.00001512
 ,0.00003280,-0.00020441,-0.00007043,-0.00005710,0.00013153,0.00005405,
 -0.00000217,0.00009978,0.00005032,0.00021320,0.00003030,-0.00013280,-0
 .00003416,-0.00001326,0.00001790,-0.00014721,-0.00002851,0.00010266,0.
 00012292,-0.00038090,0.00013960,0.00000976,0.00021194,-0.00009898,-0.0
 0017367,0.00031120,-0.00014647,-0.47519635,0.06707805,-0.01991096,0.48
 225630,-0.00049323,-0.00080589,-0.00048735,0.00011123,0.00016538,0.000
 06981,-0.00003240,0.00002963,0.00002919,0.00015965,-0.00036857,-0.0001
 1609,0.00002002,0.00003615,0.00005337,-0.00004307,0.00011940,0.0000180
 2,-0.00004008,-0.00001285,0.00007683,0.00000014,-0.00001197,0.00000148
 ,-0.00001436,0.00001953,-0.00000097,-0.00021637,0.00036848,-0.00020830
 ,-0.00000435,-0.00004141,0.00003951,0.00041750,0.00025848,0.00002328,-
 0.00002499,-0.00005433,0.00002510,0.00000195,-0.00001913,0.00004336,-0
 .00006100,-0.00007699,0.00004709,-0.00175337,0.00071654,-0.00052663,0.
 00056779,0.00031298,0.00097509,0.00282229,-0.00105528,0.00109851,-0.00
 012662,-0.00011792,-0.00000564,-0.00003605,0.00000238,-0.00000229,-0.0
 0251233,-0.00402295,-0.00197101,-0.00002480,0.00001260,0.00003780,-0.0
 0073553,-0.00037011,0.00007787,0.00071218,0.00101792,0.00063891,-0.000
 30791,-0.00023225,-0.00036909,0.00001063,-0.00137586,0.00039864,0.0000
 5616,0.00032930,0.00009201,0.00002533,0.00000492,-0.00000703,0.0000002
 6,-0.00000384,0.00000138,0.00000254,0.00000259,-0.00000044,-0.00000075
 ,0.00000282,-0.00000055,-0.00006092,-0.00001320,0.00000869,0.00004092,
 0.00000103,-0.00000680,0.00003969,0.00000956,-0.00000829,-0.00000606,-
 0.00003034,0.00002122,-0.00000396,0.00001184,-0.00000276,0.00001227,0.
 00002323,-0.00001660,-0.00008833,-0.00001070,-0.00002399,0.00004024,-0
 .00003094,0.00005141,0.00008892,0.00003626,-0.00001451,0.05844172,-0.0
 1792186,0.00910846,-0.06602076,0.02397536,0.00037335,0.00056961,0.0002
 8589,-0.00002604,-0.00017706,-0.00002503,0.00000557,-0.00003165,-0.000
 02038,-0.00016331,0.00016394,0.00006393,-0.00000441,-0.00002467,-0.000
 03823,-0.00004885,-0.00004425,-0.00010788,0.00002127,0.00004136,-0.000
 00535,0.00001638,0.00001755,-0.00000765,0.00000357,-0.00002270,0.00001
 039,0.00006497,-0.00017882,0.00013016,0.00000522,0.00001509,-0.0000251
 7,-0.00015562,-0.00011359,-0.00001190,-0.00000709,0.00000840,-0.000017
 74,0.00000416,0.00002088,-0.00002405,-0.00001044,-0.00001479,0.0000119
 8,0.00128609,0.00011313,0.00040995,-0.00025283,-0.00006500,-0.00052683
 ,-0.00404427,0.00011939,-0.00074612,-0.00023104,0.00013289,0.00013569,
 0.00016231,-0.00003225,-0.00016154,0.00406221,-0.00122011,-0.00321718,
 0.00013057,-0.00005729,-0.00002638,0.00120100,0.00017604,-0.00101231,-
 0.00168858,0.00086617,0.00049013,0.00057562,-0.00045857,0.00021048,-0.
 00003977,0.00095430,-0.00018894,-0.00009690,-0.00060613,-0.00200885,-0
 .00007311,0.00002730,0.00001301,0.00000644,0.00000003,0.00000094,0.000
 00540,-0.00000618,-0.00000139,0.00000546,-0.00000135,0.00000186,0.0000
 3098,-0.00005380,-0.00007193,-0.00005209,0.00005137,0.00006451,0.00000
 097,0.00001981,0.00003789,0.00003386,0.00001779,-0.00005068,0.00000292
 ,-0.00000327,0.00000977,-0.00003381,-0.00002163,0.00003909,0.00012203,
 -0.00011587,-0.00002562,-0.00005197,0.00010532,-0.00000904,-0.00012302
 ,0.00004626,0.00000186,0.03382716,0.00162714,-0.04789358,0.01305210,-0
 .00913551,0.05905877,0.00015211,0.00024504,0.00014228,-0.00000818,-0.0
 0005732,-0.00001741,-0.00002482,0.00001256,-0.00002320,-0.00004286,0.0
 0006482,-0.00000057,0.00000484,-0.00001080,-0.00001477,-0.00000197,-0.
 00000431,-0.00002824,0.00000315,-0.00000946,0.00000926,-0.00000062,0.0
 0000504,-0.00000421,-0.00001279,0.00000674,-0.00000482,0.00003074,-0.0
 0008041,0.00007068,0.00000600,0.00000650,-0.00000864,-0.00005526,-0.00
 004635,-0.00000823,-0.00000138,0.00000697,-0.00000827,0.00000104,0.000
 00280,-0.00000629,-0.00001008,-0.00003244,-0.00001626,0.00036827,-0.00
 010596,0.00007293,-0.00020376,-0.00008625,-0.00022615,-0.00063955,0.00
 011338,-0.00013565,-0.00006871,0.00007252,-0.00005792,0.00004164,-0.00
 001412,0.00001790,-0.00071784,0.00002579,0.00087209,0.00006571,-0.0000
 3492,0.00003582,0.00005975,-0.00013440,0.00030326,0.00015330,-0.000044
 75,-0.00009311,-0.00001528,0.00001864,0.00002283,-0.00004346,0.0000046
 8,0.00000568,-0.00016404,0.00005782,-0.00002965,-0.00004064,0.00001479
 ,0.00000097,0.00000176,0.00000009,-0.00000226,0.00000199,-0.00000110,-
 0.00000251,0.00000272,-0.00000073,0.00000353,0.00001071,-0.00002536,0.
 00000453,-0.00000671,0.00001344,-0.00000331,-0.00000717,0.00001312,-0.
 00000160,0.00003904,-0.00000121,-0.00000336,-0.00001371,0.00000012,-0.
 00000052,-0.00002204,-0.00000017,0.00000355,0.00001013,-0.00003512,0.0
 0002740,-0.00000145,0.00001825,-0.00001563,-0.00001284,0.00002972,-0.0
 0002195,-0.06658793,0.02147828,-0.07883826,-0.00981220,0.00903578,-0.0
 4789644,0.07756239,-0.00014057,-0.00021356,-0.00011823,0.00002884,0.00
 004382,0.00001616,-0.00001980,0.00002089,0.00000151,0.00005289,-0.0001
 0490,-0.00004429,0.00000648,0.00001022,0.00001372,0.00000464,0.0000238
 5,0.00001467,-0.00001062,-0.00000774,0.00002915,-0.00000573,-0.0000024
 3,-0.00000008,-0.00000876,0.00000940,-0.00000011,-0.00006186,0.0001004
 9,-0.00004894,0.00000021,-0.00001001,0.00001075,0.00011976,0.00007381,
 -0.00000158,-0.00000814,-0.00001209,0.00000218,0.00000083,-0.00000587,
 0.00001442,-0.00002007,-0.00001530,0.00000363,-0.00030899,0.00002366,-
 0.00011711,0.00021854,0.00002647,0.00020952,0.00036808,-0.00001541,0.0
 0007838,-0.00009617,0.00001377,0.00003874,0.00001426,-0.00002137,-0.00
 002891,-0.00019827,-0.00006146,-0.00025544,0.00002873,-0.00001333,0.00
 001437,-0.00003120,0.00000404,0.00006014,0.00010446,-0.00006233,0.0000
 4497,0.00003490,0.00001932,0.00004655,-0.00004158,0.00016706,0.0000403
 3,0.00001795,-0.00013128,-0.00000229,-0.00000501,0.00000975,0.00000154
 ,0.00000130,-0.00000180,0.00000026,0.00000359,0.00000059,-0.00000148,0
 .00000181,0.00000079,0.00000032,-0.00002873,-0.00002858,-0.00001542,0.
 00000965,0.00001620,0.00001422,0.00002313,0.00001586,0.00000652,0.0000
 0810,-0.00001983,0.00000331,-0.00000430,0.00000904,-0.00000019,-0.0000
 0143,0.00001281,-0.00000182,-0.00001742,-0.00004294,-0.00001543,0.0000
 0919,0.00001472,0.00002118,0.00001389,0.00003884,-0.00001379,0.0300218
 7,-0.01862601,0.08841850,0.00043725,-0.00087999,0.00729072,-0.03052171
 ,0.01962080,0.00013024,0.00020498,0.00011337,-0.00000560,-0.00005505,-
 0.00000920,-0.00001320,0.00000225,-0.00001760,-0.00003806,0.00005207,0
 .00000591,0.00000370,-0.00000711,-0.00001176,-0.00000371,-0.00000060,-
 0.00002936,0.00000371,0.00000581,0.00000676,0.00000349,0.00000586,-0.0
 0000121,-0.00000248,-0.00000408,0.00000241,0.00002361,-0.00006684,0.00
 004986,0.00000429,0.00000652,-0.00000857,-0.00005433,-0.00004123,-0.00
 000719,-0.00000376,0.00000475,-0.00000949,0.00000164,0.00000532,-0.000
 00581,-0.00001179,-0.00001228,0.00000269,0.00042846,-0.00007908,0.0001
 8121,-0.00008791,-0.00006526,-0.00019975,-0.00072339,0.00030501,-0.000
 67751,-0.00006700,0.00004838,0.00004983,0.00004381,-0.00001209,-0.0000
 4488,0.00147278,-0.00035818,0.00039958,0.00004295,-0.00002062,-0.00000
 649,-0.00005738,-0.00008761,0.00029693,0.00011903,-0.00016504,-0.00011
 065,-0.00001236,0.00003176,0.00003881,-0.00000337,0.00002628,-0.000030
 23,0.00000672,0.00011512,0.00005101,-0.00002217,0.00000898,0.00000467,
 0.00000157,0.00000018,0.00000057,0.00000181,-0.00000184,-0.00000070,0.
 00000196,-0.00000035,0.00000053,0.00000586,-0.00001579,-0.00001573,-0.
 00000899,0.00001183,0.00001099,-0.00000104,0.00000713,0.00001052,0.000
 01375,0.00000239,-0.00001657,0.00000029,-0.00000015,0.00000375,-0.0000
 1217,-0.00000347,0.00001246,0.00001334,-0.00002625,0.00000082,-0.00000
 296,0.00001323,-0.00000360,-0.00001166,0.00001991,-0.00000697,-0.13287
 796,0.09590898,-0.49252609,0.00582178,-0.00003315,-0.00475255,0.125876
 50,-0.09573066,0.49724923\\0.00000295,-0.00000056,0.00000007,-0.000001
 57,0.00000314,-0.00000502,0.00000569,-0.00000231,-0.00000088,-0.000007
 49,-0.00000522,0.00000116,0.00000291,-0.00000043,-0.00000069,0.0000050
 1,0.00000005,0.00000309,-0.00000245,0.00000080,0.00000062,-0.00000496,
 -0.00000072,-0.00000178,-0.00000451,0.00000350,-0.00000063,0.00000075,
 -0.00000117,-0.00000875,0.00000484,0.00000058,0.00000298,-0.00000233,0
 .00000595,0.00000388,0.00000248,-0.00000198,0.00000156,0.00000077,0.00
 000182,-0.00000493,-0.00000484,0.00000026,0.00000247,-0.00000086,0.000
 00063,0.00000173,-0.00000008,0.00000249,-0.00000229,-0.00000540,-0.000
 00035,-0.00000007,-0.00000474,-0.00000157,0.00000402,0.00000008,0.0000
 0040,-0.00000973,0.00000322,-0.00000237,0.00000919,0.00000169,-0.00000
 089,-0.00000361,0.00000094,-0.00000017,0.00000567,0.00000371,-0.000006
 02,0.00000236,0.00000475,-0.00000298,0.00000834,0.00000012,-0.00000151
 ,0.00000775,-0.00000021,0.00000092,0.00000684,0.00000799,0.00000515,-0
 .00000537,-0.00000330,0.00000274,-0.00000793,-0.00000070,0.00000194,-0
 .00000592,0.00000124,0.00000150,-0.00000984,0.00000160,0.00000240,-0.0
 0000450,0.00000206,0.00000010,-0.00000151,-0.00000001,-0.00000077,-0.0
 0000238,-0.00001005,0.00000014,-0.00000177,-0.00000404,0.00000240,-0.0
 0001092,0.00000115,0.00000213,-0.00000405,0.00000071,-0.00000612,0.000
 00344,0.00001041,0.00000298,0.00000030,0.00000222,0.00000120,-0.000001
 98,-0.00000592,-0.00000182,0.00000588,-0.00000051,-0.00000304,0.000008
 36,-0.00000332,-0.00000319,0.00001485\\\@


 GOD DOES NOT PLAY WITH DICE.
               -- A. EINSTEIN
 Job cpu time:       3 days 17 hours 43 minutes 48.4 seconds.
 File lengths (MBytes):  RWF=   2429 Int=      0 D2E=      0 Chk=     52 Scr=      1
 Normal termination of Gaussian 09 at Mon Feb 21 03:03:56 2022.
