 Entering Gaussian System, Link 0=g09
 Input=b3lyp_TS_2H2O_claisen_PM6_toluene_water_1.com
 Output=b3lyp_TS_2H2O_claisen_PM6_toluene_water_1.log
 Initial command:
 /apps/applications/gaussian/G09.D01/2/default/g09/l1.exe "/local/714157.1.40core-192G.q/Gau-144147.inp" -scrdir="/local/714157.1.40core-192G.q/"
 Entering Link 1 = /apps/applications/gaussian/G09.D01/2/default/g09/l1.exe PID=    144148.
  
 Copyright (c) 1988,1990,1992,1993,1995,1998,2003,2009,2013,
            Gaussian, Inc.  All Rights Reserved.
  
 This is part of the Gaussian(R) 09 program.  It is based on
 the Gaussian(R) 03 system (copyright 2003, Gaussian, Inc.),
 the Gaussian(R) 98 system (copyright 1998, Gaussian, Inc.),
 the Gaussian(R) 94 system (copyright 1995, Gaussian, Inc.),
 the Gaussian 92(TM) system (copyright 1992, Gaussian, Inc.),
 the Gaussian 90(TM) system (copyright 1990, Gaussian, Inc.),
 the Gaussian 88(TM) system (copyright 1988, Gaussian, Inc.),
 the Gaussian 86(TM) system (copyright 1986, Carnegie Mellon
 University), and the Gaussian 82(TM) system (copyright 1983,
 Carnegie Mellon University). Gaussian is a federally registered
 trademark of Gaussian, Inc.
  
 This software contains proprietary and confidential information,
 including trade secrets, belonging to Gaussian, Inc.
  
 This software is provided under written license and may be
 used, copied, transmitted, or stored only in accord with that
 written license.
  
 The following legend is applicable only to US Government
 contracts under FAR:
  
                    RESTRICTED RIGHTS LEGEND
  
 Use, reproduction and disclosure by the US Government is
 subject to restrictions as set forth in subparagraphs (a)
 and (c) of the Commercial Computer Software - Restricted
 Rights clause in FAR 52.227-19.
  
 Gaussian, Inc.
 340 Quinnipiac St., Bldg. 40, Wallingford CT 06492
  
  
 ---------------------------------------------------------------
 Warning -- This program may not be used in any manner that
 competes with the business of Gaussian, Inc. or will provide
 assistance to any competitor of Gaussian, Inc.  The licensee
 of this program is prohibited from giving any competitor of
 Gaussian, Inc. access to this program.  By using this program,
 the user acknowledges that Gaussian, Inc. is engaged in the
 business of creating and licensing software in the field of
 computational chemistry and represents and warrants to the
 licensee that it is not a competitor of Gaussian, Inc. and that
 it will not use this program in any manner prohibited above.
 ---------------------------------------------------------------
  

 Cite this work as:
 Gaussian 09, Revision D.01,
 M. J. Frisch, G. W. Trucks, H. B. Schlegel, G. E. Scuseria, 
 M. A. Robb, J. R. Cheeseman, G. Scalmani, V. Barone, B. Mennucci, 
 G. A. Petersson, H. Nakatsuji, M. Caricato, X. Li, H. P. Hratchian, 
 A. F. Izmaylov, J. Bloino, G. Zheng, J. L. Sonnenberg, M. Hada, 
 M. Ehara, K. Toyota, R. Fukuda, J. Hasegawa, M. Ishida, T. Nakajima, 
 Y. Honda, O. Kitao, H. Nakai, T. Vreven, J. A. Montgomery, Jr., 
 J. E. Peralta, F. Ogliaro, M. Bearpark, J. J. Heyd, E. Brothers, 
 K. N. Kudin, V. N. Staroverov, T. Keith, R. Kobayashi, J. Normand, 
 K. Raghavachari, A. Rendell, J. C. Burant, S. S. Iyengar, J. Tomasi, 
 M. Cossi, N. Rega, J. M. Millam, M. Klene, J. E. Knox, J. B. Cross, 
 V. Bakken, C. Adamo, J. Jaramillo, R. Gomperts, R. E. Stratmann, 
 O. Yazyev, A. J. Austin, R. Cammi, C. Pomelli, J. W. Ochterski, 
 R. L. Martin, K. Morokuma, V. G. Zakrzewski, G. A. Voth, 
 P. Salvador, J. J. Dannenberg, S. Dapprich, A. D. Daniels, 
 O. Farkas, J. B. Foresman, J. V. Ortiz, J. Cioslowski, 
 and D. J. Fox, Gaussian, Inc., Wallingford CT, 2013.
 
 ******************************************
 Gaussian 09:  ES64L-G09RevD.01 24-Apr-2013
                27-Aug-2020 
 ******************************************
 %nprocshared=4
 Will use up to    4 processors via shared memory.
 %chk=b3lyp_TS_2H2O_claisen_PM6_toluene_water_1.chk
 ----------------------------------------------------------------------
 # opt=(calcfc,ts,noeigentest) b3lyp/6-31+g(d,p) scrf=(cpcm,solvent=wat
 er) geom=connectivity empiricaldispersion=gd3
 ----------------------------------------------------------------------
 1/5=1,10=4,11=1,14=-1,18=20,26=3,38=1,57=2/1,3;
 2/9=110,12=2,17=6,18=5,40=1/2;
 3/5=1,6=6,7=111,11=2,16=1,25=1,30=1,70=2101,71=2,72=1,74=-5,124=31,140=1/1,2,3;
 4//1;
 5/5=2,38=5,53=1/2;
 8/6=4,10=90,11=11/1;
 11/6=1,8=1,9=11,15=111,16=1/1,2,10;
 10/6=1,13=1/2;
 6/7=2,8=2,9=2,10=2,28=1/1;
 7/10=1,18=20,25=1/1,2,3,16;
 1/5=1,10=4,11=1,14=-1,18=20,26=3/3(2);
 2/9=110/2;
 99//99;
 2/9=110/2;
 3/5=1,6=6,7=111,11=2,16=1,25=1,30=1,70=2105,71=1,72=1,74=-5,124=31/1,2,3;
 4/5=5,16=3,69=1/1;
 5/5=2,38=5,53=1/2;
 7//1,2,3,16;
 1/5=1,11=1,14=-1,18=20,26=3/3(-5);
 2/9=110/2;
 6/7=2,8=2,9=2,10=2,19=2,28=1/1;
 99/9=1/99;
 -------------------
 Title Card Required
 -------------------
 Symbolic Z-matrix:
 Charge =  0 Multiplicity = 1
 C                    -2.578     2.74827   0.47385 
 C                    -2.98228   1.44387   0.25348 
 C                    -2.02843   0.44383  -0.06682 
 C                    -0.66239   0.80031  -0.14987 
 C                    -0.27279   2.14365   0.06966 
 C                    -1.21359   3.10591   0.3795 
 H                    -3.31304   3.51697   0.72165 
 H                    -4.0401    1.18922   0.32701 
 H                     0.79121   2.3979   -0.01171 
 H                    -0.91712   4.14055   0.55296 
 C                     0.3422   -0.21866  -0.48135 
 C                    -2.38239  -0.93445  -0.3257 
 C                    -0.06607  -1.56085  -0.6961 
 H                     0.59776  -2.24065  -1.23457 
 C                    -1.46458  -1.8832   -0.65811 
 H                    -1.75824  -2.91229  -0.8821 
 O                     1.58843   0.08955  -0.4533 
 Cl                   -4.04953  -1.38174  -0.2274 
 C                     2.4972   -0.6367    1.24205 
 C                     2.02855  -1.94641   1.0148 
 H                     2.71831  -2.65425   0.54344 
 C                     3.88178  -0.26925   0.83936 
 H                     4.54274  -0.15883   1.71604 
 H                     4.35968  -0.99841   0.16981 
 H                     3.90591   0.7052    0.31361 
 C                     1.82785   0.29005   2.19576 
 H                     0.72813   0.24248   2.16944 
 H                     2.121     0.04793   3.23387 
 H                     2.0978    1.345     2.03639 
 C                     0.70189  -2.31598   1.1487 
 H                     0.38897  -3.34153   0.95714 
 H                    -0.00525  -1.74565   1.74914 
 O                     2.90384   2.11967  -1.22163 
 H                     2.1699    1.85561  -0.62351 
 H                     3.09248   1.3      -1.7374 
 O                     3.07734  -0.38256  -2.44226 
 H                     2.32721  -0.34453  -3.04091 
 H                     2.7042   -0.73071  -1.59226 
 
 Add virtual bond connecting atoms H34        and H9         Dist= 3.03D+00.
 Add virtual bond connecting atoms O36        and H35        Dist= 3.45D+00.
 Add virtual bond connecting atoms H38        and O17        Dist= 3.39D+00.
 Add virtual bond connecting atoms C19        and O17        Dist= 3.89D+00.
 Add virtual bond connecting atoms C30        and C13        Dist= 4.04D+00.

 GradGradGradGradGradGradGradGradGradGradGradGradGradGradGradGradGradGrad
 Berny optimization.
 Initialization pass.
                           ----------------------------
                           !    Initial Parameters    !
                           ! (Angstroms and Degrees)  !
 --------------------------                            --------------------------
 ! Name  Definition              Value          Derivative Info.                !
 --------------------------------------------------------------------------------
 ! R1    R(1,2)                  1.3833         calculate D2E/DX2 analytically  !
 ! R2    R(1,6)                  1.4137         calculate D2E/DX2 analytically  !
 ! R3    R(1,7)                  1.0921         calculate D2E/DX2 analytically  !
 ! R4    R(2,3)                  1.4186         calculate D2E/DX2 analytically  !
 ! R5    R(2,8)                  1.0905         calculate D2E/DX2 analytically  !
 ! R6    R(3,4)                  1.4142         calculate D2E/DX2 analytically  !
 ! R7    R(3,12)                 1.4464         calculate D2E/DX2 analytically  !
 ! R8    R(4,5)                  1.4158         calculate D2E/DX2 analytically  !
 ! R9    R(4,11)                 1.4688         calculate D2E/DX2 analytically  !
 ! R10   R(5,6)                  1.381          calculate D2E/DX2 analytically  !
 ! R11   R(5,9)                  1.097          calculate D2E/DX2 analytically  !
 ! R12   R(6,10)                 1.0902         calculate D2E/DX2 analytically  !
 ! R13   R(9,34)                 1.6029         calculate D2E/DX2 analytically  !
 ! R14   R(11,13)                1.4193         calculate D2E/DX2 analytically  !
 ! R15   R(11,17)                1.2841         calculate D2E/DX2 analytically  !
 ! R16   R(12,15)                1.3613         calculate D2E/DX2 analytically  !
 ! R17   R(12,18)                1.7289         calculate D2E/DX2 analytically  !
 ! R18   R(13,14)                1.0921         calculate D2E/DX2 analytically  !
 ! R19   R(13,15)                1.4357         calculate D2E/DX2 analytically  !
 ! R20   R(13,30)                2.1362         calculate D2E/DX2 analytically  !
 ! R21   R(15,16)                1.0934         calculate D2E/DX2 analytically  !
 ! R22   R(17,19)                2.0561         calculate D2E/DX2 analytically  !
 ! R23   R(17,38)                1.793          calculate D2E/DX2 analytically  !
 ! R24   R(19,20)                1.4095         calculate D2E/DX2 analytically  !
 ! R25   R(19,22)                1.488          calculate D2E/DX2 analytically  !
 ! R26   R(19,26)                1.4888         calculate D2E/DX2 analytically  !
 ! R27   R(20,21)                1.095          calculate D2E/DX2 analytically  !
 ! R28   R(20,30)                1.3837         calculate D2E/DX2 analytically  !
 ! R29   R(22,23)                1.1035         calculate D2E/DX2 analytically  !
 ! R30   R(22,24)                1.0993         calculate D2E/DX2 analytically  !
 ! R31   R(22,25)                1.1075         calculate D2E/DX2 analytically  !
 ! R32   R(26,27)                1.1011         calculate D2E/DX2 analytically  !
 ! R33   R(26,28)                1.1055         calculate D2E/DX2 analytically  !
 ! R34   R(26,29)                1.1005         calculate D2E/DX2 analytically  !
 ! R35   R(30,31)                1.0892         calculate D2E/DX2 analytically  !
 ! R36   R(30,32)                1.089          calculate D2E/DX2 analytically  !
 ! R37   R(33,34)                0.9829         calculate D2E/DX2 analytically  !
 ! R38   R(33,35)                0.9866         calculate D2E/DX2 analytically  !
 ! R39   R(35,36)                1.8243         calculate D2E/DX2 analytically  !
 ! R40   R(36,37)                0.9605         calculate D2E/DX2 analytically  !
 ! R41   R(36,38)                0.9914         calculate D2E/DX2 analytically  !
 ! A1    A(2,1,6)              120.6647         calculate D2E/DX2 analytically  !
 ! A2    A(2,1,7)              120.2115         calculate D2E/DX2 analytically  !
 ! A3    A(6,1,7)              119.1236         calculate D2E/DX2 analytically  !
 ! A4    A(1,2,3)              120.2781         calculate D2E/DX2 analytically  !
 ! A5    A(1,2,8)              119.535          calculate D2E/DX2 analytically  !
 ! A6    A(3,2,8)              120.1869         calculate D2E/DX2 analytically  !
 ! A7    A(2,3,4)              119.0148         calculate D2E/DX2 analytically  !
 ! A8    A(2,3,12)             123.2039         calculate D2E/DX2 analytically  !
 ! A9    A(4,3,12)             117.7797         calculate D2E/DX2 analytically  !
 ! A10   A(3,4,5)              119.726          calculate D2E/DX2 analytically  !
 ! A11   A(3,4,11)             119.9361         calculate D2E/DX2 analytically  !
 ! A12   A(5,4,11)             120.3323         calculate D2E/DX2 analytically  !
 ! A13   A(4,5,6)              120.5614         calculate D2E/DX2 analytically  !
 ! A14   A(4,5,9)              118.3795         calculate D2E/DX2 analytically  !
 ! A15   A(6,5,9)              121.0591         calculate D2E/DX2 analytically  !
 ! A16   A(1,6,5)              119.75           calculate D2E/DX2 analytically  !
 ! A17   A(1,6,10)             119.4693         calculate D2E/DX2 analytically  !
 ! A18   A(5,6,10)             120.7807         calculate D2E/DX2 analytically  !
 ! A19   A(5,9,34)             141.6448         calculate D2E/DX2 analytically  !
 ! A20   A(4,11,13)            119.5691         calculate D2E/DX2 analytically  !
 ! A21   A(4,11,17)            119.4951         calculate D2E/DX2 analytically  !
 ! A22   A(13,11,17)           120.629          calculate D2E/DX2 analytically  !
 ! A23   A(3,12,15)            122.8792         calculate D2E/DX2 analytically  !
 ! A24   A(3,12,18)            118.1865         calculate D2E/DX2 analytically  !
 ! A25   A(15,12,18)           118.9288         calculate D2E/DX2 analytically  !
 ! A26   A(11,13,14)           119.2359         calculate D2E/DX2 analytically  !
 ! A27   A(11,13,15)           119.2453         calculate D2E/DX2 analytically  !
 ! A28   A(11,13,30)            95.7514         calculate D2E/DX2 analytically  !
 ! A29   A(14,13,15)           117.7349         calculate D2E/DX2 analytically  !
 ! A30   A(14,13,30)            89.2692         calculate D2E/DX2 analytically  !
 ! A31   A(15,13,30)           104.3578         calculate D2E/DX2 analytically  !
 ! A32   A(12,15,13)           120.4479         calculate D2E/DX2 analytically  !
 ! A33   A(12,15,16)           121.6642         calculate D2E/DX2 analytically  !
 ! A34   A(13,15,16)           117.8747         calculate D2E/DX2 analytically  !
 ! A35   A(11,17,19)           111.2351         calculate D2E/DX2 analytically  !
 ! A36   A(11,17,38)           118.7021         calculate D2E/DX2 analytically  !
 ! A37   A(19,17,38)            94.9988         calculate D2E/DX2 analytically  !
 ! A38   A(17,19,20)            92.7693         calculate D2E/DX2 analytically  !
 ! A39   A(17,19,22)            95.7912         calculate D2E/DX2 analytically  !
 ! A40   A(17,19,26)            96.293          calculate D2E/DX2 analytically  !
 ! A41   A(20,19,22)           119.6836         calculate D2E/DX2 analytically  !
 ! A42   A(20,19,26)           122.1561         calculate D2E/DX2 analytically  !
 ! A43   A(22,19,26)           115.9749         calculate D2E/DX2 analytically  !
 ! A44   A(19,20,21)           117.4286         calculate D2E/DX2 analytically  !
 ! A45   A(19,20,30)           123.4623         calculate D2E/DX2 analytically  !
 ! A46   A(21,20,30)           118.227          calculate D2E/DX2 analytically  !
 ! A47   A(19,22,23)           111.534          calculate D2E/DX2 analytically  !
 ! A48   A(19,22,24)           113.9265         calculate D2E/DX2 analytically  !
 ! A49   A(19,22,25)           111.4699         calculate D2E/DX2 analytically  !
 ! A50   A(23,22,24)           106.8509         calculate D2E/DX2 analytically  !
 ! A51   A(23,22,25)           106.0247         calculate D2E/DX2 analytically  !
 ! A52   A(24,22,25)           106.5598         calculate D2E/DX2 analytically  !
 ! A53   A(19,26,27)           114.0062         calculate D2E/DX2 analytically  !
 ! A54   A(19,26,28)           110.2414         calculate D2E/DX2 analytically  !
 ! A55   A(19,26,29)           113.1826         calculate D2E/DX2 analytically  !
 ! A56   A(27,26,28)           106.1303         calculate D2E/DX2 analytically  !
 ! A57   A(27,26,29)           106.4361         calculate D2E/DX2 analytically  !
 ! A58   A(28,26,29)           106.3121         calculate D2E/DX2 analytically  !
 ! A59   A(13,30,20)            99.5962         calculate D2E/DX2 analytically  !
 ! A60   A(13,30,31)            94.4548         calculate D2E/DX2 analytically  !
 ! A61   A(13,30,32)            93.3014         calculate D2E/DX2 analytically  !
 ! A62   A(20,30,31)           120.6587         calculate D2E/DX2 analytically  !
 ! A63   A(20,30,32)           122.4175         calculate D2E/DX2 analytically  !
 ! A64   A(31,30,32)           113.7995         calculate D2E/DX2 analytically  !
 ! A65   A(34,33,35)           103.7496         calculate D2E/DX2 analytically  !
 ! A66   A(9,34,33)            141.5941         calculate D2E/DX2 analytically  !
 ! A67   A(35,36,37)           102.1682         calculate D2E/DX2 analytically  !
 ! A68   A(35,36,38)            89.7563         calculate D2E/DX2 analytically  !
 ! A69   A(37,36,38)           104.7338         calculate D2E/DX2 analytically  !
 ! A70   A(17,38,36)           128.1816         calculate D2E/DX2 analytically  !
 ! A71   L(33,35,36,2,-1)      166.3621         calculate D2E/DX2 analytically  !
 ! A72   L(33,35,36,2,-2)      186.0801         calculate D2E/DX2 analytically  !
 ! D1    D(6,1,2,3)              0.2135         calculate D2E/DX2 analytically  !
 ! D2    D(6,1,2,8)           -179.7466         calculate D2E/DX2 analytically  !
 ! D3    D(7,1,2,3)           -179.9192         calculate D2E/DX2 analytically  !
 ! D4    D(7,1,2,8)              0.1207         calculate D2E/DX2 analytically  !
 ! D5    D(2,1,6,5)             -0.2658         calculate D2E/DX2 analytically  !
 ! D6    D(2,1,6,10)           179.7462         calculate D2E/DX2 analytically  !
 ! D7    D(7,1,6,5)            179.8655         calculate D2E/DX2 analytically  !
 ! D8    D(7,1,6,10)            -0.1225         calculate D2E/DX2 analytically  !
 ! D9    D(1,2,3,4)              0.3191         calculate D2E/DX2 analytically  !
 ! D10   D(1,2,3,12)          -179.2051         calculate D2E/DX2 analytically  !
 ! D11   D(8,2,3,4)           -179.7211         calculate D2E/DX2 analytically  !
 ! D12   D(8,2,3,12)             0.7547         calculate D2E/DX2 analytically  !
 ! D13   D(2,3,4,5)             -0.7956         calculate D2E/DX2 analytically  !
 ! D14   D(2,3,4,11)          -179.9415         calculate D2E/DX2 analytically  !
 ! D15   D(12,3,4,5)           178.7545         calculate D2E/DX2 analytically  !
 ! D16   D(12,3,4,11)           -0.3915         calculate D2E/DX2 analytically  !
 ! D17   D(2,3,12,15)          178.6784         calculate D2E/DX2 analytically  !
 ! D18   D(2,3,12,18)           -0.4561         calculate D2E/DX2 analytically  !
 ! D19   D(4,3,12,15)           -0.8514         calculate D2E/DX2 analytically  !
 ! D20   D(4,3,12,18)         -179.9858         calculate D2E/DX2 analytically  !
 ! D21   D(3,4,5,6)              0.7546         calculate D2E/DX2 analytically  !
 ! D22   D(3,4,5,9)           -179.2996         calculate D2E/DX2 analytically  !
 ! D23   D(11,4,5,6)           179.8971         calculate D2E/DX2 analytically  !
 ! D24   D(11,4,5,9)            -0.1572         calculate D2E/DX2 analytically  !
 ! D25   D(3,4,11,13)           -0.9581         calculate D2E/DX2 analytically  !
 ! D26   D(3,4,11,17)         -174.6389         calculate D2E/DX2 analytically  !
 ! D27   D(5,4,11,13)          179.9013         calculate D2E/DX2 analytically  !
 ! D28   D(5,4,11,17)            6.2204         calculate D2E/DX2 analytically  !
 ! D29   D(4,5,6,1)             -0.2216         calculate D2E/DX2 analytically  !
 ! D30   D(4,5,6,10)           179.7662         calculate D2E/DX2 analytically  !
 ! D31   D(9,5,6,1)            179.8341         calculate D2E/DX2 analytically  !
 ! D32   D(9,5,6,10)            -0.1781         calculate D2E/DX2 analytically  !
 ! D33   D(4,5,9,34)            18.9935         calculate D2E/DX2 analytically  !
 ! D34   D(6,5,9,34)          -161.0611         calculate D2E/DX2 analytically  !
 ! D35   D(5,9,34,33)          124.2825         calculate D2E/DX2 analytically  !
 ! D36   D(4,11,13,14)         161.0429         calculate D2E/DX2 analytically  !
 ! D37   D(4,11,13,15)           3.4327         calculate D2E/DX2 analytically  !
 ! D38   D(4,11,13,30)        -106.5682         calculate D2E/DX2 analytically  !
 ! D39   D(17,11,13,14)        -25.3494         calculate D2E/DX2 analytically  !
 ! D40   D(17,11,13,15)        177.0404         calculate D2E/DX2 analytically  !
 ! D41   D(17,11,13,30)         67.0395         calculate D2E/DX2 analytically  !
 ! D42   D(4,11,17,19)         103.0313         calculate D2E/DX2 analytically  !
 ! D43   D(4,11,17,38)        -148.3459         calculate D2E/DX2 analytically  !
 ! D44   D(13,11,17,19)        -70.5811         calculate D2E/DX2 analytically  !
 ! D45   D(13,11,17,38)         38.0417         calculate D2E/DX2 analytically  !
 ! D46   D(3,12,15,13)           3.4152         calculate D2E/DX2 analytically  !
 ! D47   D(3,12,15,16)        -177.9377         calculate D2E/DX2 analytically  !
 ! D48   D(18,12,15,13)       -177.4565         calculate D2E/DX2 analytically  !
 ! D49   D(18,12,15,16)          1.1906         calculate D2E/DX2 analytically  !
 ! D50   D(11,13,15,12)         -4.6801         calculate D2E/DX2 analytically  !
 ! D51   D(11,13,15,16)        176.6225         calculate D2E/DX2 analytically  !
 ! D52   D(14,13,15,12)       -162.6231         calculate D2E/DX2 analytically  !
 ! D53   D(14,13,15,16)         18.6795         calculate D2E/DX2 analytically  !
 ! D54   D(30,13,15,12)        100.5015         calculate D2E/DX2 analytically  !
 ! D55   D(30,13,15,16)        -78.1959         calculate D2E/DX2 analytically  !
 ! D56   D(11,13,30,20)        -57.2675         calculate D2E/DX2 analytically  !
 ! D57   D(11,13,30,31)       -179.4013         calculate D2E/DX2 analytically  !
 ! D58   D(11,13,30,32)         66.3984         calculate D2E/DX2 analytically  !
 ! D59   D(14,13,30,20)         62.0489         calculate D2E/DX2 analytically  !
 ! D60   D(14,13,30,31)        -60.0849         calculate D2E/DX2 analytically  !
 ! D61   D(14,13,30,32)       -174.2852         calculate D2E/DX2 analytically  !
 ! D62   D(15,13,30,20)       -179.4511         calculate D2E/DX2 analytically  !
 ! D63   D(15,13,30,31)         58.4151         calculate D2E/DX2 analytically  !
 ! D64   D(15,13,30,32)        -55.7852         calculate D2E/DX2 analytically  !
 ! D65   D(11,17,19,20)         52.5012         calculate D2E/DX2 analytically  !
 ! D66   D(11,17,19,22)        172.7156         calculate D2E/DX2 analytically  !
 ! D67   D(11,17,19,26)        -70.2788         calculate D2E/DX2 analytically  !
 ! D68   D(38,17,19,20)        -70.9478         calculate D2E/DX2 analytically  !
 ! D69   D(38,17,19,22)         49.2666         calculate D2E/DX2 analytically  !
 ! D70   D(38,17,19,26)        166.2722         calculate D2E/DX2 analytically  !
 ! D71   D(11,17,38,36)        101.2034         calculate D2E/DX2 analytically  !
 ! D72   D(19,17,38,36)       -141.2544         calculate D2E/DX2 analytically  !
 ! D73   D(17,19,20,21)         98.4029         calculate D2E/DX2 analytically  !
 ! D74   D(17,19,20,30)        -70.6362         calculate D2E/DX2 analytically  !
 ! D75   D(22,19,20,21)          0.1321         calculate D2E/DX2 analytically  !
 ! D76   D(22,19,20,30)       -168.907          calculate D2E/DX2 analytically  !
 ! D77   D(26,19,20,21)       -162.3882         calculate D2E/DX2 analytically  !
 ! D78   D(26,19,20,30)         28.5727         calculate D2E/DX2 analytically  !
 ! D79   D(17,19,22,23)        156.3076         calculate D2E/DX2 analytically  !
 ! D80   D(17,19,22,24)        -82.6274         calculate D2E/DX2 analytically  !
 ! D81   D(17,19,22,25)         38.0076         calculate D2E/DX2 analytically  !
 ! D82   D(20,19,22,23)       -107.1633         calculate D2E/DX2 analytically  !
 ! D83   D(20,19,22,24)         13.9017         calculate D2E/DX2 analytically  !
 ! D84   D(20,19,22,25)        134.5367         calculate D2E/DX2 analytically  !
 ! D85   D(26,19,22,23)         56.4055         calculate D2E/DX2 analytically  !
 ! D86   D(26,19,22,24)        177.4705         calculate D2E/DX2 analytically  !
 ! D87   D(26,19,22,25)        -61.8945         calculate D2E/DX2 analytically  !
 ! D88   D(17,19,26,27)         57.3031         calculate D2E/DX2 analytically  !
 ! D89   D(17,19,26,28)        176.5368         calculate D2E/DX2 analytically  !
 ! D90   D(17,19,26,29)        -64.5447         calculate D2E/DX2 analytically  !
 ! D91   D(20,19,26,27)        -39.9783         calculate D2E/DX2 analytically  !
 ! D92   D(20,19,26,28)         79.2555         calculate D2E/DX2 analytically  !
 ! D93   D(20,19,26,29)       -161.8261         calculate D2E/DX2 analytically  !
 ! D94   D(22,19,26,27)        156.896          calculate D2E/DX2 analytically  !
 ! D95   D(22,19,26,28)        -83.8703         calculate D2E/DX2 analytically  !
 ! D96   D(22,19,26,29)         35.0482         calculate D2E/DX2 analytically  !
 ! D97   D(19,20,30,13)         78.6688         calculate D2E/DX2 analytically  !
 ! D98   D(19,20,30,31)        179.7264         calculate D2E/DX2 analytically  !
 ! D99   D(19,20,30,32)        -21.5004         calculate D2E/DX2 analytically  !
 ! D100  D(21,20,30,13)        -90.2884         calculate D2E/DX2 analytically  !
 ! D101  D(21,20,30,31)         10.7692         calculate D2E/DX2 analytically  !
 ! D102  D(21,20,30,32)        169.5424         calculate D2E/DX2 analytically  !
 ! D103  D(35,33,34,9)        -139.4943         calculate D2E/DX2 analytically  !
 ! D104  D(34,33,36,37)         77.8129         calculate D2E/DX2 analytically  !
 ! D105  D(34,33,36,38)        -26.2967         calculate D2E/DX2 analytically  !
 ! D106  D(35,36,38,17)         32.9565         calculate D2E/DX2 analytically  !
 ! D107  D(37,36,38,17)        -69.5666         calculate D2E/DX2 analytically  !
 --------------------------------------------------------------------------------
 Trust Radius=3.00D-01 FncErr=1.00D-07 GrdErr=1.00D-06
 Number of steps in this run=    228 maximum allowed number of steps=    228.
 Search for a saddle point of order  1.
 GradGradGradGradGradGradGradGradGradGradGradGradGradGradGradGradGradGrad

                          Input orientation:                          
 ---------------------------------------------------------------------
 Center     Atomic      Atomic             Coordinates (Angstroms)
 Number     Number       Type             X           Y           Z
 ---------------------------------------------------------------------
      1          6           0       -2.577995    2.748269    0.473854
      2          6           0       -2.982276    1.443869    0.253480
      3          6           0       -2.028433    0.443834   -0.066818
      4          6           0       -0.662391    0.800311   -0.149871
      5          6           0       -0.272794    2.143648    0.069664
      6          6           0       -1.213589    3.105913    0.379499
      7          1           0       -3.313042    3.516974    0.721649
      8          1           0       -4.040096    1.189217    0.327005
      9          1           0        0.791214    2.397900   -0.011705
     10          1           0       -0.917124    4.140554    0.552963
     11          6           0        0.342198   -0.218656   -0.481348
     12          6           0       -2.382394   -0.934449   -0.325702
     13          6           0       -0.066072   -1.560852   -0.696099
     14          1           0        0.597757   -2.240647   -1.234571
     15          6           0       -1.464583   -1.883203   -0.658114
     16          1           0       -1.758240   -2.912291   -0.882099
     17          8           0        1.588426    0.089548   -0.453296
     18         17           0       -4.049533   -1.381742   -0.227401
     19          6           0        2.497199   -0.636701    1.242046
     20          6           0        2.028551   -1.946409    1.014797
     21          1           0        2.718305   -2.654251    0.543436
     22          6           0        3.881778   -0.269251    0.839358
     23          1           0        4.542740   -0.158826    1.716043
     24          1           0        4.359684   -0.998406    0.169808
     25          1           0        3.905908    0.705204    0.313614
     26          6           0        1.827854    0.290054    2.195758
     27          1           0        0.728133    0.242481    2.169438
     28          1           0        2.121004    0.047928    3.233867
     29          1           0        2.097803    1.344996    2.036394
     30          6           0        0.701892   -2.315980    1.148697
     31          1           0        0.388970   -3.341531    0.957138
     32          1           0       -0.005247   -1.745653    1.749139
     33          8           0        2.903837    2.119670   -1.221625
     34          1           0        2.169897    1.855606   -0.623508
     35          1           0        3.092481    1.300001   -1.737397
     36          8           0        3.077342   -0.382564   -2.442255
     37          1           0        2.327207   -0.344534   -3.040913
     38          1           0        2.704196   -0.730714   -1.592260
 ---------------------------------------------------------------------
                    Distance matrix (angstroms):
                    1          2          3          4          5
     1  C    0.000000
     2  C    1.383281   0.000000
     3  C    2.429972   1.418618   0.000000
     4  C    2.802340   2.441050   1.414229   0.000000
     5  C    2.417207   2.804420   2.447501   1.415816   0.000000
     6  C    1.413653   2.430334   2.819545   2.428961   1.380959
     7  H    1.092064   2.150896   3.422877   3.894324   3.399149
     8  H    2.142416   1.090521   2.181165   3.433300   3.894833
     9  H    3.422002   3.901247   3.431009   2.164335   1.096986
    10  H    2.168688   3.409788   3.909588   3.422877   2.153224
    11  C    4.271134   3.788943   2.496121   1.468799   2.502461
    12  C    3.773587   2.520259   1.446366   2.449228   3.752520
    13  C    5.123190   4.293518   2.874999   2.495807   3.788462
    14  H    6.155761   5.348513   3.932806   3.465829   4.656279
    15  C    4.896077   3.768793   2.466305   2.846589   4.262106
    16  H    5.878141   4.665183   3.464284   3.939601   5.354897
    17  O    5.028665   4.819236   3.654662   2.379796   2.820807
    18  Cl   4.440065   3.058490   2.728252   4.029900   5.174976
    19  C    6.148637   5.943962   4.833428   3.739712   4.096057
    20  C    6.599461   6.097702   4.831384   4.017722   4.787278
    21  H    7.565901   7.026755   5.701058   4.883009   5.673708
    22  C    7.139166   7.098822   6.021648   4.772003   4.865694
    23  H    7.790963   7.831576   6.835357   5.612038   5.585814
    24  H    7.890590   7.737964   6.553174   5.344045   5.598427
    25  H    6.800058   6.927938   5.952264   4.592736   4.426080
    26  C    5.330974   5.314234   4.473684   3.458852   3.516932
    27  H    4.481569   4.345269   3.555283   2.761146   3.004221
    28  H    6.081949   6.072464   5.316868   4.445565   4.487147
    29  H    5.125797   5.384771   4.718201   3.563019   3.182075
    30  C    6.071218   5.339567   4.068012   3.641266   4.690694
    31  H    6.791326   5.895803   4.606659   4.414259   5.595778
    32  H    5.332984   4.612239   3.490678   3.243456   4.244865
    33  O    5.772371   6.105650   5.335662   3.950613   3.429138
    34  H    4.954143   5.242473   4.464188   3.059385   2.555425
    35  H    6.256310   6.394291   5.454138   4.107188   3.911814
    36  O    7.091449   6.879085   5.691623   4.543107   4.890286
    37  H    6.780857   6.499386   5.332763   4.313524   4.756758
    38  H    6.653848   6.361724   5.109238   3.969689   4.459419
                    6          7          8          9         10
     6  C    0.000000
     7  H    2.166504   0.000000
     8  H    3.415497   2.470385   0.000000
     9  H    2.161841   4.316834   4.991713   0.000000
    10  H    1.090167   2.481477   4.302836   2.504818   0.000000
    11  C    3.770184   5.363107   4.673333   2.696024   4.653859
    12  C    4.264732   4.666714   2.771996   4.612476   5.354879
    13  C    4.924673   6.191699   4.939887   4.107925   5.898345
    14  H    5.871278   7.229892   5.975966   4.800932   6.797784
    15  C    5.102050   5.872177   4.128376   4.882039   6.168636
    16  H    6.173091   6.806237   4.846769   5.954446   7.246344
    17  O    4.200392   6.095255   5.787780   2.481741   4.868366
    18  Cl   5.343216   5.043861   2.630073   6.145327   6.396617
    19  C    5.340514   7.161196   6.848905   3.700146   5.912242
    20  C    6.036641   7.646379   6.865398   4.632249   6.778009
    21  H    6.976113   8.630928   7.777858   5.435632   7.706219
    22  C    6.129108   8.131100   8.071290   4.170083   6.523639
    23  H    6.751311   8.730042   8.798393   4.857562   7.046101
    24  H    6.924650   8.919860   8.681400   4.929688   7.375664
    25  H    5.654820   7.757950   7.960743   3.559827   5.926260
    26  C    4.525288   6.246185   6.223630   3.223435   5.005999
    27  H    3.895306   5.399027   5.198738   3.067115   4.529331
    28  H    5.349598   6.919131   6.907354   4.221901   5.759085
    29  H    4.100176   5.976896   6.373389   2.647733   4.370984
    30  C    5.801522   7.094041   5.953825   4.855427   6.683034
    31  H    6.668688   7.797399   6.367211   5.834512   7.605974
    32  H    5.183985   6.300197   5.188057   4.572084   6.075343
    33  O    4.526530   6.661708   7.175110   2.450407   4.672566
    34  H    3.743964   5.884914   6.317560   1.602858   4.016811
    35  H    5.126871   7.210590   7.426149   3.078835   5.421386
    36  O    6.208370   8.127342   7.797257   4.343378   6.736890
    37  H    6.011825   7.802597   7.364632   4.365354   6.599821
    38  H    5.827227   7.720374   7.270157   3.993229   6.437794
                   11         12         13         14         15
    11  C    0.000000
    12  C    2.821345   0.000000
    13  C    1.419258   2.427946   0.000000
    14  H    2.172810   3.378387   1.092127   0.000000
    15  C    2.463010   1.361253   1.435683   2.171017   0.000000
    16  H    3.439202   2.147325   2.173572   2.475089   1.093355
    17  O    1.284080   4.102714   2.349497   2.649835   3.640681
    18  Cl   4.550226   1.728897   4.014937   4.832123   2.668135
    19  C    2.790856   5.133899   3.343773   3.509153   4.567285
    20  C    2.840311   4.719898   2.731898   2.682052   3.873579
    21  H    3.553616   5.452545   3.238012   2.798053   4.419818
    22  C    3.778287   6.406224   4.428474   4.355729   5.781941
    23  H    4.740956   7.261391   5.387509   5.348177   6.685658
    24  H    4.143936   6.760565   4.544607   4.203277   5.948984
    25  H    3.766366   6.529926   4.683071   4.692417   6.040387
    26  C    3.103684   5.057999   3.921179   4.436749   4.869063
    27  H    2.718135   4.157676   3.477653   4.215471   4.161921
    28  H    4.127716   5.823761   4.776621   5.246408   5.633224
    29  H    3.444732   5.554055   4.537932   5.079979   5.511101
    30  C    2.680521   3.687181   2.136179   2.386731   2.854028
    31  H    3.438572   3.888468   2.472059   2.461529   2.858569
    32  H    2.725346   3.257890   2.452966   3.084017   2.818412
    33  O    3.546516   6.170459   4.758443   4.932599   5.951775
    34  H    2.768259   5.347565   4.083750   4.429933   5.214339
    35  H    3.383494   6.079466   4.386940   4.360352   5.662550
    36  O    3.369426   5.881589   3.783976   3.325555   5.105307
    37  H    3.241524   5.468154   3.564459   3.138330   4.735283
    38  H    2.659956   5.245863   3.027642   2.616281   4.424882
                   16         17         18         19         20
    16  H    0.000000
    17  O    4.516092   0.000000
    18  Cl   2.832178   5.831150   0.000000
    19  C    5.272482   2.056086   6.750856   0.000000
    20  C    4.344068   2.548358   6.229367   1.409471   0.000000
    21  H    4.705124   3.130261   6.929437   2.146498   1.094980
    22  C    6.462111   2.656907   8.079685   1.488031   2.505611
    23  H    7.350800   3.673648   8.893799   2.153433   3.163597
    24  H    6.496034   3.041673   8.427316   2.179306   2.654599
    25  H    6.826315   2.517520   8.242395   2.155726   3.323730
    26  C    5.708615   2.667399   6.573453   1.488779   2.537068
    27  H    5.044454   2.764458   5.586504   2.182341   2.795626
    28  H    6.383777   3.725660   7.218023   2.139530   2.984996
    29  H    6.442916   2.834461   7.095746   2.172010   3.446999
    30  C    3.245299   3.023060   5.034132   2.460045   1.383668
    31  H    2.859642   3.898759   4.994418   3.441207   2.153582
    32  H    3.370080   3.280012   4.516126   2.783730   2.171611
    33  O    6.868105   2.538116   7.848422   3.719222   4.722362
    34  H    6.183039   1.867094   7.022723   3.130337   4.142383
    35  H    6.481083   2.318684   7.776902   3.603090   4.386992
    36  O    5.675954   2.528976   7.529693   3.738345   3.936595
    37  H    5.286278   2.725800   7.046592   4.296277   4.370810
    38  H    5.017663   1.793045   6.920949   2.843409   2.954853
                   21         22         23         24         25
    21  H    0.000000
    22  C    2.670106   0.000000
    23  H    3.306163   1.103468   0.000000
    24  H    2.361259   1.099254   1.768968   0.000000
    25  H    3.570596   1.107498   1.766044   1.768864   0.000000
    26  C    3.491705   2.524133   2.793246   3.489236   2.834277
    27  H    3.872431   3.460702   3.862362   4.327411   3.708969
    28  H    3.859658   2.989080   2.865544   3.936364   3.485078
    29  H    4.313690   2.687239   2.888221   3.753902   2.578090
    30  C    2.132297   3.794267   4.441543   4.009198   4.482258
    31  H    2.463596   4.653223   5.287660   4.677253   5.399911
    32  H    3.114002   4.256340   4.816980   4.701626   4.833691
    33  O    5.093151   3.303175   4.062935   3.711869   2.315560
    34  H    4.690556   3.096051   3.893818   3.683735   2.283716
    35  H    4.580209   3.118527   4.019661   3.244366   2.285190
    36  O    3.768796   3.380672   4.414623   2.974313   3.076455
    37  H    4.281975   4.180773   5.250877   3.855806   3.853193
    38  H    2.874264   2.740878   3.827815   2.432526   2.671765
                   26         27         28         29         30
    26  C    0.000000
    27  H    1.101064   0.000000
    28  H    1.105546   1.763788   0.000000
    29  H    1.100533   1.763303   1.765465   0.000000
    30  C    3.025812   2.754691   3.456859   4.017377   0.000000
    31  H    4.097923   3.798664   4.435298   5.103767   1.089206
    32  H    2.775578   2.160364   3.153140   3.749326   1.088967
    33  O    4.022902   4.444866   4.975575   3.444488   5.490171
    34  H    3.242870   3.532903   4.260215   2.709428   4.764229
    35  H    4.253114   4.687414   5.217750   3.902936   5.207665
    36  O    4.850237   5.213173   5.772198   4.899210   4.719724
    37  H    5.298564   5.481732   6.290422   5.355948   4.907248
    38  H    4.019829   4.359163   4.923200   4.224147   3.746350
                   31         32         33         34         35
    31  H    0.000000
    32  H    1.824692   0.000000
    33  O    6.395020   5.677053   0.000000
    34  H    5.716675   4.830090   0.982925   0.000000
    35  H    6.009435   5.570266   0.986643   1.549389   0.000000
    36  O    5.247733   5.378490   2.789483   3.023359   1.824302
    37  H    5.359400   5.508909   3.116827   3.272493   2.233673
    38  H    4.321582   4.419969   2.881305   2.813007   2.072591
                   36         37         38
    36  O    0.000000
    37  H    0.960490   0.000000
    38  H    0.991432   1.545914   0.000000
 Stoichiometry    C15H19ClO3
 Framework group  C1[X(C15H19ClO3)]
 Deg. of freedom   108
 Full point group                 C1      NOp   1
 Largest Abelian subgroup         C1      NOp   1
 Largest concise Abelian subgroup C1      NOp   1
                         Standard orientation:                         
 ---------------------------------------------------------------------
 Center     Atomic      Atomic             Coordinates (Angstroms)
 Number     Number       Type             X           Y           Z
 ---------------------------------------------------------------------
      1          6           0        2.577995    2.748269   -0.473854
      2          6           0        2.982276    1.443869   -0.253480
      3          6           0        2.028433    0.443834    0.066818
      4          6           0        0.662391    0.800311    0.149871
      5          6           0        0.272794    2.143648   -0.069664
      6          6           0        1.213589    3.105913   -0.379499
      7          1           0        3.313042    3.516974   -0.721649
      8          1           0        4.040096    1.189217   -0.327005
      9          1           0       -0.791214    2.397900    0.011705
     10          1           0        0.917124    4.140554   -0.552963
     11          6           0       -0.342198   -0.218656    0.481348
     12          6           0        2.382394   -0.934449    0.325702
     13          6           0        0.066072   -1.560852    0.696099
     14          1           0       -0.597757   -2.240647    1.234571
     15          6           0        1.464583   -1.883203    0.658114
     16          1           0        1.758240   -2.912291    0.882099
     17          8           0       -1.588426    0.089548    0.453296
     18         17           0        4.049533   -1.381742    0.227401
     19          6           0       -2.497199   -0.636701   -1.242046
     20          6           0       -2.028551   -1.946409   -1.014797
     21          1           0       -2.718305   -2.654251   -0.543436
     22          6           0       -3.881778   -0.269251   -0.839358
     23          1           0       -4.542740   -0.158826   -1.716043
     24          1           0       -4.359684   -0.998406   -0.169808
     25          1           0       -3.905908    0.705204   -0.313614
     26          6           0       -1.827854    0.290054   -2.195758
     27          1           0       -0.728133    0.242481   -2.169438
     28          1           0       -2.121004    0.047928   -3.233867
     29          1           0       -2.097803    1.344996   -2.036394
     30          6           0       -0.701892   -2.315980   -1.148697
     31          1           0       -0.388970   -3.341531   -0.957138
     32          1           0        0.005247   -1.745653   -1.749139
     33          8           0       -2.903837    2.119670    1.221625
     34          1           0       -2.169897    1.855606    0.623508
     35          1           0       -3.092481    1.300001    1.737397
     36          8           0       -3.077342   -0.382564    2.442255
     37          1           0       -2.327207   -0.344534    3.040913
     38          1           0       -2.704196   -0.730714    1.592260
 ---------------------------------------------------------------------
 Rotational constants (GHZ):      0.4948877      0.2477821      0.2059225
 Standard basis: 6-31+G(d,p) (6D, 7F)
 There are   460 symmetry adapted cartesian basis functions of A   symmetry.
 There are   460 symmetry adapted basis functions of A   symmetry.
   460 basis functions,   765 primitive gaussians,   460 cartesian basis functions
    75 alpha electrons       75 beta electrons
       nuclear repulsion energy      1642.2283889374 Hartrees.
 NAtoms=   38 NActive=   38 NUniq=   38 SFac= 1.00D+00 NAtFMM=   60 NAOKFM=F Big=F
 Integral buffers will be    131072 words long.
 Raffenetti 2 integral format.
 Two-electron integral symmetry is turned on.
 Nuclear repulsion after empirical dispersion term =     1642.1776827840 Hartrees.
 Force inversion solution in PCM.
 ------------------------------------------------------------------------------
 Polarizable Continuum Model (PCM)
 =================================
 Model                : C-PCM.
 Atomic radii         : UFF (Universal Force Field).
 Polarization charges : Total charges.
 Charge compensation  : None.
 Solution method      : Matrix inversion.
 Cavity type          : Scaled VdW (van der Waals Surface) (Alpha=1.100).
 Cavity algorithm     : GePol (No added spheres)
                        Default sphere list used, NSphG=   38.
                        Lebedev-Laikov grids with approx.  5.0 points / Ang**2.
                        Smoothing algorithm: Karplus/York (Gamma=1.0000).
                        Polarization charges: spherical gaussians, with
                                              point-specific exponents (IZeta= 3).
                        Self-potential: point-specific (ISelfS= 7).
                        Self-field    : sphere-specific E.n sum rule (ISelfD= 2).
 1st derivatives      : Analytical E(r).r(x)/FMM algorithm (CHGder, D1EAlg=3).
                        Cavity 1st derivative terms included.
 2nd derivatives      : Analytical E(r).r(xy)/FMM algorithm (CHGder, D2EAlg=3).
                        Cavity 2nd derivative terms included.
 Solvent              : Water, Eps=  78.355300 Eps(inf)=   1.777849
 ------------------------------------------------------------------------------
 One-electron integrals computed using PRISM.
 NBasis=   460 RedAO= T EigKep=  1.20D-06  NBF=   460
 NBsUse=   457 1.00D-06 EigRej=  7.81D-07 NBFU=   457
 ExpMin= 4.38D-02 ExpMax= 2.52D+04 ExpMxC= 3.78D+03 IAcc=2 IRadAn=         4 AccDes= 0.00D+00
 Harris functional with IExCor=  402 and IRadAn=       4 diagonalized for initial guess.
 HarFok:  IExCor=  402 AccDes= 0.00D+00 IRadAn=         4 IDoV= 1 UseB2=F ITyADJ=14
 ICtDFT=  3500011 ScaDFX=  1.000000  1.000000  1.000000  1.000000
 FoFCou: FMM=F IPFlag=           0 FMFlag=      100000 FMFlg1=           0
         NFxFlg=           0 DoJE=T BraDBF=F KetDBF=T FulRan=T
         wScrn=  0.000000 ICntrl=     500 IOpCl=  0 I1Cent=   200000004 NGrid=           0
         NMat0=    1 NMatS0=      1 NMatT0=    0 NMatD0=    1 NMtDS0=    0 NMtDT0=    0
 Petite list used in FoFCou.
 Requested convergence on RMS density matrix=1.00D-08 within 128 cycles.
 Requested convergence on MAX density matrix=1.00D-06.
 Requested convergence on             energy=1.00D-06.
 No special actions if energy rises.
 Inv3:  Mode=1 IEnd=    20124300.
 Iteration    1 A*A^-1 deviation from unit magnitude is 8.10D-15 for   2581.
 Iteration    1 A*A^-1 deviation from orthogonality  is 2.35D-15 for   2572   2212.
 Iteration    1 A^-1*A deviation from unit magnitude is 8.10D-15 for   2581.
 Iteration    1 A^-1*A deviation from orthogonality  is 2.15D-15 for   2406    853.
 Error on total polarization charges =  0.02210
 SCF Done:  E(RB3LYP) =  -1268.96578728     A.U. after   16 cycles
            NFock= 16  Conv=0.38D-08     -V/T= 2.0071
 DoSCS=F DFT=T ScalE2(SS,OS)=  1.000000  1.000000
 Range of M.O.s used for correlation:     1   457
 NBasis=   460 NAE=    75 NBE=    75 NFC=     0 NFV=     0
 NROrb=    457 NOA=    75 NOB=    75 NVA=   382 NVB=   382

 **** Warning!!: The largest alpha MO coefficient is  0.15609871D+03

 PrsmSu:  requested number of processors reduced to:   2 ShMem   1 Linda.
 Symmetrizing basis deriv contribution to polar:
 IMax=3 JMax=2 DiffMx= 0.00D+00
 G2DrvN: will do    13 centers at a time, making    3 passes.
 Calling FoFCou, ICntrl=  3107 FMM=F I1Cent=   0 AccDes= 0.00D+00.
 Calling FoFCou, ICntrl=  3107 FMM=F I1Cent=   0 AccDes= 0.00D+00.
 Calling FoFCou, ICntrl=  3107 FMM=F I1Cent=   0 AccDes= 0.00D+00.
 NEqPCM:  Using equilibrium solvation (IEInf=0, Eps=  78.3553, EpsInf=   1.7778)
 G2PCM: DoFxE=T DoFxN=T DoGrad=T DoDP/DQ/DG/TGxP=FFFF NFrqRd=   0 IEInf=0 SqF1=F DoCFld=F IF1Alg=4.
 CoulSu:  requested number of processors reduced to:   3 ShMem   1 Linda.
 CoulSu:  requested number of processors reduced to:   3 ShMem   1 Linda.
 CoulSu:  requested number of processors reduced to:   3 ShMem   1 Linda.
 CoulSu:  requested number of processors reduced to:   3 ShMem   1 Linda.
 End of G2Drv F.D. properties file   721 does not exist.
 End of G2Drv F.D. properties file   722 does not exist.
 End of G2Drv F.D. properties file   788 does not exist.
          IDoAtm=11111111111111111111111111111111111111
 NEqPCM:  Using equilibrium solvation (IEInf=0, Eps=  78.3553, EpsInf=   1.7778)
          Differentiating once with respect to nuclear coordinates.
          There are   117 degrees of freedom in the 1st order CPHF.  IDoFFX=6 NUNeed=     0.
    114 vectors produced by pass  0 Test12= 2.87D-14 1.00D-09 XBig12= 2.94D-01 1.45D-01.
 AX will form    40 AO Fock derivatives at one time.
    114 vectors produced by pass  1 Test12= 2.87D-14 1.00D-09 XBig12= 4.19D-02 3.11D-02.
    111 vectors produced by pass  2 Test12= 2.87D-14 1.00D-09 XBig12= 4.06D-04 2.74D-03.
    111 vectors produced by pass  3 Test12= 2.87D-14 1.00D-09 XBig12= 1.80D-06 1.43D-04.
    111 vectors produced by pass  4 Test12= 2.87D-14 1.00D-09 XBig12= 4.87D-09 5.89D-06.
    111 vectors produced by pass  5 Test12= 2.87D-14 1.00D-09 XBig12= 1.75D-11 3.15D-07.
    102 vectors produced by pass  6 Test12= 2.87D-14 1.00D-09 XBig12= 1.80D-12 1.27D-07.
     29 vectors produced by pass  7 Test12= 2.87D-14 1.00D-09 XBig12= 4.02D-14 1.54D-08.
     18 vectors produced by pass  8 Test12= 2.87D-14 1.00D-09 XBig12= 6.70D-15 7.57D-09.
     18 vectors produced by pass  9 Test12= 2.87D-14 1.00D-09 XBig12= 6.40D-14 1.60D-08.
     15 vectors produced by pass 10 Test12= 2.87D-14 1.00D-09 XBig12= 2.62D-14 1.36D-08.
     14 vectors produced by pass 11 Test12= 2.87D-14 1.00D-09 XBig12= 5.59D-14 1.62D-08.
     10 vectors produced by pass 12 Test12= 2.87D-14 1.00D-09 XBig12= 2.48D-14 1.23D-08.
      8 vectors produced by pass 13 Test12= 2.87D-14 1.00D-09 XBig12= 2.60D-14 1.07D-08.
      8 vectors produced by pass 14 Test12= 2.87D-14 1.00D-09 XBig12= 2.82D-14 1.14D-08.
      8 vectors produced by pass 15 Test12= 2.87D-14 1.00D-09 XBig12= 1.59D-14 7.47D-09.
      8 vectors produced by pass 16 Test12= 2.87D-14 1.00D-09 XBig12= 2.12D-14 9.33D-09.
      8 vectors produced by pass 17 Test12= 2.87D-14 1.00D-09 XBig12= 1.29D-14 7.62D-09.
      7 vectors produced by pass 18 Test12= 2.87D-14 1.00D-09 XBig12= 1.01D-14 6.41D-09.
      7 vectors produced by pass 19 Test12= 2.87D-14 1.00D-09 XBig12= 1.41D-14 8.69D-09.
      7 vectors produced by pass 20 Test12= 2.87D-14 1.00D-09 XBig12= 1.40D-14 7.59D-09.
      6 vectors produced by pass 21 Test12= 2.87D-14 1.00D-09 XBig12= 8.23D-15 6.06D-09.
      6 vectors produced by pass 22 Test12= 2.87D-14 1.00D-09 XBig12= 1.46D-14 8.00D-09.
      6 vectors produced by pass 23 Test12= 2.87D-14 1.00D-09 XBig12= 9.42D-15 5.57D-09.
      6 vectors produced by pass 24 Test12= 2.87D-14 1.00D-09 XBig12= 8.48D-15 5.26D-09.
      6 vectors produced by pass 25 Test12= 2.87D-14 1.00D-09 XBig12= 1.29D-14 6.42D-09.
      6 vectors produced by pass 26 Test12= 2.87D-14 1.00D-09 XBig12= 1.17D-14 6.58D-09.
      6 vectors produced by pass 27 Test12= 2.87D-14 1.00D-09 XBig12= 8.77D-15 5.42D-09.
      6 vectors produced by pass 28 Test12= 2.87D-14 1.00D-09 XBig12= 5.11D-15 4.45D-09.
      6 vectors produced by pass 29 Test12= 2.87D-14 1.00D-09 XBig12= 6.54D-15 4.22D-09.
      6 vectors produced by pass 30 Test12= 2.87D-14 1.00D-09 XBig12= 8.69D-15 5.37D-09.
      6 vectors produced by pass 31 Test12= 2.87D-14 1.00D-09 XBig12= 7.41D-15 6.27D-09.
      6 vectors produced by pass 32 Test12= 2.87D-14 1.00D-09 XBig12= 8.27D-15 5.82D-09.
      6 vectors produced by pass 33 Test12= 2.87D-14 1.00D-09 XBig12= 1.06D-14 7.08D-09.
      6 vectors produced by pass 34 Test12= 2.87D-14 1.00D-09 XBig12= 8.81D-15 6.02D-09.
      6 vectors produced by pass 35 Test12= 2.87D-14 1.00D-09 XBig12= 1.51D-14 7.45D-09.
      6 vectors produced by pass 36 Test12= 2.87D-14 1.00D-09 XBig12= 6.44D-15 5.37D-09.
      6 vectors produced by pass 37 Test12= 2.87D-14 1.00D-09 XBig12= 9.18D-15 6.70D-09.
      6 vectors produced by pass 38 Test12= 2.87D-14 1.00D-09 XBig12= 1.84D-14 8.06D-09.
      5 vectors produced by pass 39 Test12= 2.87D-14 1.00D-09 XBig12= 5.97D-15 4.43D-09.
      5 vectors produced by pass 40 Test12= 2.87D-14 1.00D-09 XBig12= 6.32D-15 4.70D-09.
      5 vectors produced by pass 41 Test12= 2.87D-14 1.00D-09 XBig12= 9.80D-15 6.74D-09.
      5 vectors produced by pass 42 Test12= 2.87D-14 1.00D-09 XBig12= 8.07D-15 5.56D-09.
      5 vectors produced by pass 43 Test12= 2.87D-14 1.00D-09 XBig12= 8.06D-15 5.35D-09.
      3 vectors produced by pass 44 Test12= 2.87D-14 1.00D-09 XBig12= 2.46D-15 3.00D-09.
      3 vectors produced by pass 45 Test12= 2.87D-14 1.00D-09 XBig12= 9.31D-15 6.24D-09.
      3 vectors produced by pass 46 Test12= 2.87D-14 1.00D-09 XBig12= 4.38D-15 3.70D-09.
      2 vectors produced by pass 47 Test12= 2.87D-14 1.00D-09 XBig12= 3.65D-15 4.20D-09.
 InvSVY:  IOpt=1 It=  1 EMax= 8.88D-16
 Solved reduced A of dimension  1083 with   117 vectors.
 End of Minotr F.D. properties file   721 does not exist.
 End of Minotr F.D. properties file   722 does not exist.
 End of Minotr F.D. properties file   788 does not exist.

 **********************************************************************

            Population analysis using the SCF density.

 **********************************************************************

 Orbital symmetries:
       Occupied  (A) (A) (A) (A) (A) (A) (A) (A) (A) (A) (A) (A)
                 (A) (A) (A) (A) (A) (A) (A) (A) (A) (A) (A) (A)
                 (A) (A) (A) (A) (A) (A) (A) (A) (A) (A) (A) (A)
                 (A) (A) (A) (A) (A) (A) (A) (A) (A) (A) (A) (A)
                 (A) (A) (A) (A) (A) (A) (A) (A) (A) (A) (A) (A)
                 (A) (A) (A) (A) (A) (A) (A) (A) (A) (A) (A) (A)
                 (A) (A) (A)
       Virtual   (A) (A) (A) (A) (A) (A) (A) (A) (A) (A) (A) (A)
                 (A) (A) (A) (A) (A) (A) (A) (A) (A) (A) (A) (A)
                 (A) (A) (A) (A) (A) (A) (A) (A) (A) (A) (A) (A)
                 (A) (A) (A) (A) (A) (A) (A) (A) (A) (A) (A) (A)
                 (A) (A) (A) (A) (A) (A) (A) (A) (A) (A) (A) (A)
                 (A) (A) (A) (A) (A) (A) (A) (A) (A) (A) (A) (A)
                 (A) (A) (A) (A) (A) (A) (A) (A) (A) (A) (A) (A)
                 (A) (A) (A) (A) (A) (A) (A) (A) (A) (A) (A) (A)
                 (A) (A) (A) (A) (A) (A) (A) (A) (A) (A) (A) (A)
                 (A) (A) (A) (A) (A) (A) (A) (A) (A) (A) (A) (A)
                 (A) (A) (A) (A) (A) (A) (A) (A) (A) (A) (A) (A)
                 (A) (A) (A) (A) (A) (A) (A) (A) (A) (A) (A) (A)
                 (A) (A) (A) (A) (A) (A) (A) (A) (A) (A) (A) (A)
                 (A) (A) (A) (A) (A) (A) (A) (A) (A) (A) (A) (A)
                 (A) (A) (A) (A) (A) (A) (A) (A) (A) (A) (A) (A)
                 (A) (A) (A) (A) (A) (A) (A) (A) (A) (A) (A) (A)
                 (A) (A) (A) (A) (A) (A) (A) (A) (A) (A) (A) (A)
                 (A) (A) (A) (A) (A) (A) (A) (A) (A) (A) (A) (A)
                 (A) (A) (A) (A) (A) (A) (A) (A) (A) (A) (A) (A)
                 (A) (A) (A) (A) (A) (A) (A) (A) (A) (A) (A) (A)
                 (A) (A) (A) (A) (A) (A) (A) (A) (A) (A) (A) (A)
                 (A) (A) (A) (A) (A) (A) (A) (A) (A) (A) (A) (A)
                 (A) (A) (A) (A) (A) (A) (A) (A) (A) (A) (A) (A)
                 (A) (A) (A) (A) (A) (A) (A) (A) (A) (A) (A) (A)
                 (A) (A) (A) (A) (A) (A) (A) (A) (A) (A) (A) (A)
                 (A) (A) (A) (A) (A) (A) (A) (A) (A) (A) (A) (A)
                 (A) (A) (A) (A) (A) (A) (A) (A) (A) (A) (A) (A)
                 (A) (A) (A) (A) (A) (A) (A) (A) (A) (A) (A) (A)
                 (A) (A) (A) (A) (A) (A) (A) (A) (A) (A) (A) (A)
                 (A) (A) (A) (A) (A) (A) (A) (A) (A) (A) (A) (A)
                 (A) (A) (A) (A) (A) (A) (A) (A) (A) (A) (A) (A)
                 (A) (A) (A) (A) (A) (A) (A) (A) (A) (A)
 The electronic state is 1-A.
 Alpha  occ. eigenvalues -- -101.56376 -19.16315 -19.15745 -19.13360 -10.26466
 Alpha  occ. eigenvalues --  -10.26168 -10.25101 -10.22659 -10.22498 -10.21873
 Alpha  occ. eigenvalues --  -10.21733 -10.21468 -10.21133 -10.20938 -10.20860
 Alpha  occ. eigenvalues --  -10.20793 -10.19688 -10.19343 -10.18744  -9.47924
 Alpha  occ. eigenvalues --   -7.24307  -7.23372  -7.23334  -1.04740  -1.01536
 Alpha  occ. eigenvalues --   -0.98322  -0.91091  -0.86764  -0.84154  -0.82747
 Alpha  occ. eigenvalues --   -0.77218  -0.76884  -0.75392  -0.71105  -0.70716
 Alpha  occ. eigenvalues --   -0.64414  -0.63815  -0.63299  -0.59113  -0.54458
 Alpha  occ. eigenvalues --   -0.54398  -0.53453  -0.52775  -0.51137  -0.50197
 Alpha  occ. eigenvalues --   -0.48887  -0.47729  -0.46959  -0.46557  -0.45382
 Alpha  occ. eigenvalues --   -0.44559  -0.44312  -0.42595  -0.42155  -0.40904
 Alpha  occ. eigenvalues --   -0.40716  -0.40158  -0.39447  -0.39088  -0.38357
 Alpha  occ. eigenvalues --   -0.37415  -0.36911  -0.36803  -0.36489  -0.36328
 Alpha  occ. eigenvalues --   -0.35604  -0.32553  -0.32312  -0.31512  -0.30041
 Alpha  occ. eigenvalues --   -0.29337  -0.28551  -0.27508  -0.24516  -0.21854
 Alpha virt. eigenvalues --   -0.07483  -0.05764  -0.02697  -0.00221   0.00220
 Alpha virt. eigenvalues --    0.00805   0.01432   0.01811   0.02026   0.02501
 Alpha virt. eigenvalues --    0.02958   0.03448   0.03751   0.04693   0.05022
 Alpha virt. eigenvalues --    0.05472   0.05886   0.06018   0.06567   0.07344
 Alpha virt. eigenvalues --    0.07559   0.08014   0.08373   0.08541   0.08840
 Alpha virt. eigenvalues --    0.09847   0.10139   0.10432   0.10921   0.11314
 Alpha virt. eigenvalues --    0.11750   0.11982   0.12346   0.13177   0.13359
 Alpha virt. eigenvalues --    0.13935   0.14190   0.14494   0.14951   0.15121
 Alpha virt. eigenvalues --    0.15553   0.15830   0.16143   0.16413   0.16859
 Alpha virt. eigenvalues --    0.17380   0.17736   0.17854   0.18290   0.18645
 Alpha virt. eigenvalues --    0.19493   0.19557   0.19846   0.20133   0.20473
 Alpha virt. eigenvalues --    0.20727   0.21015   0.21427   0.21824   0.22092
 Alpha virt. eigenvalues --    0.22301   0.22522   0.22782   0.23248   0.23660
 Alpha virt. eigenvalues --    0.23886   0.24177   0.24366   0.24598   0.25495
 Alpha virt. eigenvalues --    0.25624   0.25847   0.26420   0.26685   0.26762
 Alpha virt. eigenvalues --    0.27118   0.27440   0.27540   0.27872   0.28231
 Alpha virt. eigenvalues --    0.28701   0.29245   0.29837   0.30180   0.30431
 Alpha virt. eigenvalues --    0.31122   0.31633   0.32101   0.32486   0.32921
 Alpha virt. eigenvalues --    0.33692   0.34153   0.34836   0.35337   0.35656
 Alpha virt. eigenvalues --    0.36084   0.36486   0.37538   0.38454   0.39431
 Alpha virt. eigenvalues --    0.39853   0.40427   0.41080   0.42455   0.43550
 Alpha virt. eigenvalues --    0.44712   0.45401   0.47114   0.47604   0.48900
 Alpha virt. eigenvalues --    0.50582   0.51114   0.51954   0.55829   0.57721
 Alpha virt. eigenvalues --    0.59021   0.61671   0.63271   0.64304   0.65631
 Alpha virt. eigenvalues --    0.66744   0.68185   0.68686   0.69039   0.70193
 Alpha virt. eigenvalues --    0.70439   0.71027   0.72405   0.72863   0.73209
 Alpha virt. eigenvalues --    0.73608   0.74140   0.75533   0.75632   0.76765
 Alpha virt. eigenvalues --    0.77264   0.77438   0.78315   0.79815   0.80504
 Alpha virt. eigenvalues --    0.81069   0.82326   0.83647   0.84387   0.85247
 Alpha virt. eigenvalues --    0.85604   0.86017   0.86741   0.87328   0.87996
 Alpha virt. eigenvalues --    0.88519   0.90013   0.90319   0.91976   0.93042
 Alpha virt. eigenvalues --    0.93403   0.94214   0.95903   0.96666   0.97334
 Alpha virt. eigenvalues --    0.97978   0.99011   0.99943   1.00030   1.01301
 Alpha virt. eigenvalues --    1.01729   1.02051   1.02839   1.03671   1.04951
 Alpha virt. eigenvalues --    1.06971   1.07582   1.09056   1.09601   1.10142
 Alpha virt. eigenvalues --    1.10997   1.11654   1.13210   1.13805   1.14467
 Alpha virt. eigenvalues --    1.15283   1.15756   1.17049   1.18405   1.19558
 Alpha virt. eigenvalues --    1.19760   1.20781   1.21731   1.24057   1.24341
 Alpha virt. eigenvalues --    1.24996   1.25773   1.26496   1.27306   1.27474
 Alpha virt. eigenvalues --    1.29092   1.30391   1.30960   1.32057   1.33102
 Alpha virt. eigenvalues --    1.33516   1.35331   1.36690   1.37399   1.37614
 Alpha virt. eigenvalues --    1.38912   1.40048   1.40514   1.42255   1.43061
 Alpha virt. eigenvalues --    1.44159   1.45324   1.45783   1.46947   1.48107
 Alpha virt. eigenvalues --    1.49475   1.51299   1.52076   1.53528   1.56398
 Alpha virt. eigenvalues --    1.57315   1.59658   1.60619   1.62043   1.64351
 Alpha virt. eigenvalues --    1.65305   1.65954   1.70731   1.71539   1.73236
 Alpha virt. eigenvalues --    1.75095   1.77155   1.77881   1.78168   1.79370
 Alpha virt. eigenvalues --    1.82072   1.82800   1.83363   1.83606   1.87294
 Alpha virt. eigenvalues --    1.87678   1.88379   1.89382   1.90079   1.90701
 Alpha virt. eigenvalues --    1.91891   1.93214   1.94925   1.95751   1.97014
 Alpha virt. eigenvalues --    1.98625   1.99294   1.99967   2.01823   2.03194
 Alpha virt. eigenvalues --    2.03805   2.04408   2.05371   2.06159   2.06557
 Alpha virt. eigenvalues --    2.07874   2.10196   2.10371   2.12106   2.12282
 Alpha virt. eigenvalues --    2.14099   2.15246   2.17561   2.18385   2.19517
 Alpha virt. eigenvalues --    2.20846   2.21535   2.22608   2.23633   2.25749
 Alpha virt. eigenvalues --    2.27302   2.27883   2.29131   2.29485   2.32851
 Alpha virt. eigenvalues --    2.33879   2.35876   2.36340   2.36794   2.37750
 Alpha virt. eigenvalues --    2.38672   2.40265   2.41282   2.41667   2.44065
 Alpha virt. eigenvalues --    2.45057   2.45324   2.46293   2.47113   2.47933
 Alpha virt. eigenvalues --    2.49646   2.50326   2.51136   2.52660   2.54367
 Alpha virt. eigenvalues --    2.55239   2.55930   2.56906   2.57630   2.58727
 Alpha virt. eigenvalues --    2.59984   2.61026   2.61513   2.62460   2.64303
 Alpha virt. eigenvalues --    2.65672   2.66297   2.66910   2.67989   2.68959
 Alpha virt. eigenvalues --    2.69811   2.70314   2.72063   2.72693   2.74320
 Alpha virt. eigenvalues --    2.75380   2.76166   2.79305   2.80835   2.81684
 Alpha virt. eigenvalues --    2.82280   2.84183   2.86436   2.87385   2.88338
 Alpha virt. eigenvalues --    2.89097   2.94496   2.97128   3.02720   3.03894
 Alpha virt. eigenvalues --    3.05963   3.07353   3.11190   3.12344   3.15390
 Alpha virt. eigenvalues --    3.16043   3.22136   3.23999   3.25991   3.26320
 Alpha virt. eigenvalues --    3.27516   3.32190   3.33659   3.36330   3.37183
 Alpha virt. eigenvalues --    3.45529   3.45868   3.47060   3.49280   3.50556
 Alpha virt. eigenvalues --    3.52537   3.53470   3.59088   3.64329   3.66540
 Alpha virt. eigenvalues --    3.67905   3.76868   3.84247   4.25947   4.30963
 Alpha virt. eigenvalues --    4.32750   4.35500   4.39178   4.39849   4.40765
 Alpha virt. eigenvalues --    4.43985   4.46783   4.49942   4.51600   4.56339
 Alpha virt. eigenvalues --    4.59671   4.67698   4.72447   4.74489   4.76289
 Alpha virt. eigenvalues --    4.91307   5.13909
          Condensed to atoms (all electrons):
               1          2          3          4          5          6
     1  C    7.852281  -2.625928   1.982385   1.453417  -1.341673   1.329994
     2  C   -2.625928  18.523173  -8.731950  -2.745634   3.057747  -2.028964
     3  C    1.982385  -8.731950  24.083440   5.676097  -4.209753   0.561215
     4  C    1.453417  -2.745634   5.676097  20.310477  -6.339926  -1.624984
     5  C   -1.341673   3.057747  -4.209753  -6.339926  17.882537  -3.407345
     6  C    1.329994  -2.028964   0.561215  -1.624984  -3.407345  10.108293
     7  H    0.286265  -0.020140   0.035736  -0.008304   0.047909  -0.021770
     8  H    0.137862   0.193131  -0.020197   0.028672  -0.006338   0.017932
     9  H   -0.002860   0.012057   0.009075   0.000393   0.118090   0.047673
    10  H    0.004186   0.035691  -0.004052   0.018235  -0.028596   0.306586
    11  C   -0.654979  -2.186023  -5.277691  -4.478031   1.021743   0.587522
    12  C   -0.871666  -0.721448  -4.777931  -3.643765  -0.098025   0.497832
    13  C   -0.790901   2.754430  -0.248390  -3.056380  -2.692666   0.270084
    14  H    0.001302  -0.003958  -0.016937   0.034432   0.005114  -0.000899
    15  C   -0.251305   0.755464  -4.204302   0.303115   2.597158  -0.319242
    16  H    0.001280  -0.002776   0.055294  -0.003223  -0.005031   0.000493
    17  O   -0.001393   0.123259   0.182170  -0.079308  -0.185370   0.030437
    18  Cl   0.023908   0.051875   0.047737  -0.003252  -0.107434  -0.002751
    19  C    0.020598   0.031450   0.276068   0.128343   0.046003   0.120904
    20  C   -0.054516   0.015898  -0.100051  -0.503556  -0.222254  -0.024718
    21  H    0.000042  -0.000121  -0.004544  -0.004144   0.007943   0.000163
    22  C   -0.005385   0.009230   0.070974   0.345585  -0.277700  -0.086695
    23  H   -0.000019   0.000043  -0.000088  -0.004299   0.002061   0.000442
    24  H   -0.000011   0.000029   0.000281   0.001298  -0.002963  -0.000541
    25  H    0.000274  -0.000605  -0.001923   0.007010  -0.002110   0.000824
    26  C    0.018482   0.050137   0.150319   0.222357   0.036102  -0.048846
    27  H   -0.002157  -0.014196  -0.008023  -0.084145   0.048939   0.018076
    28  H   -0.000076   0.000997   0.002829   0.010513   0.000477   0.000856
    29  H    0.001798   0.000139  -0.002198   0.044066  -0.037286  -0.008564
    30  C    0.022144  -0.045220  -0.351511  -0.279503   0.384734   0.055814
    31  H    0.000183   0.003083   0.019015  -0.000084   0.000324   0.000029
    32  H    0.002791  -0.022345  -0.083757   0.014227   0.052428  -0.001475
    33  O   -0.005542   0.014660   0.013937  -0.006608   0.021574   0.018233
    34  H   -0.001716   0.000097   0.000931   0.051418  -0.054473  -0.021873
    35  H    0.000073  -0.000612  -0.000887   0.039746  -0.014596  -0.007502
    36  O   -0.001650   0.002354   0.001316  -0.107569   0.016588   0.007998
    37  H    0.000202   0.000067   0.002676  -0.000465   0.005971   0.000458
    38  H    0.000536  -0.001024   0.004056   0.035315   0.003686   0.002412
               7          8          9         10         11         12
     1  C    0.286265   0.137862  -0.002860   0.004186  -0.654979  -0.871666
     2  C   -0.020140   0.193131   0.012057   0.035691  -2.186023  -0.721448
     3  C    0.035736  -0.020197   0.009075  -0.004052  -5.277691  -4.777931
     4  C   -0.008304   0.028672   0.000393   0.018235  -4.478031  -3.643765
     5  C    0.047909  -0.006338   0.118090  -0.028596   1.021743  -0.098025
     6  C   -0.021770   0.017932   0.047673   0.306586   0.587522   0.497832
     7  H    0.540443  -0.004833  -0.000177  -0.004453  -0.000418  -0.003188
     8  H   -0.004833   0.542408   0.000014  -0.000152  -0.004259  -0.043610
     9  H   -0.000177   0.000014   0.622205  -0.005538   0.017346  -0.004415
    10  H   -0.004453  -0.000152  -0.005538   0.541667  -0.012367  -0.002066
    11  C   -0.000418  -0.004259   0.017346  -0.012367  22.304480   5.420649
    12  C   -0.003188  -0.043610  -0.004415  -0.002066   5.420649  15.913553
    13  C   -0.000768  -0.009107   0.074540  -0.000327  -8.295826  -2.534728
    14  H    0.000000   0.000000  -0.000004   0.000000   0.050910   0.024287
    15  C    0.001072   0.018294  -0.005416  -0.000974  -1.000420  -2.569964
    16  H    0.000000  -0.000005   0.000000   0.000000   0.044918   0.096644
    17  O   -0.000015   0.000042   0.007298   0.000352  -0.633801  -0.174809
    18  Cl   0.000298  -0.007289   0.000062   0.000106  -0.020535  -0.371568
    19  C    0.000101  -0.000065  -0.023770  -0.000225  -1.588745  -0.230697
    20  C    0.000007  -0.000013  -0.004954   0.000059   1.110866   0.149133
    21  H    0.000000   0.000000   0.000000   0.000000   0.039784  -0.004575
    22  C   -0.000005  -0.000004   0.007891   0.000030  -0.031013  -0.000594
    23  H    0.000000   0.000000  -0.000002   0.000000  -0.011753  -0.000007
    24  H    0.000000   0.000000   0.000002   0.000000   0.012401  -0.000006
    25  H    0.000000   0.000000   0.000160   0.000000   0.004921   0.000943
    26  C   -0.000195   0.000081   0.022713   0.000318  -0.722407  -0.217043
    27  H    0.000000   0.000000  -0.000367  -0.000002   0.087375   0.011187
    28  H    0.000000   0.000000   0.000015   0.000000  -0.036070  -0.003239
    29  H    0.000000   0.000000   0.000588  -0.000003   0.001035   0.001384
    30  C    0.000021   0.000173  -0.002262  -0.000051   0.570701   0.214428
    31  H    0.000000   0.000000   0.000000   0.000000  -0.080125  -0.003674
    32  H    0.000000   0.000000   0.000003   0.000000   0.130142  -0.033293
    33  O    0.000001   0.000000  -0.004209   0.000021  -0.100619  -0.011856
    34  H    0.000000   0.000000   0.014907  -0.000010   0.017188   0.002235
    35  H    0.000000   0.000000   0.000246   0.000000  -0.003432  -0.000493
    36  O    0.000000   0.000000   0.000369   0.000000   0.201707   0.006912
    37  H    0.000000   0.000000  -0.000003   0.000000   0.003361  -0.000926
    38  H    0.000000   0.000000   0.000026   0.000000  -0.057375   0.001582
              13         14         15         16         17         18
     1  C   -0.790901   0.001302  -0.251305   0.001280  -0.001393   0.023908
     2  C    2.754430  -0.003958   0.755464  -0.002776   0.123259   0.051875
     3  C   -0.248390  -0.016937  -4.204302   0.055294   0.182170   0.047737
     4  C   -3.056380   0.034432   0.303115  -0.003223  -0.079308  -0.003252
     5  C   -2.692666   0.005114   2.597158  -0.005031  -0.185370  -0.107434
     6  C    0.270084  -0.000899  -0.319242   0.000493   0.030437  -0.002751
     7  H   -0.000768   0.000000   0.001072   0.000000  -0.000015   0.000298
     8  H   -0.009107   0.000000   0.018294  -0.000005   0.000042  -0.007289
     9  H    0.074540  -0.000004  -0.005416   0.000000   0.007298   0.000062
    10  H   -0.000327   0.000000  -0.000974   0.000000   0.000352   0.000106
    11  C   -8.295826   0.050910  -1.000420   0.044918  -0.633801  -0.020535
    12  C   -2.534728   0.024287  -2.569964   0.096644  -0.174809  -0.371568
    13  C   21.315391   0.159065  -1.971284  -0.033188   0.280170   0.174964
    14  H    0.159065   0.531452   0.039777  -0.004313   0.009761   0.000301
    15  C   -1.971284   0.039777  12.944365   0.146881   0.113691  -0.236022
    16  H   -0.033188  -0.004313   0.146881   0.524940  -0.000938   0.008715
    17  O    0.280170   0.009761   0.113691  -0.000938   9.069977   0.002612
    18  Cl   0.174964   0.000301  -0.236022   0.008715   0.002612  17.183186
    19  C    0.321890  -0.013797   0.511049  -0.004964   0.162303   0.001069
    20  C    0.736743  -0.053410  -1.010028   0.015711  -0.117304   0.020469
    21  H   -0.034608   0.000776   0.022414  -0.000005  -0.009090  -0.000004
    22  C    0.098228   0.003963  -0.090699   0.000079  -0.128132   0.001069
    23  H    0.005009  -0.000001   0.000491   0.000000   0.003123   0.000000
    24  H   -0.002882  -0.000004   0.000217   0.000000  -0.005171   0.000000
    25  H   -0.007040   0.000009   0.000031   0.000000   0.000122   0.000001
    26  C    0.265005  -0.014806   0.101534   0.000093   0.004924   0.002107
    27  H   -0.026105  -0.000026  -0.006880  -0.000001  -0.009405   0.000230
    28  H    0.006690  -0.000001   0.001614   0.000000   0.006662  -0.000002
    29  H    0.003212   0.000003  -0.002057   0.000000  -0.007433   0.000026
    30  C   -0.967351   0.058358   0.553676  -0.002460   0.024080  -0.017300
    31  H    0.011897  -0.004623   0.022361   0.000845   0.005544   0.001101
    32  H   -0.226709   0.002080   0.142793  -0.000307  -0.002483   0.000959
    33  O    0.028622   0.000023   0.005868   0.000000  -0.019978   0.000074
    34  H    0.006399  -0.000004  -0.002582   0.000000   0.032578   0.000016
    35  H   -0.017923   0.000007  -0.001619   0.000000   0.011057   0.000003
    36  O   -0.071252   0.000259  -0.005970   0.000009  -0.060702   0.000015
    37  H   -0.010825  -0.000092   0.006960   0.000000   0.006750  -0.000008
    38  H   -0.013148  -0.000287   0.024012  -0.000003   0.037697  -0.000009
              19         20         21         22         23         24
     1  C    0.020598  -0.054516   0.000042  -0.005385  -0.000019  -0.000011
     2  C    0.031450   0.015898  -0.000121   0.009230   0.000043   0.000029
     3  C    0.276068  -0.100051  -0.004544   0.070974  -0.000088   0.000281
     4  C    0.128343  -0.503556  -0.004144   0.345585  -0.004299   0.001298
     5  C    0.046003  -0.222254   0.007943  -0.277700   0.002061  -0.002963
     6  C    0.120904  -0.024718   0.000163  -0.086695   0.000442  -0.000541
     7  H    0.000101   0.000007   0.000000  -0.000005   0.000000   0.000000
     8  H   -0.000065  -0.000013   0.000000  -0.000004   0.000000   0.000000
     9  H   -0.023770  -0.004954   0.000000   0.007891  -0.000002   0.000002
    10  H   -0.000225   0.000059   0.000000   0.000030   0.000000   0.000000
    11  C   -1.588745   1.110866   0.039784  -0.031013  -0.011753   0.012401
    12  C   -0.230697   0.149133  -0.004575  -0.000594  -0.000007  -0.000006
    13  C    0.321890   0.736743  -0.034608   0.098228   0.005009  -0.002882
    14  H   -0.013797  -0.053410   0.000776   0.003963  -0.000001  -0.000004
    15  C    0.511049  -1.010028   0.022414  -0.090699   0.000491   0.000217
    16  H   -0.004964   0.015711  -0.000005   0.000079   0.000000   0.000000
    17  O    0.162303  -0.117304  -0.009090  -0.128132   0.003123  -0.005171
    18  Cl   0.001069   0.020469  -0.000004   0.001069   0.000000   0.000000
    19  C    8.570427  -1.507579  -0.029678  -0.407723  -0.049023  -0.069962
    20  C   -1.507579   8.005090   0.348632   0.139217   0.001977  -0.043307
    21  H   -0.029678   0.348632   0.551312  -0.033606   0.000351   0.003447
    22  C   -0.407723   0.139217  -0.033606   6.370300   0.369671   0.456986
    23  H   -0.049023   0.001977   0.000351   0.369671   0.532926  -0.024463
    24  H   -0.069962  -0.043307   0.003447   0.456986  -0.024463   0.539687
    25  H   -0.081756   0.024748   0.000204   0.472367  -0.024931  -0.028628
    26  C   -0.455527  -0.527073   0.000720  -0.436906   0.029305   0.010125
    27  H   -0.090647   0.005088  -0.000071   0.024596   0.000099  -0.000149
    28  H   -0.128118  -0.023869  -0.000054  -0.039854   0.000824  -0.000069
    29  H   -0.047217   0.030882  -0.000114  -0.025903  -0.000270   0.000122
    30  C   -0.058473  -0.225855  -0.000371  -0.233513  -0.002238  -0.006925
    31  H    0.046752  -0.072772  -0.004688  -0.003738   0.000003  -0.000009
    32  H    0.038334  -0.129182   0.004080  -0.005603   0.000010  -0.000002
    33  O    0.061667   0.003161  -0.000040  -0.048091   0.000837   0.001280
    34  H   -0.012030   0.007831  -0.000004  -0.002499   0.000050  -0.000025
    35  H   -0.016404   0.001150   0.000002   0.002613   0.000027  -0.000077
    36  O   -0.006506  -0.011583  -0.001099  -0.011586   0.000313  -0.002594
    37  H   -0.005575  -0.002393   0.000030   0.002031  -0.000002   0.000106
    38  H    0.035688  -0.033358   0.001363  -0.002494   0.000008   0.002507
              25         26         27         28         29         30
     1  C    0.000274   0.018482  -0.002157  -0.000076   0.001798   0.022144
     2  C   -0.000605   0.050137  -0.014196   0.000997   0.000139  -0.045220
     3  C   -0.001923   0.150319  -0.008023   0.002829  -0.002198  -0.351511
     4  C    0.007010   0.222357  -0.084145   0.010513   0.044066  -0.279503
     5  C   -0.002110   0.036102   0.048939   0.000477  -0.037286   0.384734
     6  C    0.000824  -0.048846   0.018076   0.000856  -0.008564   0.055814
     7  H    0.000000  -0.000195   0.000000   0.000000   0.000000   0.000021
     8  H    0.000000   0.000081   0.000000   0.000000   0.000000   0.000173
     9  H    0.000160   0.022713  -0.000367   0.000015   0.000588  -0.002262
    10  H    0.000000   0.000318  -0.000002   0.000000  -0.000003  -0.000051
    11  C    0.004921  -0.722407   0.087375  -0.036070   0.001035   0.570701
    12  C    0.000943  -0.217043   0.011187  -0.003239   0.001384   0.214428
    13  C   -0.007040   0.265005  -0.026105   0.006690   0.003212  -0.967351
    14  H    0.000009  -0.014806  -0.000026  -0.000001   0.000003   0.058358
    15  C    0.000031   0.101534  -0.006880   0.001614  -0.002057   0.553676
    16  H    0.000000   0.000093  -0.000001   0.000000   0.000000  -0.002460
    17  O    0.000122   0.004924  -0.009405   0.006662  -0.007433   0.024080
    18  Cl   0.000001   0.002107   0.000230  -0.000002   0.000026  -0.017300
    19  C   -0.081756  -0.455527  -0.090647  -0.128118  -0.047217  -0.058473
    20  C    0.024748  -0.527073   0.005088  -0.023869   0.030882  -0.225855
    21  H    0.000204   0.000720  -0.000071  -0.000054  -0.000114  -0.000371
    22  C    0.472367  -0.436906   0.024596  -0.039854  -0.025903  -0.233513
    23  H   -0.024931   0.029305   0.000099   0.000824  -0.000270  -0.002238
    24  H   -0.028628   0.010125  -0.000149  -0.000069   0.000122  -0.006925
    25  H    0.502358  -0.065007  -0.000055   0.000088   0.001889   0.001400
    26  C   -0.065007   7.163899   0.430628   0.549696   0.401547  -0.437128
    27  H   -0.000055   0.430628   0.543180  -0.023818  -0.030705  -0.032876
    28  H    0.000088   0.549696  -0.023818   0.524149  -0.027175  -0.003004
    29  H    0.001889   0.401547  -0.030705  -0.027175   0.531527   0.002338
    30  C    0.001400  -0.437128  -0.032876  -0.003004   0.002338   6.474356
    31  H    0.000002   0.017978   0.000063   0.000005  -0.000002   0.374844
    32  H   -0.000008   0.002864  -0.000340   0.000452  -0.000116   0.431398
    33  O    0.003626  -0.032525  -0.000014   0.000032  -0.001449  -0.000461
    34  H   -0.000737   0.004499   0.000003   0.000027   0.000641  -0.001205
    35  H   -0.001369   0.011687   0.000001   0.000000   0.000046  -0.003198
    36  O   -0.001046   0.007909  -0.000016   0.000025  -0.000034   0.009212
    37  H    0.000088  -0.002852   0.000000   0.000000   0.000000   0.005428
    38  H   -0.000653  -0.004081  -0.000015  -0.000007   0.000001   0.006772
              31         32         33         34         35         36
     1  C    0.000183   0.002791  -0.005542  -0.001716   0.000073  -0.001650
     2  C    0.003083  -0.022345   0.014660   0.000097  -0.000612   0.002354
     3  C    0.019015  -0.083757   0.013937   0.000931  -0.000887   0.001316
     4  C   -0.000084   0.014227  -0.006608   0.051418   0.039746  -0.107569
     5  C    0.000324   0.052428   0.021574  -0.054473  -0.014596   0.016588
     6  C    0.000029  -0.001475   0.018233  -0.021873  -0.007502   0.007998
     7  H    0.000000   0.000000   0.000001   0.000000   0.000000   0.000000
     8  H    0.000000   0.000000   0.000000   0.000000   0.000000   0.000000
     9  H    0.000000   0.000003  -0.004209   0.014907   0.000246   0.000369
    10  H    0.000000   0.000000   0.000021  -0.000010   0.000000   0.000000
    11  C   -0.080125   0.130142  -0.100619   0.017188  -0.003432   0.201707
    12  C   -0.003674  -0.033293  -0.011856   0.002235  -0.000493   0.006912
    13  C    0.011897  -0.226709   0.028622   0.006399  -0.017923  -0.071252
    14  H   -0.004623   0.002080   0.000023  -0.000004   0.000007   0.000259
    15  C    0.022361   0.142793   0.005868  -0.002582  -0.001619  -0.005970
    16  H    0.000845  -0.000307   0.000000   0.000000   0.000000   0.000009
    17  O    0.005544  -0.002483  -0.019978   0.032578   0.011057  -0.060702
    18  Cl   0.001101   0.000959   0.000074   0.000016   0.000003   0.000015
    19  C    0.046752   0.038334   0.061667  -0.012030  -0.016404  -0.006506
    20  C   -0.072772  -0.129182   0.003161   0.007831   0.001150  -0.011583
    21  H   -0.004688   0.004080  -0.000040  -0.000004   0.000002  -0.001099
[...]
    22  C   -0.000001  -0.000004   0.001032   0.000020   0.122060   0.013759
    23  H    0.000000   0.000000   0.000001   0.000000  -0.000591   0.000064
    24  H    0.000000   0.000000   0.000001   0.000000   0.009231   0.000116
    25  H    0.000000   0.000000   0.000106   0.000000  -0.009719   0.000152
    26  C   -0.000149   0.000049   0.012489   0.000262  -0.202489  -0.057437
    27  H    0.000000   0.000000  -0.000573  -0.000004   0.077110   0.009444
    28  H    0.000000   0.000000   0.000031   0.000000  -0.022648  -0.001544
    29  H    0.000000   0.000000   0.001279  -0.000004  -0.006766  -0.000095
    30  C    0.000016   0.000086   0.000147  -0.000068  -0.218464   0.095138
    31  H    0.000000   0.000000   0.000000   0.000000  -0.045052  -0.011927
    32  H    0.000000   0.000000   0.000003   0.000000   0.057216  -0.001572
    33  O    0.000000   0.000000   0.000067  -0.000002  -0.044817  -0.001440
    34  H    0.000000   0.000000   0.001484  -0.000001   0.025385   0.004578
    35  H    0.000000   0.000000   0.000046   0.000000  -0.007061   0.000509
    36  O    0.000000   0.000000   0.000103   0.000000  -0.099365   0.003477
    37  H    0.000000   0.000000  -0.000001   0.000000   0.010008  -0.000978
    38  H    0.000000   0.000000  -0.000058   0.000000   0.008043  -0.001373
              13         14         15         16         17         18
     1  C   -0.480141   0.001233  -0.300276   0.001593  -0.003512   0.053959
     2  C    1.923759  -0.000575   0.880320  -0.001037   0.124769  -0.044201
     3  C    0.443337   0.002127  -2.138057   0.056029   0.087029   0.030997
     4  C   -3.523021   0.034564   0.752406  -0.010343  -0.386239  -0.022922
     5  C   -1.705443   0.004639   1.815159  -0.003500  -0.044809  -0.082989
     6  C   -0.272613   0.000117   0.190660   0.000716   0.069322  -0.006904
     7  H   -0.001020   0.000000   0.000631   0.000000   0.000000   0.000264
     8  H   -0.007010   0.000000   0.016007  -0.000005   0.000040  -0.004800
     9  H    0.036125  -0.000005  -0.000994   0.000000   0.013703   0.000062
    10  H   -0.000741   0.000000  -0.000918   0.000000   0.000224   0.000075
    11  C   -5.981909   0.013069  -4.486364   0.030909  -0.349667   0.041040
    12  C   -2.069888   0.033474  -2.034484   0.106669  -0.149096  -0.222286
    13  C   18.907882   0.188448  -1.985019  -0.023530   0.169870   0.046155
    14  H    0.188448   0.539069   0.020538  -0.004461   0.005110   0.000688
    15  C   -1.985019   0.020538  13.511051   0.153753   0.241297  -0.181599
    16  H   -0.023530  -0.004461   0.153753   0.526943  -0.000838   0.004530
    17  O    0.169870   0.005110   0.241297  -0.000838   8.827796   0.000452
    18  Cl   0.046155   0.000688  -0.181599   0.004530   0.000452  17.154793
    19  C    0.394312  -0.006438   0.879679  -0.003356   0.243073   0.000541
    20  C    0.098778  -0.027032  -1.344113   0.006991  -0.172699   0.011516
    21  H    0.000479   0.000343   0.015059  -0.000002  -0.005460  -0.000005
    22  C   -0.078799   0.001855  -0.030233   0.000056  -0.080020   0.000776
    23  H    0.000658   0.000000  -0.000210   0.000000   0.002390   0.000000
    24  H   -0.005604   0.000001  -0.000056   0.000000  -0.003960   0.000000
    25  H    0.001703   0.000002   0.000924   0.000000  -0.003352   0.000001
    26  C   -0.035879  -0.006707   0.089474  -0.000127   0.032348  -0.000865
    27  H   -0.043717  -0.000008  -0.002875  -0.000001  -0.011560   0.000154
    28  H    0.005307  -0.000001   0.000832   0.000000   0.005175  -0.000009
    29  H   -0.002959   0.000002  -0.000309   0.000000  -0.009045   0.000014
    30  C   -0.155526   0.035314   0.340463   0.000717  -0.005894  -0.008596
    31  H    0.005720  -0.001518   0.025745   0.000146   0.003520   0.000577
    32  H   -0.113458   0.000756   0.075704  -0.000098  -0.000454   0.000662
    33  O    0.030601   0.000051   0.001067   0.000000   0.000348   0.000014
    34  H    0.023549  -0.000011  -0.004077   0.000000   0.041165   0.000005
    35  H   -0.000449   0.000002  -0.001151   0.000000   0.013100   0.000000
    36  O    0.043137  -0.001720   0.028946   0.000009   0.013710   0.000006
    37  H   -0.014647   0.000107   0.012202   0.000000  -0.003843   0.000002
    38  H   -0.038630   0.000571   0.017947  -0.000003   0.043368   0.000006
              19         20         21         22         23         24
     1  C   -0.000824  -0.026484  -0.000019   0.000765  -0.000032   0.000005
     2  C    0.121344  -0.096539  -0.000008  -0.004453   0.000005  -0.000007
     3  C    0.048003   0.043834  -0.002876   0.014923  -0.000162   0.000064
     4  C   -0.195751   0.185608  -0.004165   0.045911  -0.002819   0.002570
     5  C    0.170541  -0.460443   0.002988  -0.020195   0.000224  -0.001547
     6  C    0.034779  -0.176448   0.000288  -0.012537   0.000071  -0.000310
     7  H    0.000064  -0.000002   0.000000  -0.000001   0.000000   0.000000
     8  H   -0.000041   0.000021   0.000000  -0.000004   0.000000   0.000000
     9  H   -0.011740  -0.001482   0.000000   0.001032   0.000001   0.000001
    10  H   -0.000028   0.000173   0.000000   0.000020   0.000000   0.000000
    11  C   -1.600255   1.845143  -0.005495   0.122060  -0.000591   0.009231
    12  C   -0.166253   0.078992   0.000450   0.013759   0.000064   0.000116
    13  C    0.394312   0.098778   0.000479  -0.078799   0.000658  -0.005604
    14  H   -0.006438  -0.027032   0.000343   0.001855   0.000000   0.000001
    15  C    0.879679  -1.344113   0.015059  -0.030233  -0.000210  -0.000056
    16  H   -0.003356   0.006991  -0.000002   0.000056   0.000000   0.000000
    17  O    0.243073  -0.172699  -0.005460  -0.080020   0.002390  -0.003960
    18  Cl   0.000541   0.011516  -0.000005   0.000776   0.000000   0.000000
    19  C    8.480670  -2.032989   0.028249  -0.580576  -0.048173  -0.093686
    20  C   -2.032989   8.472826   0.295686   0.331361  -0.002276  -0.023001
    21  H    0.028249   0.295686   0.548747  -0.032622   0.000281   0.003772
    22  C   -0.580576   0.331361  -0.032622   6.268363   0.378373   0.476822
    23  H   -0.048173  -0.002276   0.000281   0.378373   0.519686  -0.023669
    24  H   -0.093686  -0.023001   0.003772   0.476822  -0.023669   0.516790
    25  H   -0.075396   0.016378   0.000211   0.470292  -0.025548  -0.024643
    26  C   -0.224109  -0.344233   0.001548  -0.535556   0.021892   0.005807
    27  H   -0.093322   0.004618  -0.000067   0.023995   0.000068  -0.000148
    28  H   -0.107613  -0.007410  -0.000086  -0.041448   0.000814  -0.000055
    29  H   -0.055434   0.026848  -0.000118  -0.024655  -0.000241   0.000135
    30  C    0.230429  -0.426117   0.002501  -0.170955  -0.003586  -0.010125
    31  H    0.043072  -0.066519  -0.004799  -0.005068   0.000004  -0.000009
    32  H    0.070091  -0.140100   0.004167  -0.005285   0.000005  -0.000002
    33  O   -0.022523  -0.004642   0.000014   0.012292   0.000260   0.000514
    34  H   -0.009336   0.011489  -0.000001  -0.002889   0.000040  -0.000004
    35  H   -0.008624   0.005451   0.000001   0.001368  -0.000006  -0.000048
    36  O    0.020901  -0.039906   0.000592  -0.001229   0.000287  -0.001993
    37  H    0.002052  -0.010184   0.000015   0.004038  -0.000002   0.000067
    38  H    0.004545  -0.013447   0.000943   0.006374  -0.000023   0.000763
              25         26         27         28         29         30
     1  C    0.000161   0.023417  -0.002530   0.000245   0.002016   0.005187
     2  C   -0.000116  -0.053787  -0.009427   0.000483  -0.000912   0.064732
     3  C   -0.000239  -0.000411  -0.006703   0.000445  -0.000805  -0.112321
     4  C    0.007301  -0.046738  -0.081264  -0.001571   0.053372  -0.118318
     5  C   -0.002730   0.137803   0.059600   0.004497  -0.024673   0.176794
     6  C   -0.000195   0.087683   0.023911   0.004433  -0.019517   0.053319
     7  H    0.000000  -0.000149   0.000000   0.000000   0.000000   0.000016
     8  H    0.000000   0.000049   0.000000   0.000000   0.000000   0.000086
     9  H    0.000106   0.012489  -0.000573   0.000031   0.001279   0.000147
    10  H    0.000000   0.000262  -0.000004   0.000000  -0.000004  -0.000068
    11  C   -0.009719  -0.202489   0.077110  -0.022648  -0.006766  -0.218464
    12  C    0.000152  -0.057437   0.009444  -0.001544  -0.000095   0.095138
    13  C    0.001703  -0.035879  -0.043717   0.005307  -0.002959  -0.155526
    14  H    0.000002  -0.006707  -0.000008  -0.000001   0.000002   0.035314
    15  C    0.000924   0.089474  -0.002875   0.000832  -0.000309   0.340463
    16  H    0.000000  -0.000127  -0.000001   0.000000   0.000000   0.000717
    17  O   -0.003352   0.032348  -0.011560   0.005175  -0.009045  -0.005894
    18  Cl   0.000001  -0.000865   0.000154  -0.000009   0.000014  -0.008596
    19  C   -0.075396  -0.224109  -0.093322  -0.107613  -0.055434   0.230429
    20  C    0.016378  -0.344233   0.004618  -0.007410   0.026848  -0.426117
    21  H    0.000211   0.001548  -0.000067  -0.000086  -0.000118   0.002501
    22  C    0.470292  -0.535556   0.023995  -0.041448  -0.024655  -0.170955
    23  H   -0.025548   0.021892   0.000068   0.000814  -0.000241  -0.003586
    24  H   -0.024643   0.005807  -0.000148  -0.000055   0.000135  -0.010125
    25  H    0.504676  -0.051599  -0.000038   0.000168   0.002379  -0.000149
    26  C   -0.051599   6.681408   0.439628   0.504530   0.413470  -0.250983
    27  H   -0.000038   0.439628   0.535267  -0.022968  -0.028230  -0.034641
    28  H    0.000168   0.504530  -0.022968   0.510965  -0.025610   0.002551
    29  H    0.002379   0.413470  -0.028230  -0.025610   0.520919   0.004206
    30  C   -0.000149  -0.250983  -0.034641   0.002551   0.004206   6.026765
    31  H    0.000002   0.015665   0.000034   0.000001  -0.000003   0.370795
    32  H   -0.000004   0.004885   0.001085   0.000111  -0.000105   0.411077
    33  O    0.002240   0.003778  -0.000052   0.000015  -0.000195  -0.001051
    34  H    0.000146  -0.003223  -0.000042   0.000005   0.000225   0.000321
    35  H    0.000006   0.000794   0.000000   0.000000   0.000016   0.000059
    36  O   -0.000792   0.005423  -0.000052   0.000027  -0.000065   0.004168
    37  H    0.000037  -0.001574   0.000000   0.000000   0.000000   0.003527
    38  H    0.000259  -0.010304   0.000004  -0.000010   0.000015   0.006338
              31         32         33         34         35         36
     1  C    0.000215  -0.000823   0.001158  -0.001656  -0.000105   0.000270
     2  C    0.002122  -0.016369   0.002115  -0.000380  -0.000290  -0.000259
     3  C    0.005672  -0.058128   0.003433  -0.002215  -0.000818   0.004100
     4  C    0.002725   0.009136  -0.127071   0.031931   0.022003  -0.009175
     5  C    0.002117   0.029235   0.089955  -0.063810  -0.019651   0.010491
     6  C   -0.000052   0.005633   0.043199  -0.016182  -0.004022   0.000968
     7  H    0.000000   0.000000   0.000000   0.000000   0.000000   0.000000
     8  H    0.000000   0.000000   0.000000   0.000000   0.000000   0.000000
     9  H    0.000000   0.000003   0.000067   0.001484   0.000046   0.000103
    10  H    0.000000   0.000000  -0.000002  -0.000001   0.000000   0.000000
    11  C   -0.045052   0.057216  -0.044817   0.025385  -0.007061  -0.099365
    12  C   -0.011927  -0.001572  -0.001440   0.004578   0.000509   0.003477
    13  C    0.005720  -0.113458   0.030601   0.023549  -0.000449   0.043137
    14  H   -0.001518   0.000756   0.000051  -0.000011   0.000002  -0.001720
    15  C    0.025745   0.075704   0.001067  -0.004077  -0.001151   0.028946
    16  H    0.000146  -0.000098   0.000000   0.000000   0.000000   0.000009
    17  O    0.003520  -0.000454   0.000348   0.041165   0.013100   0.013710
    18  Cl   0.000577   0.000662   0.000014   0.000005   0.000000   0.000006
    19  C    0.043072   0.070091  -0.022523  -0.009336  -0.008624   0.020901
    20  C   -0.066519  -0.140100  -0.004642   0.011489   0.005451  -0.039906
    21  H   -0.004799   0.004167   0.000014  -0.000001   0.000001   0.000592
    22  C   -0.005068  -0.005285   0.012292  -0.002889   0.001368  -0.001229
    23  H    0.000004   0.000005   0.000260   0.000040  -0.000006   0.000287
    24  H   -0.000009  -0.000002   0.000514  -0.000004  -0.000048  -0.001993
    25  H    0.000002  -0.000004   0.002240   0.000146   0.000006  -0.000792
    26  C    0.015665   0.004885   0.003778  -0.003223   0.000794   0.005423
    27  H    0.000034   0.001085  -0.000052  -0.000042   0.000000  -0.000052
    28  H    0.000001   0.000111   0.000015   0.000005   0.000000   0.000027
    29  H   -0.000003  -0.000105  -0.000195   0.000225   0.000016  -0.000065
    30  C    0.370795   0.411077  -0.001051   0.000321   0.000059   0.004168
    31  H    0.500070  -0.027534   0.000001   0.000000   0.000000   0.000031
    32  H   -0.027534   0.514284   0.000001  -0.000001   0.000000  -0.000004
    33  O    0.000001   0.000001   8.296626   0.235248   0.271853  -0.010231
    34  H    0.000000  -0.000001   0.235248   0.312481  -0.020436   0.001293
    35  H    0.000000   0.000000   0.271853  -0.020436   0.343105   0.018687
    36  O    0.000031  -0.000004  -0.010231   0.001293   0.018687   8.407613
    37  H    0.000000   0.000000   0.000155   0.000000  -0.001369   0.256734
    38  H   -0.000010   0.000014  -0.001478  -0.002240  -0.004988   0.178327
              37         38
     1  C    0.000014   0.000297
     2  C    0.000097  -0.000190
     3  C    0.000145   0.002862
     4  C    0.001122   0.022033
     5  C    0.004175   0.004553
     6  C    0.000091  -0.000643
     7  H    0.000000   0.000000
     8  H    0.000000   0.000000
     9  H   -0.000001  -0.000058
    10  H    0.000000   0.000000
    11  C    0.010008   0.008043
    12  C   -0.000978  -0.001373
    13  C   -0.014647  -0.038630
    14  H    0.000107   0.000571
    15  C    0.012202   0.017947
    16  H    0.000000  -0.000003
    17  O   -0.003843   0.043368
    18  Cl   0.000002   0.000006
    19  C    0.002052   0.004545
    20  C   -0.010184  -0.013447
    21  H    0.000015   0.000943
    22  C    0.004038   0.006374
    23  H   -0.000002  -0.000023
    24  H    0.000067   0.000763
    25  H    0.000037   0.000259
    26  C   -0.001574  -0.010304
    27  H    0.000000   0.000004
    28  H    0.000000  -0.000010
    29  H    0.000000   0.000015
    30  C    0.003527   0.006338
    31  H    0.000000  -0.000010
    32  H    0.000000   0.000014
    33  O    0.000155  -0.001478
    34  H    0.000000  -0.002240
    35  H   -0.001369  -0.004988
    36  O    0.256734   0.178327
    37  H    0.364825  -0.008947
    38  H   -0.008947   0.314936
 Mulliken charges:
               1
     1  C   -0.494402
     2  C   -0.489990
     3  C    0.841552
     4  C    0.392103
     5  C   -0.281604
     6  C   -0.498922
     7  H    0.149903
     8  H    0.153324
     9  H    0.141969
    10  H    0.146959
    11  C   -0.115346
    12  C   -0.123554
    13  C    0.220185
    14  H    0.166397
    15  C   -0.559131
    16  H    0.158237
    17  O   -0.707361
    18  Cl   0.227887
    19  C    0.564124
    20  C   -0.019647
    21  H    0.149390
    22  C   -0.547910
    23  H    0.182217
    24  H    0.172207
    25  H    0.187377
    26  C   -0.656180
    27  H    0.163308
    28  H    0.190338
    29  H    0.174844
    30  C   -0.317854
    31  H    0.184258
    32  H    0.179873
    33  O   -0.781500
    34  H    0.437159
    35  H    0.392019
    36  O   -0.834509
    37  H    0.382130
    38  H    0.470147
 Sum of Mulliken charges =   0.00000
 Mulliken charges with hydrogens summed into heavy atoms:
               1
     1  C   -0.344499
     2  C   -0.336666
     3  C    0.841552
     4  C    0.392103
     5  C   -0.139635
     6  C   -0.351963
    11  C   -0.115346
    12  C   -0.123554
    13  C    0.386582
    15  C   -0.400894
    17  O   -0.707361
    18  Cl   0.227887
    19  C    0.564124
    20  C    0.129743
    22  C   -0.006110
    26  C   -0.127690
    30  C    0.046277
    33  O    0.047679
    36  O    0.017769
 Electronic spatial extent (au):  <R**2>=           6016.4914
 Charge=              0.0000 electrons
 Dipole moment (field-independent basis, Debye):
    X=              1.1177    Y=             -3.6538    Z=             -5.6478  Tot=              6.8188
 Quadrupole moment (field-independent basis, Debye-Ang):
   XX=           -140.3534   YY=           -115.5614   ZZ=           -120.9395
   XY=             14.4430   XZ=             13.5373   YZ=            -10.3543
 Traceless Quadrupole moment (field-independent basis, Debye-Ang):
   XX=            -14.7353   YY=             10.0567   ZZ=              4.6786
   XY=             14.4430   XZ=             13.5373   YZ=            -10.3543
 Octapole moment (field-independent basis, Debye-Ang**2):
  XXX=             14.2492  YYY=            -26.0967  ZZZ=             10.8759  XYY=             27.7816
  XXY=             -0.8420  XXZ=            -60.6516  XZZ=            -19.1430  YZZ=            -29.6049
  YYZ=            -17.5051  XYZ=             21.7235
 Hexadecapole moment (field-independent basis, Debye-Ang**3):
 XXXX=          -5134.6921 YYYY=          -1868.6010 ZZZZ=          -1015.3137 XXXY=            130.8511
 XXXZ=            139.7559 YYYX=             94.8358 YYYZ=            -79.2491 ZZZX=            -44.0843
 ZZZY=            -84.5253 XXYY=          -1241.3561 XXZZ=          -1027.7420 YYZZ=           -560.3457
 XXYZ=            -79.7664 YYXZ=             28.2723 ZZXY=             36.7280
 N-N= 1.599163734312D+03 E-N=-6.172097236743D+03  KE= 1.259765194740D+03
 1\1\GINC-D8S3B1\FTS\RB3LYP\6-31+G(d,p)\C15H19Cl1O3\CHMKSH\27-Aug-2020\
 0\\# opt=(calcfc,ts,noeigentest) b3lyp/6-31+g(d,p) scrf=(cpcm,solvent=
 water) geom=connectivity empiricaldispersion=gd3\\Title Card Required\
 \0,1\C,-2.7153990455,2.6716127611,0.7646140914\C,-3.1086537097,1.39215
 95922,0.4154280372\C,-2.1629509858,0.4377581421,-0.0407790532\C,-0.786
 298458,0.8233412189,-0.1224241184\C,-0.4184364637,2.1405702783,0.23232
 43911\C,-1.3601084503,3.0536789451,0.6707792453\H,-3.4568423119,3.3859
 580943,1.1097053286\H,-4.1534328541,1.1125079051,0.4851464401\H,0.6268
 767686,2.4185817395,0.1622545028\H,-1.0586122665,4.0604119326,0.943286
 1538\C,0.2214131473,-0.1195979324,-0.6009929379\C,-2.5112979208,-0.899
 2820551,-0.43650393\C,-0.2030603759,-1.4311339737,-0.9297857081\H,0.51
 08451254,-2.1069592737,-1.3846122417\C,-1.5740914023,-1.7929009212,-0.
 8842704698\H,-1.8730961438,-2.7903012042,-1.1879069154\O,1.469400238,0
 .2091355722,-0.6511391806\Cl,-4.2001417003,-1.4205210212,-0.3662525082
 \C,2.532785179,-0.5742878927,1.3347968278\C,2.0465357408,-1.8661847591
 ,1.0742671387\H,2.7049505986,-2.539871866,0.5313588288\C,3.9353848345,
 -0.2232471671,0.9585558932\H,4.5477269997,-0.1617502775,1.8691161517\H
 ,4.3794994246,-0.9525826326,0.2791838719\H,3.9630395142,0.7649566957,0
 .4888246907\C,1.8311774952,0.3935485727,2.2349039811\H,0.7450825663,0.
 3045980284,2.2084840166\H,2.1582281489,0.1975950668,3.265702898\H,2.10
 73245055,1.4208594306,1.9907653924\C,0.7404241017,-2.2567768003,1.2644
 544842\H,0.4246490403,-3.2611225449,1.0066318992\H,0.0247744139,-1.659
 6641119,1.8163364112\O,3.2164248363,2.1008347814,-1.7164171192\H,2.468
 7559923,1.6749310538,-1.2531538739\H,3.6402789736,1.340986069,-2.14804
 03115\O,3.3677268382,-0.8507693317,-2.2917035714\H,2.9667495191,-1.109
 1651466,-3.1316422448\H,2.6129350866,-0.6185899676,-1.6986314918\\Vers
 ion=ES64L-G09RevD.01\State=1-A\HF=-1268.9961253\RMSD=2.878e-09\RMSF=8.
 827e-06\Dipole=-0.4108993,-1.7314159,2.0075866\Quadrupole=-10.7458333,
 5.3777674,5.3680659,-11.8195225,8.8019132,8.1299011\PG=C01 [X(C15H19Cl
 1O3)]\\@


 CHEMISTRY BEGAN BY SAYING IT WOULD CHANGE THE BASER
 METALS INTO GOLD.  BY NOT DOING THAT IT HAS DONE MUCH
 GREATER THINGS.  --  RALPH WALDO EMERSON
 Job cpu time:       0 days 14 hours 20 minutes 52.0 seconds.
 File lengths (MBytes):  RWF=    808 Int=      0 D2E=      0 Chk=     25 Scr=      1
 Normal termination of Gaussian 09 at Thu Aug 27 21:24:36 2020.
