 Entering Gaussian System, Link 0=g09
 Input=b3lyp_sm_2H2O_claisen_PM6_toluene_water_1.com
 Output=b3lyp_sm_2H2O_claisen_PM6_toluene_water_1.log
 Initial command:
 /apps/applications/gaussian/G09.D01/2/default/g09/l1.exe "/local/714153.1.40core-192G.q/Gau-281502.inp" -scrdir="/local/714153.1.40core-192G.q/"
 Entering Link 1 = /apps/applications/gaussian/G09.D01/2/default/g09/l1.exe PID=    281503.
  
 Copyright (c) 1988,1990,1992,1993,1995,1998,2003,2009,2013,
            Gaussian, Inc.  All Rights Reserved.
  
 This is part of the Gaussian(R) 09 program.  It is based on
 the Gaussian(R) 03 system (copyright 2003, Gaussian, Inc.),
 the Gaussian(R) 98 system (copyright 1998, Gaussian, Inc.),
 the Gaussian(R) 94 system (copyright 1995, Gaussian, Inc.),
 the Gaussian 92(TM) system (copyright 1992, Gaussian, Inc.),
 the Gaussian 90(TM) system (copyright 1990, Gaussian, Inc.),
 the Gaussian 88(TM) system (copyright 1988, Gaussian, Inc.),
 the Gaussian 86(TM) system (copyright 1986, Carnegie Mellon
 University), and the Gaussian 82(TM) system (copyright 1983,
 Carnegie Mellon University). Gaussian is a federally registered
 trademark of Gaussian, Inc.
  
 This software contains proprietary and confidential information,
 including trade secrets, belonging to Gaussian, Inc.
  
 This software is provided under written license and may be
 used, copied, transmitted, or stored only in accord with that
 written license.
  
 The following legend is applicable only to US Government
 contracts under FAR:
  
                    RESTRICTED RIGHTS LEGEND
  
 Use, reproduction and disclosure by the US Government is
 subject to restrictions as set forth in subparagraphs (a)
 and (c) of the Commercial Computer Software - Restricted
 Rights clause in FAR 52.227-19.
  
 Gaussian, Inc.
 340 Quinnipiac St., Bldg. 40, Wallingford CT 06492
  
  
 ---------------------------------------------------------------
 Warning -- This program may not be used in any manner that
 competes with the business of Gaussian, Inc. or will provide
 assistance to any competitor of Gaussian, Inc.  The licensee
 of this program is prohibited from giving any competitor of
 Gaussian, Inc. access to this program.  By using this program,
 the user acknowledges that Gaussian, Inc. is engaged in the
 business of creating and licensing software in the field of
 computational chemistry and represents and warrants to the
 licensee that it is not a competitor of Gaussian, Inc. and that
 it will not use this program in any manner prohibited above.
 ---------------------------------------------------------------
  

 Cite this work as:
 Gaussian 09, Revision D.01,
 M. J. Frisch, G. W. Trucks, H. B. Schlegel, G. E. Scuseria, 
 M. A. Robb, J. R. Cheeseman, G. Scalmani, V. Barone, B. Mennucci, 
 G. A. Petersson, H. Nakatsuji, M. Caricato, X. Li, H. P. Hratchian, 
 A. F. Izmaylov, J. Bloino, G. Zheng, J. L. Sonnenberg, M. Hada, 
 M. Ehara, K. Toyota, R. Fukuda, J. Hasegawa, M. Ishida, T. Nakajima, 
 Y. Honda, O. Kitao, H. Nakai, T. Vreven, J. A. Montgomery, Jr., 
 J. E. Peralta, F. Ogliaro, M. Bearpark, J. J. Heyd, E. Brothers, 
 K. N. Kudin, V. N. Staroverov, T. Keith, R. Kobayashi, J. Normand, 
 K. Raghavachari, A. Rendell, J. C. Burant, S. S. Iyengar, J. Tomasi, 
 M. Cossi, N. Rega, J. M. Millam, M. Klene, J. E. Knox, J. B. Cross, 
 V. Bakken, C. Adamo, J. Jaramillo, R. Gomperts, R. E. Stratmann, 
 O. Yazyev, A. J. Austin, R. Cammi, C. Pomelli, J. W. Ochterski, 
 R. L. Martin, K. Morokuma, V. G. Zakrzewski, G. A. Voth, 
 P. Salvador, J. J. Dannenberg, S. Dapprich, A. D. Daniels, 
 O. Farkas, J. B. Foresman, J. V. Ortiz, J. Cioslowski, 
 and D. J. Fox, Gaussian, Inc., Wallingford CT, 2013.
 
 ******************************************
 Gaussian 09:  ES64L-G09RevD.01 24-Apr-2013
                27-Aug-2020 
 ******************************************
 %nprocshared=4
 Will use up to    4 processors via shared memory.
 %chk=b3lyp_sm_2H2O_claisen_PM6_toluene_water_1.chk
 ----------------------------------------------------------------------
 # opt freq b3lyp/6-31+g(d,p) scrf=(cpcm,solvent=water) geom=connectivi
 ty empiricaldispersion=gd3
 ----------------------------------------------------------------------
 1/14=-1,18=20,19=15,26=3,38=1,57=2/1,3;
 2/9=110,12=2,17=6,18=5,40=1/2;
 3/5=1,6=6,7=111,11=2,16=1,25=1,30=1,70=2101,71=1,72=1,74=-5,124=31/1,2,3;
 4//1;
 5/5=2,38=5,53=1/2;
 6/7=2,8=2,9=2,10=2,28=1/1;
 7//1,2,3,16;
 1/14=-1,18=20,19=15,26=3/3(2);
 2/9=110/2;
 99//99;
 2/9=110/2;
 3/5=1,6=6,7=111,11=2,16=1,25=1,30=1,70=2105,71=1,72=1,74=-5,124=31/1,2,3;
 4/5=5,16=3,69=1/1;
 5/5=2,38=5,53=1/2;
 7//1,2,3,16;
 1/14=-1,18=20,19=15,26=3/3(-5);
 2/9=110/2;
 6/7=2,8=2,9=2,10=2,19=2,28=1/1;
 99/9=1/99;
 -------------------
 Title Card Required
 -------------------
 Symbolic Z-matrix:
 Charge =  0 Multiplicity = 1
 C                    -2.6901    2.47236   0.84746 
 C                    -2.97207   1.25154   0.27931 
 C                    -1.91636   0.36492  -0.088 
 C                    -0.57449   0.77071   0.13596 
 C                    -0.30984   2.03727   0.73463 
 C                    -1.34534   2.8708    1.08216 
 H                    -3.49693   3.1527    1.12931 
 H                    -4.00863   0.95692   0.10892 
 H                     0.7312    2.31993   0.91376 
 H                    -1.15379   3.84158   1.5413 
 C                     0.49458  -0.12871  -0.2455 
 C                    -2.13804  -0.93009  -0.66151 
 C                     0.23513  -1.3757   -0.77359 
 H                     1.03758  -2.06197  -1.04799 
 C                    -1.10733  -1.77508  -0.99212 
 H                    -1.29649  -2.76107  -1.42557 
 O                     1.72373   0.41241  -0.01201 
 Cl                   -3.75788  -1.44962  -0.94599 
 C                     2.99661  -0.36165  -0.17918 
 C                     2.97919  -1.5837    0.70636 
 H                     3.53172  -2.43726   0.30433 
 C                     3.17547  -0.68568  -1.65295 
 H                     4.21891  -0.94751  -1.88066 
 H                     2.55867  -1.53416  -1.98268 
 H                     2.91442   0.1655   -2.29573 
 C                     3.98345   0.68676   0.32637 
 H                     3.62046   1.16566   1.2479 
 H                     4.95685   0.23381   0.55916 
 H                     4.16294   1.4854   -0.4038 
 C                     2.38121  -1.63214   1.89338 
 H                     2.39131  -2.51087   2.52615 
 H                     1.83327  -0.80099   2.32273 
 O                    -0.85861  -1.70587   2.45967 
 H                    -0.3879   -2.04452   1.69457 
 H                    -1.35966  -0.94668   2.1581 
 O                     1.81451   2.67904  -1.77236 
 H                     1.0423    2.33378  -2.22001 
 H                     1.99829   2.05904  -1.0472 
 
 Add virtual bond connecting atoms H38        and O17        Dist= 3.71D+00.
 Add virtual bond connecting atoms H34        and C13        Dist= 4.97D+00.
 Add virtual bond connecting atoms H34        and H32        Dist= 4.95D+00.
 Add virtual bond connecting atoms H35        and C3         Dist= 5.03D+00.
 Add virtual bond connecting atoms H35        and C4         Dist= 5.23D+00.

 GradGradGradGradGradGradGradGradGradGradGradGradGradGradGradGradGradGrad
 Berny optimization.
 Initialization pass.
                           ----------------------------
                           !    Initial Parameters    !
                           ! (Angstroms and Degrees)  !
 --------------------------                            --------------------------
 ! Name  Definition              Value          Derivative Info.                !
 --------------------------------------------------------------------------------
 ! R1    R(1,2)                  1.3757         estimate D2E/DX2                !
 ! R2    R(1,6)                  1.422          estimate D2E/DX2                !
 ! R3    R(1,7)                  1.0924         estimate D2E/DX2                !
 ! R4    R(2,3)                  1.4267         estimate D2E/DX2                !
 ! R5    R(2,8)                  1.091          estimate D2E/DX2                !
 ! R6    R(3,4)                  1.4197         estimate D2E/DX2                !
 ! R7    R(3,12)                 1.4336         estimate D2E/DX2                !
 ! R8    R(3,35)                 2.6599         estimate D2E/DX2                !
 ! R9    R(4,5)                  1.4257         estimate D2E/DX2                !
 ! R10   R(4,11)                 1.4482         estimate D2E/DX2                !
 ! R11   R(4,35)                 2.7668         estimate D2E/DX2                !
 ! R12   R(5,6)                  1.374          estimate D2E/DX2                !
 ! R13   R(5,9)                  1.0935         estimate D2E/DX2                !
 ! R14   R(6,10)                 1.0908         estimate D2E/DX2                !
 ! R15   R(11,13)                1.3788         estimate D2E/DX2                !
 ! R16   R(11,17)                1.3631         estimate D2E/DX2                !
 ! R17   R(12,15)                1.3732         estimate D2E/DX2                !
 ! R18   R(12,18)                1.7247         estimate D2E/DX2                !
 ! R19   R(13,14)                1.091          estimate D2E/DX2                !
 ! R20   R(13,15)                1.4175         estimate D2E/DX2                !
 ! R21   R(13,34)                2.632          estimate D2E/DX2                !
 ! R22   R(15,16)                1.0935         estimate D2E/DX2                !
 ! R23   R(17,19)                1.4991         estimate D2E/DX2                !
 ! R24   R(17,38)                1.9643         estimate D2E/DX2                !
 ! R25   R(19,20)                1.5093         estimate D2E/DX2                !
 ! R26   R(19,22)                1.5195         estimate D2E/DX2                !
 ! R27   R(19,26)                1.526          estimate D2E/DX2                !
 ! R28   R(20,21)                1.0934         estimate D2E/DX2                !
 ! R29   R(20,30)                1.33           estimate D2E/DX2                !
 ! R30   R(22,23)                1.0996         estimate D2E/DX2                !
 ! R31   R(22,24)                1.0996         estimate D2E/DX2                !
 ! R32   R(22,25)                1.0981         estimate D2E/DX2                !
 ! R33   R(26,27)                1.1001         estimate D2E/DX2                !
 ! R34   R(26,28)                1.0986         estimate D2E/DX2                !
 ! R35   R(26,29)                1.0969         estimate D2E/DX2                !
 ! R36   R(30,31)                1.0829         estimate D2E/DX2                !
 ! R37   R(30,32)                1.0842         estimate D2E/DX2                !
 ! R38   R(32,34)                2.6219         estimate D2E/DX2                !
 ! R39   R(33,34)                0.96           estimate D2E/DX2                !
 ! R40   R(33,35)                0.9583         estimate D2E/DX2                !
 ! R41   R(36,37)                0.957          estimate D2E/DX2                !
 ! R42   R(36,38)                0.9716         estimate D2E/DX2                !
 ! A1    A(2,1,6)              120.7043         estimate D2E/DX2                !
 ! A2    A(2,1,7)              120.5206         estimate D2E/DX2                !
 ! A3    A(6,1,7)              118.7749         estimate D2E/DX2                !
 ! A4    A(1,2,3)              120.4057         estimate D2E/DX2                !
 ! A5    A(1,2,8)              119.9247         estimate D2E/DX2                !
 ! A6    A(3,2,8)              119.6696         estimate D2E/DX2                !
 ! A7    A(2,3,4)              118.7611         estimate D2E/DX2                !
 ! A8    A(2,3,12)             123.3634         estimate D2E/DX2                !
 ! A9    A(2,3,35)             104.1166         estimate D2E/DX2                !
 ! A10   A(4,3,12)             117.8715         estimate D2E/DX2                !
 ! A11   A(12,3,35)             85.684          estimate D2E/DX2                !
 ! A12   A(3,4,5)              119.7115         estimate D2E/DX2                !
 ! A13   A(3,4,11)             118.5986         estimate D2E/DX2                !
 ! A14   A(5,4,11)             121.6882         estimate D2E/DX2                !
 ! A15   A(5,4,35)             107.2902         estimate D2E/DX2                !
 ! A16   A(11,4,35)             90.9455         estimate D2E/DX2                !
 ! A17   A(4,5,6)              120.3479         estimate D2E/DX2                !
 ! A18   A(4,5,9)              118.3686         estimate D2E/DX2                !
 ! A19   A(6,5,9)              121.2821         estimate D2E/DX2                !
 ! A20   A(1,6,5)              120.0643         estimate D2E/DX2                !
 ! A21   A(1,6,10)             119.0044         estimate D2E/DX2                !
 ! A22   A(5,6,10)             120.9311         estimate D2E/DX2                !
 ! A23   A(4,11,13)            121.5763         estimate D2E/DX2                !
 ! A24   A(4,11,17)            111.9615         estimate D2E/DX2                !
 ! A25   A(13,11,17)           126.4619         estimate D2E/DX2                !
 ! A26   A(3,12,15)            122.4194         estimate D2E/DX2                !
 ! A27   A(3,12,18)            118.9031         estimate D2E/DX2                !
 ! A28   A(15,12,18)           118.6775         estimate D2E/DX2                !
 ! A29   A(11,13,14)           121.7913         estimate D2E/DX2                !
 ! A30   A(11,13,15)           119.475          estimate D2E/DX2                !
 ! A31   A(11,13,34)            85.1357         estimate D2E/DX2                !
 ! A32   A(14,13,15)           118.7232         estimate D2E/DX2                !
 ! A33   A(14,13,34)           104.4855         estimate D2E/DX2                !
 ! A34   A(15,13,34)            81.3036         estimate D2E/DX2                !
 ! A35   A(12,15,13)           120.0233         estimate D2E/DX2                !
 ! A36   A(12,15,16)           121.3595         estimate D2E/DX2                !
 ! A37   A(13,15,16)           118.6172         estimate D2E/DX2                !
 ! A38   A(11,17,19)           122.7898         estimate D2E/DX2                !
 ! A39   A(11,17,38)           111.6252         estimate D2E/DX2                !
 ! A40   A(19,17,38)           104.7968         estimate D2E/DX2                !
 ! A41   A(17,19,20)           110.0505         estimate D2E/DX2                !
 ! A42   A(17,19,22)           108.5545         estimate D2E/DX2                !
 ! A43   A(17,19,26)            99.0561         estimate D2E/DX2                !
 ! A44   A(20,19,22)           113.4387         estimate D2E/DX2                !
 ! A45   A(20,19,26)           111.6772         estimate D2E/DX2                !
 ! A46   A(22,19,26)           113.0607         estimate D2E/DX2                !
 ! A47   A(19,20,21)           114.2376         estimate D2E/DX2                !
 ! A48   A(19,20,30)           123.9408         estimate D2E/DX2                !
 ! A49   A(21,20,30)           121.7985         estimate D2E/DX2                !
 ! A50   A(19,22,23)           111.3038         estimate D2E/DX2                !
 ! A51   A(19,22,24)           112.9143         estimate D2E/DX2                !
 ! A52   A(19,22,25)           111.9908         estimate D2E/DX2                !
 ! A53   A(23,22,24)           106.6453         estimate D2E/DX2                !
 ! A54   A(23,22,25)           106.7938         estimate D2E/DX2                !
 ! A55   A(24,22,25)           106.813          estimate D2E/DX2                !
 ! A56   A(19,26,27)           111.2973         estimate D2E/DX2                !
 ! A57   A(19,26,28)           111.0962         estimate D2E/DX2                !
 ! A58   A(19,26,29)           112.6757         estimate D2E/DX2                !
 ! A59   A(27,26,28)           107.1178         estimate D2E/DX2                !
 ! A60   A(27,26,29)           107.1357         estimate D2E/DX2                !
 ! A61   A(28,26,29)           107.2337         estimate D2E/DX2                !
 ! A62   A(20,30,31)           123.1521         estimate D2E/DX2                !
 ! A63   A(20,30,32)           123.5563         estimate D2E/DX2                !
 ! A64   A(31,30,32)           113.2912         estimate D2E/DX2                !
 ! A65   A(30,32,34)            88.2623         estimate D2E/DX2                !
 ! A66   A(34,33,35)           106.5598         estimate D2E/DX2                !
 ! A67   A(13,34,32)            84.4691         estimate D2E/DX2                !
 ! A68   A(13,34,33)           140.6953         estimate D2E/DX2                !
 ! A69   A(32,34,33)            93.275          estimate D2E/DX2                !
 ! A70   A(3,35,33)            139.9781         estimate D2E/DX2                !
 ! A71   A(4,35,33)            124.9854         estimate D2E/DX2                !
 ! A72   A(37,36,38)           105.7543         estimate D2E/DX2                !
 ! A73   A(17,38,36)           154.3979         estimate D2E/DX2                !
 ! D1    D(6,1,2,3)             -0.1807         estimate D2E/DX2                !
 ! D2    D(6,1,2,8)            179.7348         estimate D2E/DX2                !
 ! D3    D(7,1,2,3)            179.9936         estimate D2E/DX2                !
 ! D4    D(7,1,2,8)             -0.0909         estimate D2E/DX2                !
 ! D5    D(2,1,6,5)              0.3468         estimate D2E/DX2                !
 ! D6    D(2,1,6,10)          -179.5284         estimate D2E/DX2                !
 ! D7    D(7,1,6,5)           -179.8245         estimate D2E/DX2                !
 ! D8    D(7,1,6,10)             0.3003         estimate D2E/DX2                !
 ! D9    D(1,2,3,4)             -0.4082         estimate D2E/DX2                !
 ! D10   D(1,2,3,12)           178.8521         estimate D2E/DX2                !
 ! D11   D(1,2,3,35)            84.6839         estimate D2E/DX2                !
 ! D12   D(8,2,3,4)            179.6761         estimate D2E/DX2                !
 ! D13   D(8,2,3,12)            -1.0637         estimate D2E/DX2                !
 ! D14   D(8,2,3,35)           -95.2319         estimate D2E/DX2                !
 ! D15   D(2,3,4,5)              0.8312         estimate D2E/DX2                !
 ! D16   D(2,3,4,11)          -179.639          estimate D2E/DX2                !
 ! D17   D(12,3,4,5)          -178.4699         estimate D2E/DX2                !
 ! D18   D(12,3,4,11)            1.0599         estimate D2E/DX2                !
 ! D19   D(2,3,12,15)         -179.1433         estimate D2E/DX2                !
 ! D20   D(2,3,12,18)            0.7739         estimate D2E/DX2                !
 ! D21   D(4,3,12,15)            0.1231         estimate D2E/DX2                !
 ! D22   D(4,3,12,18)         -179.9598         estimate D2E/DX2                !
 ! D23   D(35,3,12,15)         -75.0703         estimate D2E/DX2                !
 ! D24   D(35,3,12,18)         104.8468         estimate D2E/DX2                !
 ! D25   D(2,3,35,33)          168.6203         estimate D2E/DX2                !
 ! D26   D(12,3,35,33)          45.2736         estimate D2E/DX2                !
 ! D27   D(3,4,5,6)             -0.6793         estimate D2E/DX2                !
 ! D28   D(3,4,5,9)            178.8994         estimate D2E/DX2                !
 ! D29   D(11,4,5,6)           179.8059         estimate D2E/DX2                !
 ! D30   D(11,4,5,9)            -0.6154         estimate D2E/DX2                !
 ! D31   D(35,4,5,6)           -77.9269         estimate D2E/DX2                !
 ! D32   D(35,4,5,9)           101.6519         estimate D2E/DX2                !
 ! D33   D(3,4,11,13)           -2.2304         estimate D2E/DX2                !
 ! D34   D(3,4,11,17)          177.9719         estimate D2E/DX2                !
 ! D35   D(5,4,11,13)          177.2896         estimate D2E/DX2                !
 ! D36   D(5,4,11,17)           -2.508          estimate D2E/DX2                !
 ! D37   D(35,4,11,13)          66.2189         estimate D2E/DX2                !
 ! D38   D(35,4,11,17)        -113.5787         estimate D2E/DX2                !
 ! D39   D(5,4,35,33)         -112.882          estimate D2E/DX2                !
 ! D40   D(11,4,35,33)          10.8542         estimate D2E/DX2                !
 ! D41   D(4,5,6,1)              0.088          estimate D2E/DX2                !
 ! D42   D(4,5,6,10)           179.9607         estimate D2E/DX2                !
 ! D43   D(9,5,6,1)           -179.4783         estimate D2E/DX2                !
 ! D44   D(9,5,6,10)             0.3945         estimate D2E/DX2                !
 ! D45   D(4,11,13,14)        -179.0528         estimate D2E/DX2                !
 ! D46   D(4,11,13,15)           2.1369         estimate D2E/DX2                !
 ! D47   D(4,11,13,34)         -75.0127         estimate D2E/DX2                !
 ! D48   D(17,11,13,14)          0.7139         estimate D2E/DX2                !
 ! D49   D(17,11,13,15)       -178.0964         estimate D2E/DX2                !
 ! D50   D(17,11,13,34)        104.754          estimate D2E/DX2                !
 ! D51   D(4,11,17,19)         173.2788         estimate D2E/DX2                !
 ! D52   D(4,11,17,38)         -61.1169         estimate D2E/DX2                !
 ! D53   D(13,11,17,19)         -6.5069         estimate D2E/DX2                !
 ! D54   D(13,11,17,38)        119.0975         estimate D2E/DX2                !
 ! D55   D(3,12,15,13)          -0.2391         estimate D2E/DX2                !
 ! D56   D(3,12,15,16)         179.7774         estimate D2E/DX2                !
 ! D57   D(18,12,15,13)        179.8436         estimate D2E/DX2                !
 ! D58   D(18,12,15,16)         -0.1399         estimate D2E/DX2                !
 ! D59   D(11,13,15,12)         -0.8941         estimate D2E/DX2                !
 ! D60   D(11,13,15,16)        179.0898         estimate D2E/DX2                !
 ! D61   D(14,13,15,12)       -179.7411         estimate D2E/DX2                !
 ! D62   D(14,13,15,16)          0.2429         estimate D2E/DX2                !
 ! D63   D(34,13,15,12)         78.4454         estimate D2E/DX2                !
 ! D64   D(34,13,15,16)       -101.5706         estimate D2E/DX2                !
 ! D65   D(11,13,34,32)        -46.0532         estimate D2E/DX2                !
 ! D66   D(11,13,34,33)         42.3608         estimate D2E/DX2                !
 ! D67   D(14,13,34,32)         75.5548         estimate D2E/DX2                !
 ! D68   D(14,13,34,33)        163.9688         estimate D2E/DX2                !
 ! D69   D(15,13,34,32)       -166.8892         estimate D2E/DX2                !
 ! D70   D(15,13,34,33)        -78.4753         estimate D2E/DX2                !
 ! D71   D(11,17,19,20)        -58.1272         estimate D2E/DX2                !
 ! D72   D(11,17,19,22)         66.5638         estimate D2E/DX2                !
 ! D73   D(11,17,19,26)       -175.2786         estimate D2E/DX2                !
 ! D74   D(38,17,19,20)        173.2942         estimate D2E/DX2                !
 ! D75   D(38,17,19,22)        -62.0147         estimate D2E/DX2                !
 ! D76   D(38,17,19,26)         56.1428         estimate D2E/DX2                !
 ! D77   D(11,17,38,36)        -20.016          estimate D2E/DX2                !
 ! D78   D(19,17,38,36)        114.9967         estimate D2E/DX2                !
 ! D79   D(17,19,20,21)        148.7659         estimate D2E/DX2                !
 ! D80   D(17,19,20,30)        -32.9602         estimate D2E/DX2                !
 ! D81   D(22,19,20,21)         26.9339         estimate D2E/DX2                !
 ! D82   D(22,19,20,30)       -154.7922         estimate D2E/DX2                !
 ! D83   D(26,19,20,21)       -102.2456         estimate D2E/DX2                !
 ! D84   D(26,19,20,30)         76.0283         estimate D2E/DX2                !
 ! D85   D(17,19,22,23)        161.2035         estimate D2E/DX2                !
 ! D86   D(17,19,22,24)        -78.8868         estimate D2E/DX2                !
 ! D87   D(17,19,22,25)         41.7357         estimate D2E/DX2                !
 ! D88   D(20,19,22,23)        -76.134          estimate D2E/DX2                !
 ! D89   D(20,19,22,24)         43.7758         estimate D2E/DX2                !
 ! D90   D(20,19,22,25)        164.3982         estimate D2E/DX2                !
 ! D91   D(26,19,22,23)         52.338          estimate D2E/DX2                !
 ! D92   D(26,19,22,24)        172.2477         estimate D2E/DX2                !
 ! D93   D(26,19,22,25)        -67.1299         estimate D2E/DX2                !
 ! D94   D(17,19,26,27)         44.5667         estimate D2E/DX2                !
 ! D95   D(17,19,26,28)        163.8415         estimate D2E/DX2                !
 ! D96   D(17,19,26,29)        -75.8044         estimate D2E/DX2                !
 ! D97   D(20,19,26,27)        -71.3428         estimate D2E/DX2                !
 ! D98   D(20,19,26,28)         47.932          estimate D2E/DX2                !
 ! D99   D(20,19,26,29)        168.2861         estimate D2E/DX2                !
 ! D100  D(22,19,26,27)        159.2791         estimate D2E/DX2                !
 ! D101  D(22,19,26,28)        -81.4461         estimate D2E/DX2                !
 ! D102  D(22,19,26,29)         38.908          estimate D2E/DX2                !
 ! D103  D(19,20,30,31)       -178.9021         estimate D2E/DX2                !
 ! D104  D(19,20,30,32)          1.3336         estimate D2E/DX2                !
 ! D105  D(21,20,30,31)         -0.7541         estimate D2E/DX2                !
 ! D106  D(21,20,30,32)        179.4816         estimate D2E/DX2                !
 ! D107  D(20,30,32,34)        103.9702         estimate D2E/DX2                !
 ! D108  D(31,30,32,34)        -75.815          estimate D2E/DX2                !
 ! D109  D(30,32,34,13)        -72.5029         estimate D2E/DX2                !
 ! D110  D(30,32,34,33)        146.8606         estimate D2E/DX2                !
 ! D111  D(35,33,34,13)         12.317          estimate D2E/DX2                !
 ! D112  D(35,33,34,32)         97.5844         estimate D2E/DX2                !
 ! D113  D(34,33,35,3)           4.2875         estimate D2E/DX2                !
 ! D114  D(34,33,35,4)         -31.987          estimate D2E/DX2                !
 ! D115  D(37,36,38,17)          6.0722         estimate D2E/DX2                !
 --------------------------------------------------------------------------------
 Trust Radius=3.00D-01 FncErr=1.00D-07 GrdErr=1.00D-06
 Number of steps in this run=    228 maximum allowed number of steps=    228.
 GradGradGradGradGradGradGradGradGradGradGradGradGradGradGradGradGradGrad

                          Input orientation:                          
 ---------------------------------------------------------------------
 Center     Atomic      Atomic             Coordinates (Angstroms)
 Number     Number       Type             X           Y           Z
 ---------------------------------------------------------------------
      1          6           0       -2.690101    2.472357    0.847458
      2          6           0       -2.972067    1.251542    0.279311
      3          6           0       -1.916355    0.364915   -0.088003
      4          6           0       -0.574491    0.770708    0.135957
      5          6           0       -0.309841    2.037274    0.734631
      6          6           0       -1.345341    2.870798    1.082157
      7          1           0       -3.496925    3.152697    1.129312
      8          1           0       -4.008628    0.956916    0.108918
      9          1           0        0.731203    2.319932    0.913757
     10          1           0       -1.153789    3.841582    1.541296
     11          6           0        0.494582   -0.128706   -0.245502
     12          6           0       -2.138041   -0.930092   -0.661507
     13          6           0        0.235125   -1.375701   -0.773587
     14          1           0        1.037577   -2.061970   -1.047993
     15          6           0       -1.107325   -1.775076   -0.992119
     16          1           0       -1.296494   -2.761068   -1.425569
     17          8           0        1.723728    0.412408   -0.012005
     18         17           0       -3.757884   -1.449623   -0.945985
     19          6           0        2.996612   -0.361653   -0.179183
     20          6           0        2.979189   -1.583699    0.706363
     21          1           0        3.531723   -2.437263    0.304331
     22          6           0        3.175469   -0.685676   -1.652946
     23          1           0        4.218909   -0.947508   -1.880660
     24          1           0        2.558665   -1.534164   -1.982677
     25          1           0        2.914424    0.165504   -2.295728
     26          6           0        3.983450    0.686763    0.326371
     27          1           0        3.620456    1.165663    1.247897
     28          1           0        4.956854    0.233810    0.559164
     29          1           0        4.162935    1.485404   -0.403798
     30          6           0        2.381213   -1.632138    1.893381
     31          1           0        2.391311   -2.510873    2.526146
     32          1           0        1.833268   -0.800985    2.322732
     33          8           0       -0.858611   -1.705871    2.459671
     34          1           0       -0.387895   -2.044521    1.694565
     35          1           0       -1.359660   -0.946682    2.158097
     36          8           0        1.814511    2.679039   -1.772357
     37          1           0        1.042304    2.333775   -2.220010
     38          1           0        1.998288    2.059037   -1.047198
 ---------------------------------------------------------------------
                    Distance matrix (angstroms):
                    1          2          3          4          5
     1  C    0.000000
     2  C    1.375749   0.000000
     3  C    2.432094   1.426729   0.000000
     4  C    2.806715   2.449515   1.419657   0.000000
     5  C    2.422326   2.812852   2.460569   1.425707   0.000000
     6  C    1.422047   2.431623   2.823965   2.428967   1.373971
     7  H    1.092369   2.147642   3.428088   3.898878   3.399624
     8  H    2.140214   1.091007   2.183312   3.439288   3.903808
     9  H    3.425339   3.906173   3.440229   2.170231   1.093506
    10  H    2.171737   3.406912   3.914503   3.426490   2.149066
    11  C    4.254679   3.768046   2.465986   1.448231   2.509826
    12  C    3.762766   2.517988   1.433560   2.444045   3.754568
    13  C    5.098263   4.277509   2.851076   2.467756   3.770956
    14  H    6.168342   5.368272   3.941708   3.467646   4.668735
    15  C    4.891821   3.775475   2.459983   2.835046   4.260476
    16  H    5.873460   4.670674   3.456166   3.928498   5.353880
    17  O    4.946105   4.779069   3.641186   2.330683   2.707962
    18  Cl   4.442806   3.068412   2.723951   4.029201   5.183813
    19  C    6.436172   6.199818   4.967239   3.759565   4.185993
    20  C    6.972256   6.605938   5.328646   4.300841   4.891826
    21  H    7.944209   7.477111   6.139029   5.213485   5.913058
    22  C    7.115483   6.728940   5.429499   4.402662   5.026168
    23  H    8.177562   7.823773   6.525147   5.476832   6.021482
    24  H    7.184109   6.592856   5.217480   4.429189   5.326092
    25  H    6.827290   6.516217   5.315095   4.295567   4.804423
    26  C    6.927926   6.978568   5.923090   4.562689   4.519171
    27  H    6.456851   6.663850   5.751704   4.357749   4.058372
    28  H    7.973088   7.998868   6.904854   5.573432   5.569681
    29  H    7.035895   7.171442   6.189749   4.821341   4.648258
    30  C    6.607500   6.291140   5.136457   4.195044   4.695642
    31  H    7.312409   6.926028   5.801717   5.027699   5.584925
    32  H    5.775125   5.610676   4.607672   3.612410   3.894958
    33  O    4.838510   4.238745   3.449293   3.407905   4.157890
    34  H    5.140032   4.420964   3.364390   3.223289   4.193878
    35  H    3.895854   3.310873   2.659918   2.766761   3.468771
    36  O    5.215139   5.399854   4.702295   3.604264   3.348092
    37  H    4.833158   4.851083   4.144337   3.256959   3.262838
    38  H    5.073613   5.207312   4.372017   3.111083   2.915964
                    6          7          8          9         10
     6  C    0.000000
     7  H    2.170485   0.000000
     8  H    3.420999   2.474772   0.000000
     9  H    2.154959   4.314745   4.997157   0.000000
    10  H    1.090836   2.476808   4.303848   2.502483   0.000000
    11  C    3.760986   5.346947   4.645760   2.719503   4.655423
    12  C    4.256231   4.660769   2.766487   4.612665   5.346959
    13  C    4.896367   6.168923   4.922332   4.092790   5.874335
    14  H    5.877758   7.245351   5.993021   4.810758   6.808702
    15  C    5.093468   5.873126   4.134443   4.876642   6.161753
    16  H    6.165143   6.807491   4.851157   5.949837   7.240003
    17  O    4.081673   6.005581   5.759428   2.341108   4.738363
    18  Cl   5.347874   5.055325   2.639531   6.149804   6.400369
    19  C    5.558082   7.498589   7.134074   3.676614   6.152484
    20  C    6.219753   8.034450   7.459306   4.509411   6.871120
    21  H    7.250261   9.018322   8.271368   5.553847   7.931456
    22  C    6.369224   8.185042   7.577171   4.647158   7.031481
    23  H    7.370117   9.241521   8.676267   5.536156   7.969382
    24  H    6.636125   8.265671   7.328682   5.155871   7.422893
    25  H    6.072423   7.858729   7.371384   4.439460   6.692284
    26  C    5.808376   7.917168   7.999599   3.686377   6.149809
    27  H    5.253008   7.390499   7.716461   3.129180   5.480880
    28  H    6.851634   8.961660   9.005858   4.725862   7.163837
    29  H    5.870987   7.987725   8.204671   3.769506   6.132089
    30  C    5.900993   7.617805   7.121627   4.393296   6.525474
    31  H    6.708953   8.288455   7.669926   5.356532   7.341073
    32  H    5.012442   6.742908   6.489910   3.597205   5.575534
    33  O    4.804201   5.686496   4.747534   4.596134   5.630700
    34  H    5.045008   6.082487   4.963125   4.572799   5.937701
    35  H    3.966233   4.736160   3.852253   4.073188   4.832215
    36  O    4.262592   6.070864   6.357189   2.918514   4.598109
    37  H    4.110176   5.700280   5.729883   3.149202   4.609092
    38  H    4.046352   6.010878   6.215651   2.349237   4.451220
                   11         12         13         14         15
    11  C    0.000000
    12  C    2.783161   0.000000
    13  C    1.378836   2.417239   0.000000
    14  H    2.162486   3.393386   1.090960   0.000000
    15  C    2.415383   1.373200   1.417543   2.164725   0.000000
    16  H    3.395562   2.155102   2.165682   2.465601   1.093547
    17  O    1.363131   4.139737   2.448118   2.768866   3.709524
    18  Cl   4.507656   1.724741   3.997412   4.835475   2.670863
    19  C    2.513726   5.188489   3.001236   2.735640   4.415986
    20  C    3.032544   5.337070   3.124644   2.660144   4.429567
    21  H    3.854345   5.945640   3.627172   2.861886   4.862102
    22  C    3.078680   5.410737   3.145637   2.613568   4.468312
    23  H    4.149071   6.472824   4.156861   3.472209   5.462888
    24  H    3.041961   4.916243   2.624090   1.861699   3.805092
    25  H    3.185219   5.422030   3.445413   3.168760   4.651850
    26  C    3.628254   6.408024   4.417421   4.257062   5.806467
    27  H    3.698205   6.418590   4.690991   4.728635   6.001461
    28  H    4.548712   7.292615   5.163475   4.818121   6.573916
    29  H    4.010888   6.753024   4.873434   4.771448   6.225150
    30  C    3.224051   5.238700   3.432808   3.262176   4.529508
    31  H    4.117564   5.759777   4.101950   3.848192   5.015978
    32  H    2.973191   4.969270   3.531508   3.685783   4.536979
    33  O    3.411238   3.461290   3.429173   4.003254   3.461431
    34  H    2.865828   3.139433   2.631967   3.090938   2.794361
    35  H    3.143976   2.925119   3.364843   4.155674   3.267074
    36  O    3.457880   5.466487   4.464630   4.858549   5.383775
    37  H    3.203513   4.816259   4.062498   4.549310   4.797007
    38  H    2.773097   5.117897   3.870534   4.231509   4.934398
                   16         17         18         19         20
    16  H    0.000000
    17  O    4.603352   0.000000
    18  Cl   2.829899   5.864090   0.000000
    19  C    5.073601   1.499117   6.884394   0.000000
    20  C    4.920650   2.465092   6.938039   1.509269   0.000000
    21  H    5.138977   3.389622   7.461708   2.197336   1.093387
    22  C    4.935322   2.450720   7.011048   1.519526   2.532056
    23  H    5.823725   3.401054   8.047047   2.175376   2.938424
    24  H    4.083860   2.893062   6.401615   2.195261   2.722174
    25  H    5.201330   2.587298   6.996437   2.182753   3.475120
    26  C    6.544818   2.301328   8.130885   1.525978   2.511560
    27  H    6.836888   2.398400   8.129744   2.181383   2.874626
    28  H    7.211991   3.288044   9.002560   2.177678   2.690012
    29  H    6.991560   2.693428   8.464498   2.195992   3.471758
    30  C    5.080890   2.871054   6.766374   2.507662   1.330013
    31  H    5.410966   3.928543   7.141046   3.507754   2.125291
    32  H    5.261853   2.633499   6.508934   2.793915   2.130358
    33  O    4.049725   4.155089   4.479949   4.861401   4.221105
    34  H    3.327796   3.661671   4.322411   4.218751   3.539231
    35  H    4.017294   4.007961   3.954713   4.978177   4.619408
    36  O    6.276414   2.871358   6.984291   3.630616   5.066701
    37  H    5.662026   3.005208   6.243320   3.905077   5.259447
    38  H    5.850826   1.964280   6.741992   2.758594   4.160128
                   21         22         23         24         25
    21  H    0.000000
    22  C    2.650643   0.000000
    23  H    2.732358   1.099626   0.000000
    24  H    2.644397   1.099592   1.763798   0.000000
    25  H    3.730383   1.098099   1.764301   1.764493   0.000000
    26  C    3.156593   2.540496   2.756314   3.506313   2.879224
    27  H    3.725489   3.469922   3.822500   4.342013   3.749144
    28  H    3.038185   2.985334   2.809416   3.916376   3.510925
    29  H    4.035739   2.692406   2.846632   3.766209   2.623035
    30  C    2.120608   3.755405   4.253144   3.881355   4.589604
    31  H    2.498484   4.627208   5.020375   4.616433   5.539595
    32  H    3.104206   4.197715   4.835417   4.427222   4.840782
    33  O    4.945246   5.850489   6.722708   5.607291   6.352295
    34  H    4.177368   5.074431   5.933659   4.739703   5.631337
    35  H    5.439109   5.929550   6.887089   5.731005   6.272265
    36  O    5.782560   3.631497   4.352551   4.283583   2.793132
    37  H    5.944099   3.740192   4.579607   4.161325   2.865653
    38  H    4.939106   3.047316   3.829508   3.755028   2.446140
                   26         27         28         29         30
    26  C    0.000000
    27  H    1.100145   0.000000
    28  H    1.098578   1.768803   0.000000
    29  H    1.096900   1.767658   1.767510   0.000000
    30  C    3.224901   3.127309   3.449032   4.262703   0.000000
    31  H    4.195091   4.081867   4.240792   5.262457   1.082898
    32  H    3.289701   2.866534   3.733331   4.253103   1.084159
    33  O    5.806998   5.456752   6.418249   6.603000   3.289769
    34  H    5.332966   5.154772   5.919989   6.129727   2.806697
    35  H    5.879812   5.485619   6.621820   6.555715   3.812356
    36  O    3.616368   3.830624   4.614050   2.968638   5.687269
    37  H    4.224576   4.476353   5.239977   3.709002   5.868656
    38  H    2.776814   2.949069   3.829486   2.329960   4.734808
                   31         32         33         34         35
    31  H    0.000000
    32  H    1.810112   0.000000
    33  O    3.348797   2.843200   0.000000
    34  H    2.938196   2.621935   0.960023   0.000000
    35  H    4.080678   3.200488   0.958314   1.537673   0.000000
    36  O    6.763506   5.374074   6.654553   6.259565   6.218495
    37  H    6.914943   5.575738   6.467738   6.044737   5.974835
    38  H    5.814407   4.423052   5.885111   5.481817   5.530287
                   36         37         38
    36  O    0.000000
    37  H    0.957029   0.000000
    38  H    0.971613   1.537815   0.000000
 Stoichiometry    C15H19ClO3
 Framework group  C1[X(C15H19ClO3)]
 Deg. of freedom   108
 Full point group                 C1      NOp   1
 Largest Abelian subgroup         C1      NOp   1
 Largest concise Abelian subgroup C1      NOp   1
                         Standard orientation:                         
 ---------------------------------------------------------------------
 Center     Atomic      Atomic             Coordinates (Angstroms)
 Number     Number       Type             X           Y           Z
 ---------------------------------------------------------------------
      1          6           0       -2.690101    2.472357    0.847458
      2          6           0       -2.972067    1.251542    0.279311
      3          6           0       -1.916355    0.364915   -0.088003
      4          6           0       -0.574491    0.770708    0.135957
      5          6           0       -0.309841    2.037274    0.734631
      6          6           0       -1.345341    2.870798    1.082157
      7          1           0       -3.496925    3.152697    1.129312
      8          1           0       -4.008628    0.956916    0.108918
      9          1           0        0.731203    2.319932    0.913757
     10          1           0       -1.153789    3.841582    1.541296
     11          6           0        0.494582   -0.128706   -0.245502
     12          6           0       -2.138041   -0.930092   -0.661507
     13          6           0        0.235125   -1.375701   -0.773587
     14          1           0        1.037577   -2.061970   -1.047993
     15          6           0       -1.107325   -1.775076   -0.992119
     16          1           0       -1.296494   -2.761068   -1.425569
     17          8           0        1.723728    0.412408   -0.012005
     18         17           0       -3.757884   -1.449623   -0.945985
     19          6           0        2.996612   -0.361653   -0.179183
     20          6           0        2.979189   -1.583699    0.706363
     21          1           0        3.531723   -2.437263    0.304331
     22          6           0        3.175469   -0.685676   -1.652946
     23          1           0        4.218909   -0.947508   -1.880660
     24          1           0        2.558665   -1.534164   -1.982677
     25          1           0        2.914424    0.165504   -2.295728
     26          6           0        3.983450    0.686763    0.326371
     27          1           0        3.620456    1.165663    1.247897
     28          1           0        4.956854    0.233810    0.559164
     29          1           0        4.162935    1.485404   -0.403798
     30          6           0        2.381213   -1.632138    1.893381
     31          1           0        2.391311   -2.510873    2.526146
     32          1           0        1.833268   -0.800985    2.322732
     33          8           0       -0.858611   -1.705871    2.459671
     34          1           0       -0.387895   -2.044521    1.694565
     35          1           0       -1.359660   -0.946682    2.158097
     36          8           0        1.814511    2.679039   -1.772357
     37          1           0        1.042304    2.333775   -2.220010
     38          1           0        1.998288    2.059037   -1.047198
 ---------------------------------------------------------------------
 Rotational constants (GHZ):      0.4698669      0.2464838      0.2109378
 Standard basis: 6-31+G(d,p) (6D, 7F)
 There are   460 symmetry adapted cartesian basis functions of A   symmetry.
 There are   460 symmetry adapted basis functions of A   symmetry.
   460 basis functions,   765 primitive gaussians,   460 cartesian basis functions
    75 alpha electrons       75 beta electrons
       nuclear repulsion energy      1629.2374988460 Hartrees.
 NAtoms=   38 NActive=   38 NUniq=   38 SFac= 1.00D+00 NAtFMM=   60 NAOKFM=F Big=F
 Integral buffers will be    131072 words long.
 Raffenetti 2 integral format.
 Two-electron integral symmetry is turned on.
 Nuclear repulsion after empirical dispersion term =     1629.1892702649 Hartrees.
 ------------------------------------------------------------------------------
 Polarizable Continuum Model (PCM)
 =================================
 Model                : C-PCM.
 Atomic radii         : UFF (Universal Force Field).
 Polarization charges : Total charges.
 Charge compensation  : None.
 Solution method      : On-the-fly selection.
 Cavity type          : Scaled VdW (van der Waals Surface) (Alpha=1.100).
 Cavity algorithm     : GePol (No added spheres)
                        Default sphere list used, NSphG=   38.
                        Lebedev-Laikov grids with approx.  5.0 points / Ang**2.
                        Smoothing algorithm: Karplus/York (Gamma=1.0000).
                        Polarization charges: spherical gaussians, with
                                              point-specific exponents (IZeta= 3).
                        Self-potential: point-specific (ISelfS= 7).
                        Self-field    : sphere-specific E.n sum rule (ISelfD= 2).
 1st derivatives      : Analytical E(r).r(x)/FMM algorithm (CHGder, D1EAlg=3).
                        Cavity 1st derivative terms included.
 Solvent              : Water, Eps=  78.355300 Eps(inf)=   1.777849
 ------------------------------------------------------------------------------
 One-electron integrals computed using PRISM.
 NBasis=   460 RedAO= T EigKep=  1.05D-06  NBF=   460
 NBsUse=   457 1.00D-06 EigRej=  6.01D-07 NBFU=   457
 ExpMin= 4.38D-02 ExpMax= 2.52D+04 ExpMxC= 3.78D+03 IAcc=2 IRadAn=         4 AccDes= 0.00D+00
 Harris functional with IExCor=  402 and IRadAn=       4 diagonalized for initial guess.
 HarFok:  IExCor=  402 AccDes= 0.00D+00 IRadAn=         4 IDoV= 1 UseB2=F ITyADJ=14
 ICtDFT=  3500011 ScaDFX=  1.000000  1.000000  1.000000  1.000000
 FoFCou: FMM=F IPFlag=           0 FMFlag=      100000 FMFlg1=           0
         NFxFlg=           0 DoJE=T BraDBF=F KetDBF=T FulRan=T
         wScrn=  0.000000 ICntrl=     500 IOpCl=  0 I1Cent=   200000004 NGrid=           0
         NMat0=    1 NMatS0=      1 NMatT0=    0 NMatD0=    1 NMtDS0=    0 NMtDT0=    0
 Petite list used in FoFCou.
 Requested convergence on RMS density matrix=1.00D-08 within 128 cycles.
 Requested convergence on MAX density matrix=1.00D-06.
 Requested convergence on             energy=1.00D-06.
 No special actions if energy rises.
 Inv3:  Mode=1 IEnd=    21258732.
 Iteration    1 A*A^-1 deviation from unit magnitude is 6.99D-15 for   2654.
 Iteration    1 A*A^-1 deviation from orthogonality  is 2.50D-15 for   1858   1631.
 Iteration    1 A^-1*A deviation from unit magnitude is 6.99D-15 for   2654.
 Iteration    1 A^-1*A deviation from orthogonality  is 1.40D-15 for   1218    299.
 Error on total polarization charges =  0.02136
 SCF Done:  E(RB3LYP) =  -1269.00435208     A.U. after   15 cycles
            NFock= 15  Conv=0.62D-08     -V/T= 2.0072

 **********************************************************************

            Population analysis using the SCF density.

 **********************************************************************

 Orbital symmetries:
       Occupied  (A) (A) (A) (A) (A) (A) (A) (A) (A) (A) (A) (A)
                 (A) (A) (A) (A) (A) (A) (A) (A) (A) (A) (A) (A)
                 (A) (A) (A) (A) (A) (A) (A) (A) (A) (A) (A) (A)
                 (A) (A) (A) (A) (A) (A) (A) (A) (A) (A) (A) (A)
                 (A) (A) (A) (A) (A) (A) (A) (A) (A) (A) (A) (A)
                 (A) (A) (A) (A) (A) (A) (A) (A) (A) (A) (A) (A)
                 (A) (A) (A)
       Virtual   (A) (A) (A) (A) (A) (A) (A) (A) (A) (A) (A) (A)
                 (A) (A) (A) (A) (A) (A) (A) (A) (A) (A) (A) (A)
                 (A) (A) (A) (A) (A) (A) (A) (A) (A) (A) (A) (A)
                 (A) (A) (A) (A) (A) (A) (A) (A) (A) (A) (A) (A)
                 (A) (A) (A) (A) (A) (A) (A) (A) (A) (A) (A) (A)
                 (A) (A) (A) (A) (A) (A) (A) (A) (A) (A) (A) (A)
                 (A) (A) (A) (A) (A) (A) (A) (A) (A) (A) (A) (A)
                 (A) (A) (A) (A) (A) (A) (A) (A) (A) (A) (A) (A)
                 (A) (A) (A) (A) (A) (A) (A) (A) (A) (A) (A) (A)
                 (A) (A) (A) (A) (A) (A) (A) (A) (A) (A) (A) (A)
                 (A) (A) (A) (A) (A) (A) (A) (A) (A) (A) (A) (A)
                 (A) (A) (A) (A) (A) (A) (A) (A) (A) (A) (A) (A)
                 (A) (A) (A) (A) (A) (A) (A) (A) (A) (A) (A) (A)
                 (A) (A) (A) (A) (A) (A) (A) (A) (A) (A) (A) (A)
                 (A) (A) (A) (A) (A) (A) (A) (A) (A) (A) (A) (A)
                 (A) (A) (A) (A) (A) (A) (A) (A) (A) (A) (A) (A)
                 (A) (A) (A) (A) (A) (A) (A) (A) (A) (A) (A) (A)
                 (A) (A) (A) (A) (A) (A) (A) (A) (A) (A) (A) (A)
                 (A) (A) (A) (A) (A) (A) (A) (A) (A) (A) (A) (A)
                 (A) (A) (A) (A) (A) (A) (A) (A) (A) (A) (A) (A)
                 (A) (A) (A) (A) (A) (A) (A) (A) (A) (A) (A) (A)
                 (A) (A) (A) (A) (A) (A) (A) (A) (A) (A) (A) (A)
                 (A) (A) (A) (A) (A) (A) (A) (A) (A) (A) (A) (A)
                 (A) (A) (A) (A) (A) (A) (A) (A) (A) (A) (A) (A)
                 (A) (A) (A) (A) (A) (A) (A) (A) (A) (A) (A) (A)
                 (A) (A) (A) (A) (A) (A) (A) (A) (A) (A) (A) (A)
                 (A) (A) (A) (A) (A) (A) (A) (A) (A) (A) (A) (A)
                 (A) (A) (A) (A) (A) (A) (A) (A) (A) (A) (A) (A)
                 (A) (A) (A) (A) (A) (A) (A) (A) (A) (A) (A) (A)
                 (A) (A) (A) (A) (A) (A) (A) (A) (A) (A) (A) (A)
                 (A) (A) (A) (A) (A) (A) (A) (A) (A) (A) (A) (A)
                 (A) (A) (A) (A) (A) (A) (A) (A) (A) (A)
 The electronic state is 1-A.
 Alpha  occ. eigenvalues -- -101.56345 -19.19903 -19.16460 -19.15903 -10.27649
 Alpha  occ. eigenvalues --  -10.27276 -10.25899 -10.22706 -10.22189 -10.21770
 Alpha  occ. eigenvalues --  -10.20934 -10.20881 -10.20872 -10.20860 -10.20728
 Alpha  occ. eigenvalues --  -10.20623 -10.19451 -10.19056 -10.19023  -9.47889
 Alpha  occ. eigenvalues --   -7.24273  -7.23335  -7.23301  -1.07862  -1.02111
 Alpha  occ. eigenvalues --   -1.01394  -0.91375  -0.87080  -0.84180  -0.82431
 Alpha  occ. eigenvalues --   -0.77252  -0.76460  -0.75819  -0.72577  -0.70458
 Alpha  occ. eigenvalues --   -0.64812  -0.64121  -0.62626  -0.60810  -0.56697
 Alpha  occ. eigenvalues --   -0.54326  -0.54147  -0.53127  -0.52698  -0.51144
 Alpha  occ. eigenvalues --   -0.49308  -0.48599  -0.47506  -0.45199  -0.44873
 Alpha  occ. eigenvalues --   -0.44505  -0.44198  -0.43444  -0.42676  -0.41207
 Alpha  occ. eigenvalues --   -0.40901  -0.40461  -0.39460  -0.39183  -0.38742
 Alpha  occ. eigenvalues --   -0.38247  -0.37579  -0.36845  -0.36253  -0.35548
 Alpha  occ. eigenvalues --   -0.35157  -0.33512  -0.32386  -0.32265  -0.31759
 Alpha  occ. eigenvalues --   -0.31489  -0.27949  -0.27821  -0.26631  -0.22084
 Alpha virt. eigenvalues --   -0.06071  -0.03700  -0.02116  -0.00315   0.00719
 Alpha virt. eigenvalues --    0.00783   0.01296   0.01766   0.01871   0.02312
 Alpha virt. eigenvalues --    0.03091   0.03688   0.04142   0.04841   0.05340
 Alpha virt. eigenvalues --    0.05666   0.05996   0.06234   0.06697   0.07092
 Alpha virt. eigenvalues --    0.07452   0.07958   0.08015   0.08237   0.08577
 Alpha virt. eigenvalues --    0.09529   0.10027   0.10379   0.10697   0.10942
 Alpha virt. eigenvalues --    0.11339   0.11856   0.12102   0.12429   0.13117
 Alpha virt. eigenvalues --    0.13851   0.14035   0.14241   0.14386   0.14878
 Alpha virt. eigenvalues --    0.15011   0.15457   0.15888   0.16402   0.16689
 Alpha virt. eigenvalues --    0.16944   0.17451   0.17878   0.18022   0.18371
 Alpha virt. eigenvalues --    0.18630   0.18960   0.19177   0.19679   0.20004
 Alpha virt. eigenvalues --    0.20497   0.20686   0.21158   0.21628   0.21729
 Alpha virt. eigenvalues --    0.22011   0.22324   0.22538   0.23093   0.23209
 Alpha virt. eigenvalues --    0.23260   0.23881   0.24337   0.24476   0.24621
 Alpha virt. eigenvalues --    0.25166   0.25518   0.25875   0.26132   0.26606
 Alpha virt. eigenvalues --    0.27045   0.27327   0.27688   0.28094   0.28536
 Alpha virt. eigenvalues --    0.28833   0.29321   0.29419   0.30046   0.30505
 Alpha virt. eigenvalues --    0.30818   0.31892   0.32048   0.32370   0.32797
 Alpha virt. eigenvalues --    0.33124   0.33573   0.34183   0.35081   0.35605
 Alpha virt. eigenvalues --    0.36139   0.36592   0.37128   0.37471   0.38422
 Alpha virt. eigenvalues --    0.38457   0.39835   0.40768   0.41153   0.41891
 Alpha virt. eigenvalues --    0.42145   0.43293   0.44719   0.47290   0.48667
 Alpha virt. eigenvalues --    0.50474   0.51272   0.53433   0.55492   0.57217
 Alpha virt. eigenvalues --    0.59162   0.62335   0.63732   0.65288   0.65580
 Alpha virt. eigenvalues --    0.67113   0.67836   0.68403   0.68702   0.69276
 Alpha virt. eigenvalues --    0.69954   0.70236   0.71763   0.72442   0.72697
 Alpha virt. eigenvalues --    0.73767   0.74015   0.74750   0.75452   0.76584
 Alpha virt. eigenvalues --    0.77011   0.77486   0.78488   0.78795   0.79078
 Alpha virt. eigenvalues --    0.80623   0.81309   0.82001   0.82724   0.83205
 Alpha virt. eigenvalues --    0.84200   0.85335   0.86339   0.86650   0.88360
 Alpha virt. eigenvalues --    0.88545   0.89688   0.90216   0.90824   0.91859
 Alpha virt. eigenvalues --    0.92497   0.93765   0.95484   0.95706   0.97112
 Alpha virt. eigenvalues --    0.97655   0.97661   0.98912   1.00151   1.01020
 Alpha virt. eigenvalues --    1.02257   1.02935   1.03006   1.04421   1.05150
 Alpha virt. eigenvalues --    1.05962   1.06385   1.08902   1.09980   1.11054
 Alpha virt. eigenvalues --    1.11462   1.12365   1.12914   1.13997   1.14271
 Alpha virt. eigenvalues --    1.15752   1.16970   1.17676   1.18165   1.18973
 Alpha virt. eigenvalues --    1.19695   1.20499   1.21584   1.22076   1.22727
 Alpha virt. eigenvalues --    1.23379   1.23721   1.24100   1.25626   1.26572
 Alpha virt. eigenvalues --    1.28040   1.28651   1.29939   1.30877   1.32033
 Alpha virt. eigenvalues --    1.33906   1.34434   1.35262   1.35933   1.36576
 Alpha virt. eigenvalues --    1.37833   1.38033   1.39852   1.40264   1.40768
 Alpha virt. eigenvalues --    1.41762   1.43204   1.44545   1.46289   1.47084
 Alpha virt. eigenvalues --    1.48579   1.50114   1.51714   1.53021   1.53716
 Alpha virt. eigenvalues --    1.55399   1.57825   1.60261   1.61684   1.62063
 Alpha virt. eigenvalues --    1.63642   1.67170   1.68582   1.69412   1.72228
 Alpha virt. eigenvalues --    1.72637   1.74834   1.76615   1.79127   1.80120
 Alpha virt. eigenvalues --    1.81092   1.81931   1.82479   1.82972   1.84105
 Alpha virt. eigenvalues --    1.85960   1.86889   1.88621   1.90345   1.90764
 Alpha virt. eigenvalues --    1.91774   1.91898   1.93700   1.94425   1.96227
 Alpha virt. eigenvalues --    1.97286   1.97918   1.98907   2.00161   2.00328
 Alpha virt. eigenvalues --    2.02899   2.03757   2.04283   2.05155   2.05491
 Alpha virt. eigenvalues --    2.07843   2.08174   2.08746   2.11250   2.12458
 Alpha virt. eigenvalues --    2.13111   2.15103   2.16355   2.16586   2.18131
 Alpha virt. eigenvalues --    2.20343   2.21140   2.22797   2.23753   2.24672
 Alpha virt. eigenvalues --    2.24904   2.26790   2.28847   2.29484   2.30083
 Alpha virt. eigenvalues --    2.30300   2.32748   2.34803   2.35259   2.36734
 Alpha virt. eigenvalues --    2.37247   2.38051   2.38768   2.39429   2.40678
 Alpha virt. eigenvalues --    2.42633   2.43960   2.44099   2.46171   2.46694
 Alpha virt. eigenvalues --    2.48421   2.51197   2.51807   2.53290   2.54768
 Alpha virt. eigenvalues --    2.55008   2.56273   2.57264   2.57595   2.58049
 Alpha virt. eigenvalues --    2.60136   2.60580   2.63146   2.64247   2.64276
 Alpha virt. eigenvalues --    2.65551   2.66216   2.66716   2.67292   2.68118
 Alpha virt. eigenvalues --    2.68257   2.69584   2.70096   2.71065   2.72663
 Alpha virt. eigenvalues --    2.73627   2.76947   2.79070   2.79639   2.81197
 Alpha virt. eigenvalues --    2.82153   2.82682   2.85530   2.85904   2.88354
 Alpha virt. eigenvalues --    2.89575   2.95236   2.97303   3.01277   3.05207
 Alpha virt. eigenvalues --    3.07592   3.09163   3.09705   3.12080   3.16062
 Alpha virt. eigenvalues --    3.18602   3.20015   3.24792   3.26140   3.26530
 Alpha virt. eigenvalues --    3.27924   3.30695   3.33472   3.34426   3.38504
 Alpha virt. eigenvalues --    3.42672   3.45327   3.46594   3.49234   3.50586
 Alpha virt. eigenvalues --    3.52200   3.52739   3.52915   3.69147   3.69194
 Alpha virt. eigenvalues --    3.70700   3.72042   3.84551   4.15766   4.19756
 Alpha virt. eigenvalues --    4.29104   4.32698   4.36615   4.40109   4.41072
 Alpha virt. eigenvalues --    4.44164   4.44880   4.48456   4.51770   4.55257
 Alpha virt. eigenvalues --    4.57647   4.58776   4.63748   4.70170   4.75476
 Alpha virt. eigenvalues --    4.91520   5.02445
          Condensed to atoms (all electrons):
               1          2          3          4          5          6
     1  C    8.881813  -4.802064   3.519869   0.873468  -0.648722   1.152537
     2  C   -4.802064  29.580447 -18.998023  -3.532887   1.073083  -0.943872
     3  C    3.519869 -18.998023  33.060938   3.839225  -2.879671   0.149242
     4  C    0.873468  -3.532887   3.839225  17.567766  -9.489391  -0.088128
     5  C   -0.648722   1.073083  -2.879671  -9.489391  22.697586  -1.823696
     6  C    1.152537  -0.943872   0.149242  -0.088128  -1.823696   7.977254
     7  H    0.330124  -0.036580   0.039982  -0.020777   0.044650  -0.023897
     8  H    0.160478   0.118023   0.043598   0.032694   0.011709   0.001445
     9  H    0.006995  -0.015203   0.001841  -0.091533   0.319385   0.031920
    10  H   -0.022074   0.044584  -0.018930   0.034381   0.009805   0.279057
    11  C   -0.118949  -4.632375  -1.387885  -0.686673   0.942221  -0.647358
    12  C   -1.290247   1.178273  -4.058749  -1.173123  -1.144084   0.133152
    13  C   -1.205604   5.965873  -1.394326  -1.820062  -5.474646   0.060736
    14  H    0.001688   0.003970   0.028958   0.019820   0.001727  -0.000905
    15  C   -0.579017   1.448162  -6.490971  -0.100446   2.860805  -0.206651
    16  H    0.002881  -0.013238   0.099706   0.030247   0.002877  -0.000430
    17  O    0.008524   0.040792   0.109295  -0.178830  -0.212300   0.146589
    18  Cl   0.055884   0.028289  -0.121487   0.001072  -0.056886   0.003154
    19  C    0.135715  -0.412261  -0.191642   0.746726  -0.309321   0.313470
    20  C   -0.066384   0.241474   0.283506  -0.131130  -0.347685  -0.135304
    21  H   -0.000011  -0.000266  -0.004545  -0.002209   0.001745   0.000162
    22  C   -0.012110   0.051492   0.078145  -0.007103   0.100786  -0.012729
    23  H   -0.000014  -0.000052  -0.001326  -0.003008   0.001088   0.000247
    24  H    0.000127   0.001010   0.012842   0.014147  -0.007437  -0.001863
    25  H   -0.000148  -0.000334  -0.006396  -0.009849   0.003420   0.002108
    26  C   -0.001813  -0.025254  -0.043938  -0.113930   0.086480  -0.055536
    27  H    0.000028   0.000041  -0.000191   0.014107  -0.012756  -0.000645
    28  H    0.000027  -0.000053  -0.000464  -0.002823   0.004331   0.000624
    29  H    0.000073  -0.000088  -0.000268  -0.010404   0.010417   0.002776
    30  C    0.033903  -0.144099  -0.166903   0.083102   0.085747   0.072499
    31  H   -0.000106   0.000119  -0.000017  -0.000492  -0.000601   0.000495
    32  H    0.000916  -0.005439  -0.023169  -0.012581   0.027258   0.010463
    33  O    0.010063  -0.031342   0.059080   0.018387   0.024350  -0.007590
    34  H    0.000211   0.019914  -0.029863  -0.024299   0.027272  -0.000827
    35  H    0.006138   0.060169  -0.000584  -0.013746   0.059876  -0.000815
    36  O    0.032251  -0.034165   0.003430   0.174688  -0.164241   0.067528
    37  H   -0.007861   0.013442   0.005518   0.056769  -0.081132  -0.015641
    38  H   -0.003812   0.002563   0.002219   0.054773  -0.088387   0.000908
               7          8          9         10         11         12
     1  C    0.330124   0.160478   0.006995  -0.022074  -0.118949  -1.290247
     2  C   -0.036580   0.118023  -0.015203   0.044584  -4.632375   1.178273
     3  C    0.039982   0.043598   0.001841  -0.018930  -1.387885  -4.058749
     4  C   -0.020777   0.032694  -0.091533   0.034381  -0.686673  -1.173123
     5  C    0.044650   0.011709   0.319385   0.009805   0.942221  -1.144084
     6  C   -0.023897   0.001445   0.031920   0.279057  -0.647358   0.133152
     7  H    0.540176  -0.004856  -0.000159  -0.004549  -0.003408  -0.012235
     8  H   -0.004856   0.541682   0.000013  -0.000152   0.004301  -0.061308
     9  H   -0.000159   0.000013   0.553945  -0.004769   0.001061   0.002362
    10  H   -0.004549  -0.000152  -0.004769   0.541145  -0.008883  -0.001820
    11  C   -0.003408   0.004301   0.001061  -0.008883  21.909967   3.755154
    12  C   -0.012235  -0.061308   0.002362  -0.001820   3.755154  15.579269
    13  C   -0.001174  -0.018839   0.009687   0.001177 -10.831560  -4.806893
    14  H    0.000000   0.000000  -0.000009   0.000000  -0.003658   0.046386
    15  C    0.000796   0.017674   0.006704  -0.000894  -0.173491  -1.697934
    16  H    0.000000  -0.000005   0.000000   0.000000   0.042032   0.060928
    17  O   -0.000009   0.000036   0.013519   0.000360  -0.546553  -0.033496
    18  Cl   0.000216  -0.005368   0.000031   0.000076   0.021008  -0.193173
    19  C   -0.000018   0.000035   0.006008   0.000304  -2.504342   0.442431
    20  C    0.000008  -0.000053  -0.007467   0.000018   1.358948  -0.267144
    21  H    0.000000   0.000000   0.000000   0.000000  -0.035418  -0.000129
    22  C   -0.000002  -0.000005  -0.000670  -0.000040   0.329049  -0.114824
    23  H    0.000000   0.000000   0.000000   0.000000  -0.032402   0.000344
    24  H    0.000000   0.000000  -0.000001   0.000000   0.149865  -0.009332
    25  H    0.000000   0.000000  -0.000004   0.000000  -0.071753   0.003029
    26  C   -0.000001  -0.000004   0.002641  -0.000172   0.575217  -0.004006
    27  H    0.000000   0.000000   0.000477   0.000000  -0.021975  -0.000020
    28  H    0.000000   0.000000   0.000000   0.000000  -0.008210   0.000103
    29  H    0.000000   0.000000  -0.000004   0.000000   0.012449  -0.000069
    30  C   -0.000008   0.000051   0.004505   0.000010  -0.925741   0.155943
    31  H    0.000000   0.000000  -0.000001   0.000000  -0.014567  -0.000077
    32  H    0.000000   0.000000  -0.000007   0.000000  -0.112546   0.002327
    33  O    0.000001   0.000023   0.000075  -0.000002   0.062132  -0.057881
    34  H    0.000000   0.000000  -0.000005   0.000000   0.060763  -0.010911
    35  H   -0.000003   0.000021   0.000002  -0.000001  -0.034019  -0.048289
    36  O   -0.000010   0.000001   0.000969   0.000084  -0.035350  -0.014082
    37  H    0.000000   0.000000  -0.000234  -0.000004   0.022055   0.004904
    38  H    0.000000   0.000000   0.000461  -0.000005   0.016307   0.004843
              13         14         15         16         17         18
     1  C   -1.205604   0.001688  -0.579017   0.002881   0.008524   0.055884
     2  C    5.965873   0.003970   1.448162  -0.013238   0.040792   0.028289
     3  C   -1.394326   0.028958  -6.490971   0.099706   0.109295  -0.121487
     4  C   -1.820062   0.019820  -0.100446   0.030247  -0.178830   0.001072
     5  C   -5.474646   0.001727   2.860805   0.002877  -0.212300  -0.056886
     6  C    0.060736  -0.000905  -0.206651  -0.000430   0.146589   0.003154
     7  H   -0.001174   0.000000   0.000796   0.000000  -0.000009   0.000216
     8  H   -0.018839   0.000000   0.017674  -0.000005   0.000036  -0.005368
     9  H    0.009687  -0.000009   0.006704   0.000000   0.013519   0.000031
    10  H    0.001177   0.000000  -0.000894   0.000000   0.000360   0.000076
    11  C  -10.831560  -0.003658  -0.173491   0.042032  -0.546553   0.021008
    12  C   -4.806893   0.046386  -1.697934   0.060928  -0.033496  -0.193173
    13  C   29.540500   0.254150  -4.455568  -0.111734   0.303530   0.074220
    14  H    0.254150   0.561157  -0.028932  -0.005605  -0.006394   0.001743
    15  C   -4.455568  -0.028932  15.671819   0.214761  -0.025533  -0.126758
    16  H   -0.111734  -0.005605   0.214761   0.515009  -0.001015  -0.005120
    17  O    0.303530  -0.006394  -0.025533  -0.001015   8.860033  -0.001091
    18  Cl   0.074220   0.001743  -0.126758  -0.005120  -0.001091  17.100364
    19  C   -0.257276  -0.044460   0.218329   0.005168  -0.086823  -0.003686
    20  C    0.894495   0.039707  -0.461199  -0.002842  -0.136430   0.003105
    21  H    0.018504  -0.000051   0.006694  -0.000001   0.008022  -0.000008
    22  C   -0.056903  -0.012525  -0.350952  -0.002332   0.057118  -0.000037
    23  H    0.015171   0.000297   0.002588   0.000000   0.006840  -0.000001
    24  H   -0.090274   0.006333  -0.056439  -0.000009  -0.015553   0.000032
    25  H    0.064553  -0.000338   0.026717   0.000000   0.011808  -0.000011
    26  C   -0.328632  -0.008721   0.035937   0.000164  -0.062694  -0.000118
    27  H    0.008559  -0.000004   0.000659   0.000000  -0.007504   0.000000
    28  H   -0.003125   0.000004  -0.000076   0.000000   0.006303   0.000000
    29  H   -0.013287  -0.000001  -0.002262   0.000000  -0.003273   0.000000
    30  C   -0.380926   0.003606   0.528188   0.000384   0.086842  -0.001326
    31  H    0.014030  -0.000051  -0.006482   0.000000  -0.002902  -0.000001
    32  H    0.020908  -0.000012   0.024255   0.000000   0.022087  -0.000079
    33  O   -0.035153   0.000142  -0.039023   0.000321  -0.003981   0.000375
    34  H   -0.019875   0.000113   0.019891  -0.000114  -0.003266   0.000911
    35  H   -0.008799   0.000000   0.016125  -0.000003  -0.000671  -0.002527
    36  O    0.016870  -0.000078  -0.014543  -0.000004   0.012971  -0.000014
    37  H    0.027206   0.000002  -0.010569   0.000000   0.006434   0.000001
    38  H    0.028460   0.000012  -0.006950   0.000000   0.024292  -0.000007
              19         20         21         22         23         24
     1  C    0.135715  -0.066384  -0.000011  -0.012110  -0.000014   0.000127
     2  C   -0.412261   0.241474  -0.000266   0.051492  -0.000052   0.001010
     3  C   -0.191642   0.283506  -0.004545   0.078145  -0.001326   0.012842
     4  C    0.746726  -0.131130  -0.002209  -0.007103  -0.003008   0.014147
     5  C   -0.309321  -0.347685   0.001745   0.100786   0.001088  -0.007437
     6  C    0.313470  -0.135304   0.000162  -0.012729   0.000247  -0.001863
     7  H   -0.000018   0.000008   0.000000  -0.000002   0.000000   0.000000
     8  H    0.000035  -0.000053   0.000000  -0.000005   0.000000   0.000000
     9  H    0.006008  -0.007467   0.000000  -0.000670   0.000000  -0.000001
    10  H    0.000304   0.000018   0.000000  -0.000040   0.000000   0.000000
    11  C   -2.504342   1.358948  -0.035418   0.329049  -0.032402   0.149865
    12  C    0.442431  -0.267144  -0.000129  -0.114824   0.000344  -0.009332
    13  C   -0.257276   0.894495   0.018504  -0.056903   0.015171  -0.090274
    14  H   -0.044460   0.039707  -0.000051  -0.012525   0.000297   0.006333
    15  C    0.218329  -0.461199   0.006694  -0.350952   0.002588  -0.056439
    16  H    0.005168  -0.002842  -0.000001  -0.002332   0.000000  -0.000009
    17  O   -0.086823  -0.136430   0.008022   0.057118   0.006840  -0.015553
    18  Cl  -0.003686   0.003105  -0.000008  -0.000037  -0.000001   0.000032
    19  C   12.172813  -3.279484   0.012624  -1.270236  -0.021247  -0.151468
    20  C   -3.279484   9.332160   0.292704   0.394183  -0.024336   0.021180
    21  H    0.012624   0.292704   0.541942  -0.007808   0.000341  -0.000322
    22  C   -1.270236   0.394183  -0.007808   7.718742   0.408734   0.456137
    23  H   -0.021247  -0.024336   0.000341   0.408734   0.520103  -0.026645
    24  H   -0.151468   0.021180  -0.000322   0.456137  -0.026645   0.557841
    25  H   -0.057707   0.021062   0.000216   0.441895  -0.023519  -0.029855
    26  C   -0.848575  -0.403652  -0.007192  -1.037725  -0.003584   0.041539
    27  H   -0.086826  -0.037955   0.000015   0.006471   0.000147  -0.000149
    28  H   -0.068057  -0.012782   0.000221  -0.016217   0.000625  -0.000053
    29  H   -0.049649   0.004767  -0.000062  -0.013006  -0.000126   0.000172
    30  C    1.102846  -1.063698   0.022521  -0.692587   0.005110  -0.021945
    31  H    0.056313  -0.083337  -0.005703  -0.007113   0.000000  -0.000016
    32  H    0.110997  -0.215893   0.004376   0.000615  -0.000005  -0.000021
    33  O    0.013741  -0.053812  -0.000036   0.003033   0.000001  -0.000004
    34  H   -0.006430   0.009724  -0.000004   0.005723   0.000000   0.000002
    35  H   -0.004616   0.006391   0.000000   0.001368   0.000000   0.000000
    36  O    0.005035   0.012385   0.000011  -0.025241   0.000284   0.000080
    37  H   -0.026801  -0.001294   0.000000   0.012852  -0.000004   0.000006
    38  H   -0.014525   0.001494  -0.000007  -0.008945   0.000022   0.000028
              25         26         27         28         29         30
     1  C   -0.000148  -0.001813   0.000028   0.000027   0.000073   0.033903
     2  C   -0.000334  -0.025254   0.000041  -0.000053  -0.000088  -0.144099
     3  C   -0.006396  -0.043938  -0.000191  -0.000464  -0.000268  -0.166903
     4  C   -0.009849  -0.113930   0.014107  -0.002823  -0.010404   0.083102
     5  C    0.003420   0.086480  -0.012756   0.004331   0.010417   0.085747
     6  C    0.002108  -0.055536  -0.000645   0.000624   0.002776   0.072499
     7  H    0.000000  -0.000001   0.000000   0.000000   0.000000  -0.000008
     8  H    0.000000  -0.000004   0.000000   0.000000   0.000000   0.000051
     9  H   -0.000004   0.002641   0.000477   0.000000  -0.000004   0.004505
    10  H    0.000000  -0.000172   0.000000   0.000000   0.000000   0.000010
    11  C   -0.071753   0.575217  -0.021975  -0.008210   0.012449  -0.925741
    12  C    0.003029  -0.004006  -0.000020   0.000103  -0.000069   0.155943
    13  C    0.064553  -0.328632   0.008559  -0.003125  -0.013287  -0.380926
    14  H   -0.000338  -0.008721  -0.000004   0.000004  -0.000001   0.003606
    15  C    0.026717   0.035937   0.000659  -0.000076  -0.002262   0.528188
    16  H    0.000000   0.000164   0.000000   0.000000   0.000000   0.000384
    17  O    0.011808  -0.062694  -0.007504   0.006303  -0.003273   0.086842
    18  Cl  -0.000011  -0.000118   0.000000   0.000000   0.000000  -0.001326
    19  C   -0.057707  -0.848575  -0.086826  -0.068057  -0.049649   1.102846
    20  C    0.021062  -0.403652  -0.037955  -0.012782   0.004767  -1.063698
    21  H    0.000216  -0.007192   0.000015   0.000221  -0.000062   0.022521
    22  C    0.441895  -1.037725   0.006471  -0.016217  -0.013006  -0.692587
    23  H   -0.023519  -0.003584   0.000147   0.000625  -0.000126   0.005110
    24  H   -0.029855   0.041539  -0.000149  -0.000053   0.000172  -0.021945
    25  H    0.525258  -0.073040   0.000002   0.000208   0.001891  -0.000993
    26  C   -0.073040   7.105133   0.484349   0.445668   0.413474   0.296614
    27  H    0.000002   0.484349   0.517411  -0.022625  -0.029596   0.010627
    28  H    0.000208   0.445668  -0.022625   0.525510  -0.025300   0.008512
    29  H    0.001891   0.413474  -0.029596  -0.025300   0.536727   0.000174
    30  C   -0.000993   0.296614   0.010627   0.008512   0.000174   6.234463
    31  H    0.000002   0.010378  -0.000019  -0.000020   0.000004   0.391910
    32  H    0.000003  -0.016468   0.000106   0.000060  -0.000012   0.512052
    33  O   -0.000001   0.001502   0.000001   0.000000   0.000002   0.053201
    34  H    0.000000  -0.001654   0.000000   0.000000   0.000000  -0.018768
    35  H    0.000000  -0.000812   0.000000   0.000000   0.000000  -0.010887
    36  O   -0.000607  -0.006515   0.000477   0.000111  -0.003561  -0.001254
    37  H    0.000083   0.005224   0.000007  -0.000001   0.000098  -0.000913
    38  H    0.000000   0.012803  -0.000048   0.000008   0.003100  -0.000556
              31         32         33         34         35         36
     1  C   -0.000106   0.000916   0.010063   0.000211   0.006138   0.032251
     2  C    0.000119  -0.005439  -0.031342   0.019914   0.060169  -0.034165
     3  C   -0.000017  -0.023169   0.059080  -0.029863  -0.000584   0.003430
     4  C   -0.000492  -0.012581   0.018387  -0.024299  -0.013746   0.174688
     5  C   -0.000601   0.027258   0.024350   0.027272   0.059876  -0.164241
     6  C    0.000495   0.010463  -0.007590  -0.000827  -0.000815   0.067528
     7  H    0.000000   0.000000   0.000001   0.000000  -0.000003  -0.000010
     8  H    0.000000   0.000000   0.000023   0.000000   0.000021   0.000001
     9  H   -0.000001  -0.000007   0.000075  -0.000005   0.000002   0.000969
    10  H    0.000000   0.000000  -0.000002   0.000000  -0.000001   0.000084
    11  C   -0.014567  -0.112546   0.062132   0.060763  -0.034019  -0.035350
    12  C   -0.000077   0.002327  -0.057881  -0.010911  -0.048289  -0.014082
    13  C    0.014030   0.020908  -0.035153  -0.019875  -0.008799   0.016870
    14  H   -0.000051  -0.000012   0.000142   0.000113   0.000000  -0.000078
    15  C   -0.006482   0.024255  -0.039023   0.019891   0.016125  -0.014543
    16  H    0.000000   0.000000   0.000321  -0.000114  -0.000003  -0.000004
    17  O   -0.002902   0.022087  -0.003981  -0.003266  -0.000671   0.012971
    18  Cl  -0.000001  -0.000079   0.000375   0.000911  -0.002527  -0.000014
    19  C    0.056313   0.110997   0.013741  -0.006430  -0.004616   0.005035
    20  C   -0.083337  -0.215893  -0.053812   0.009724   0.006391   0.012385
    21  H   -0.005703   0.004376  -0.000036  -0.000004   0.000000   0.000011
    22  C   -0.007113   0.000615   0.003033   0.005723   0.001368  -0.025241
    23  H    0.000000  -0.000005   0.000001   0.000000   0.000000   0.000284
    24  H   -0.000016  -0.000021  -0.000004   0.000002   0.000000   0.000080
    25  H    0.000002   0.000003  -0.000001   0.000000   0.000000  -0.000607
    26  C    0.010378  -0.016468   0.001502  -0.001654  -0.000812  -0.006515
    27  H   -0.000019   0.000106   0.000001   0.000000   0.000000   0.000477
    28  H   -0.000020   0.000060   0.000000   0.000000   0.000000   0.000111
    29  H    0.000004  -0.000012   0.000002   0.000000   0.000000  -0.003561
    30  C    0.391910   0.512052   0.053201  -0.018768  -0.010887  -0.001254
    31  H    0.532530  -0.034964  -0.000514   0.000261   0.000044  -0.000001
    32  H   -0.034964   0.526950  -0.002968  -0.000477   0.000052   0.000043
    33  O   -0.000514  -0.002968   8.151448   0.265450   0.258670   0.000047
    34  H    0.000261  -0.000477   0.265450   0.339406  -0.019868   0.000005
    35  H    0.000044   0.000052   0.258670  -0.019868   0.340769   0.000003
    36  O   -0.000001   0.000043   0.000047   0.000005   0.000003   8.172169
    37  H    0.000000   0.000000   0.000002   0.000000   0.000000   0.276000
    38  H    0.000000  -0.000003  -0.000009  -0.000001   0.000000   0.246610
              37         38
     1  C   -0.007861  -0.003812
     2  C    0.013442   0.002563
     3  C    0.005518   0.002219
     4  C    0.056769   0.054773
     5  C   -0.081132  -0.088387
     6  C   -0.015641   0.000908
     7  H    0.000000   0.000000
     8  H    0.000000   0.000000
     9  H   -0.000234   0.000461
    10  H   -0.000004  -0.000005
    11  C    0.022055   0.016307
    12  C    0.004904   0.004843
    13  C    0.027206   0.028460
    14  H    0.000002   0.000012
    15  C   -0.010569  -0.006950
    16  H    0.000000   0.000000
    17  O    0.006434   0.024292
    18  Cl   0.000001  -0.000007
    19  C   -0.026801  -0.014525
    20  C   -0.001294   0.001494
    21  H    0.000000  -0.000007
    22  C    0.012852  -0.008945
    23  H   -0.000004   0.000022
    24  H    0.000006   0.000028
    25  H    0.000083   0.000000
    26  C    0.005224   0.012803
    27  H    0.000007  -0.000048
    28  H   -0.000001   0.000008
    29  H    0.000098   0.003100
    30  C   -0.000913  -0.000556
    31  H    0.000000   0.000000
    32  H    0.000000  -0.000003
    33  O    0.000002  -0.000009
    34  H    0.000000  -0.000001
    35  H    0.000000   0.000000
    36  O    0.276000   0.246610
    37  H    0.355677  -0.021993
    38  H   -0.021993   0.317512
 Mulliken charges:
               1
     1  C   -0.454777
     2  C   -0.244128
     3  C    0.481953
     4  C   -0.047951
     5  C    0.344338
     6  C   -0.440482
     7  H    0.151733
     8  H    0.158807
     9  H    0.157464
    10  H    0.151293
    11  C   -0.425412
    12  C   -0.369625
    13  C   -0.003974
    14  H    0.141929
    15  C   -0.265414
    16  H    0.167973
    17  O   -0.397078
    18  Cl   0.227213
    19  C    0.352892
    20  C   -0.185431
    21  H    0.153675
    22  C   -0.417232
    23  H    0.174324
    24  H    0.150043
    25  H    0.172299
    26  C   -0.473088
    27  H    0.176829
    28  H    0.167493
    29  H    0.164847
    30  C   -0.262205
    31  H    0.150896
    32  H    0.161176
    33  O   -0.689730
    34  H    0.386718
    35  H    0.396012
    36  O   -0.722384
    37  H    0.380167
    38  H    0.428834
 Sum of Mulliken charges =   0.00000
 Mulliken charges with hydrogens summed into heavy atoms:
               1
     1  C   -0.303044
     2  C   -0.085321
     3  C    0.481953
     4  C   -0.047951
     5  C    0.501802
     6  C   -0.289188
    11  C   -0.425412
    12  C   -0.369625
    13  C    0.137955
    15  C   -0.097441
    17  O   -0.397078
    18  Cl   0.227213
    19  C    0.352892
    20  C   -0.031756
    22  C    0.079435
    26  C    0.036082
    30  C    0.049867
    33  O    0.092999
    36  O    0.086618
 Electronic spatial extent (au):  <R**2>=           5669.4999
 Charge=              0.0000 electrons
 Dipole moment (field-independent basis, Debye):
    X=              2.8357    Y=             -1.4876    Z=             -1.3867  Tot=              3.4895
 Quadrupole moment (field-independent basis, Debye-Ang):
   XX=           -115.9203   YY=           -125.3909   ZZ=           -132.6064
   XY=            -18.6804   XZ=              1.3631   YZ=             16.0389
 Traceless Quadrupole moment (field-independent basis, Debye-Ang):
   XX=              8.7189   YY=             -0.7517   ZZ=             -7.9672
   XY=            -18.6804   XZ=              1.3631   YZ=             16.0389
 Octapole moment (field-independent basis, Debye-Ang**2):
  XXX=             38.7888  YYY=            -32.9745  ZZZ=            -33.6900  XYY=            -15.8036
  XXY=             -0.1783  XXZ=             10.5224  XZZ=              7.1097  YZZ=             10.1170
  YYZ=             16.7919  XYZ=              6.1258
 Hexadecapole moment (field-independent basis, Debye-Ang**3):
 XXXX=          -4322.6063 YYYY=          -2037.5641 ZZZZ=          -1196.4932 XXXY=            -97.4990
 XXXZ=            -62.0798 YYYX=           -119.9343 YYYZ=            136.3103 ZZZX=             29.9348
 ZZZY=             38.0727 XXYY=          -1097.7712 XXZZ=           -988.7846 YYZZ=           -560.4563
 XXYZ=             68.3239 YYXZ=             51.9761 ZZXY=            -47.6304
 N-N= 1.629189270265D+03 E-N=-6.231336946627D+03  KE= 1.259911121068D+03
 D1PCM: C-PCM CHGder 1st derivatives, ID1Alg=3 FixD1E=F DoIter=F DoCFld=F I1PDM=0.
 Calling FoFJK, ICntrl=      2127 FMM=F ISym2X=0 I1Cent= 0 IOpClX= 0 NMat=1 NMatS=1 NMatT=0.
 ***** Axes restored to original set *****
 -------------------------------------------------------------------
[...]
 32,0.00020720,-0.00034117,-0.00001068,-0.00002532,0.00001397,-0.000021
 62,-0.00004350,-0.00000053,0.00010494,0.00015977,0.00002322,0.00049471
 ,0.00120612,-0.00054857,-0.00025253,-0.00006266,-0.00016447,-0.0014646
 7,-0.00148558,-0.00065723,-0.19906298,0.07695235,0.19904819,0.22098610
 ,-0.00001085,0.00011704,0.00005541,0.00008235,-0.00015949,-0.00000783,
 0.00023310,-0.00011106,-0.00040498,0.00040599,-0.00048877,-0.00026281,
 -0.00006006,-0.00023200,-0.00020471,-0.00005948,0.00012019,0.00007963,
 -0.00002135,0.00003448,0.00001496,-0.00004814,0.00001282,0.00000919,0.
 00002716,0.00002192,0.00000824,-0.00001603,0.00004040,0.00002711,-0.00
 089535,-0.00039554,0.00011237,0.00034471,0.00039091,0.00042592,-0.0000
 2648,0.00042315,0.00008795,0.00006796,-0.00000884,-0.00013537,0.000343
 53,0.00007781,0.00032650,-0.00005206,-0.00004917,-0.00015197,0.0003937
 5,-0.00005303,0.00001910,-0.00040464,-0.00012999,-0.00012096,-0.000298
 12,0.00015244,0.00019838,0.00017040,-0.00037143,-0.00010762,-0.0000377
 1,-0.00007389,-0.00015243,0.00006032,-0.00002254,-0.00000120,0.0000285
 5,-0.00000149,-0.00001437,-0.00001684,0.00001325,0.00002356,0.00000343
 ,0.00001109,-0.00001517,0.00001776,-0.00000548,-0.00006725,-0.00000686
 ,-0.00000389,0.00000096,0.00002513,0.00000542,0.00000500,0.00001114,0.
 00003362,0.00000214,-0.00027714,0.00067058,0.00036077,0.00020179,-0.00
 019569,0.00003348,-0.00075823,-0.00065598,-0.00038684,0.06374965,-0.03
 219430,-0.04333172,-0.08171583,0.03879422,0.00010444,-0.00012834,-0.00
 002290,-0.00004731,-0.00012712,-0.00006953,0.00021774,0.00039961,0.000
 04576,-0.00049854,0.00044815,-0.00006353,0.00015425,-0.00008023,0.0000
 1504,0.00001336,-0.00012994,-0.00005629,0.00002733,-0.00003573,-0.0000
 2057,0.00004857,-0.00000405,0.00000298,-0.00003557,-0.00001146,0.00000
 539,0.00000785,-0.00004743,-0.00002893,0.00209925,0.00271148,0.0003540
 7,-0.00092412,-0.00012455,-0.00035714,0.00128528,-0.00131288,0.0001648
 6,-0.00001428,0.00008915,-0.00029667,-0.00179113,-0.00053837,-0.001368
 12,0.00006832,0.00005377,0.00004950,-0.00185796,-0.00063396,-0.0002273
 8,0.00066894,0.00013861,0.00014913,0.00087204,-0.00042660,0.00001909,0
 .00018157,-0.00023484,-0.00006008,-0.00006069,0.00000650,-0.00015860,-
 0.00010369,0.00012363,-0.00000244,-0.00004939,0.00000362,0.00004084,0.
 00002183,-0.00003243,-0.00004260,0.00000179,-0.00001272,-0.00002375,-0
 .00011072,0.00011959,-0.00002269,0.00000738,-0.00000451,0.00000249,-0.
 00005587,-0.00002852,-0.00001237,0.00002300,0.00002708,0.00000398,-0.0
 0007934,0.00062072,0.00002274,-0.00014793,0.00006903,-0.00005357,-0.00
 034487,-0.00063173,-0.00018509,0.24613668,-0.07512025,-0.32369907,-0.2
 2956238,0.06660811,0.31666909,0.00016598,0.00024578,0.00022632,-0.0000
 3279,-0.00007725,-0.00018771,0.00041705,0.00011148,0.00003517,0.000123
 16,0.00012149,-0.00029839,0.00000584,-0.00048178,-0.00034480,-0.000281
 23,0.00011212,0.00004916,-0.00000942,0.00000800,-0.00000077,-0.0000492
 9,0.00002688,-0.00002928,0.00000947,0.00001311,0.00001248,-0.00001899,
 0.00001821,0.00001173,-0.00068370,-0.00003074,0.00016813,0.00022937,0.
 00006265,-0.00043805,-0.00030095,0.00016187,-0.00016078,0.00001810,-0.
 00002507,-0.00001470,0.00021686,0.00019433,0.00000264,-0.00001162,-0.0
 0001442,-0.00004908,0.00034217,0.00003213,0.00001668,-0.00031437,-0.00
 011904,-0.00006751,-0.00019587,0.00008994,-0.00000432,-0.00001355,0.00
 000457,-0.00007533,0.00002233,-0.00000079,0.00001620,0.00005201,-0.000
 02951,-0.00000328,0.00001229,-0.00000085,-0.00000903,-0.00000679,0.000
 00619,0.00001145,-0.00000176,0.00000339,0.00000346,0.00003158,-0.00002
 918,0.00000180,-0.00000215,0.00000111,-0.00000155,0.00001433,0.0000062
 4,0.00000309,-0.00000492,-0.00000229,-0.00000084,-0.00014182,-0.000131
 36,0.00013087,0.00007737,-0.00002644,-0.00001082,-0.00011462,0.0000339
 6,-0.00003057,-0.27063938,0.20833956,-0.10188859,-0.02058007,0.0185493
 7,-0.01627328,0.29167543,-0.00005992,-0.00008408,-0.00013271,0.0005311
 3,-0.00043396,-0.00021328,0.00026939,0.00059145,0.00007505,-0.00065188
 ,-0.00022777,-0.00009577,0.00000446,-0.00011700,-0.00000764,0.00002144
 ,0.00000087,0.00006028,-0.00001570,0.00004057,0.00001009,-0.00003201,0
 .00001359,0.00001939,0.00001416,0.00003478,0.00000279,0.00000748,0.000
 03450,0.00000170,-0.00033266,0.00021461,0.00012050,0.00006152,0.000574
 86,0.00099542,0.00030744,-0.00016137,0.00011877,-0.00001627,-0.0000206
 4,-0.00002849,0.00013831,-0.00043919,0.00008277,0.00001042,-0.00000937
 ,-0.00002423,0.00023913,-0.00006655,-0.00001697,-0.00027554,-0.0001320
 7,-0.00014171,-0.00012870,0.00007100,-0.00004889,-0.00000712,0.0000916
 9,0.00003585,0.00001475,0.00000676,0.00004105,0.00002232,-0.00002351,0
 .00000213,0.00000662,-0.00000079,-0.00000794,-0.00000288,0.00000480,0.
 00000392,-0.00000209,0.00000149,0.00000685,0.00002557,-0.00003013,0.00
 001916,0.00000034,0.00000218,-0.00000176,0.00000953,0.00000573,0.00000
 192,-0.00000842,-0.00001014,-0.00000121,-0.00010067,-0.00021367,0.0000
 1236,0.00002796,-0.00001112,-0.00001006,0.00001509,0.00011692,-0.00001
 450,0.22159121,-0.17645914,0.09915601,0.00548187,-0.00570827,0.0081423
 1,-0.22715614,0.18235525,-0.00002747,-0.00022113,-0.00006828,-0.000672
 10,0.00052321,0.00030598,-0.00001837,0.00088485,-0.00002999,0.00066556
 ,0.00054474,-0.00015459,-0.00001877,0.00011952,0.00012316,0.00012734,-
 0.00014678,-0.00010920,0.00003020,-0.00006584,-0.00004097,0.00005246,-
 0.00000052,-0.00002350,-0.00004406,-0.00005948,-0.00000571,0.00000025,
 -0.00006026,-0.00002124,0.00103668,0.00065086,-0.00003471,-0.00167970,
 -0.00083041,-0.00047994,-0.00018795,-0.00032319,-0.00024216,-0.0000828
 9,0.00000766,0.00008466,0.00112408,-0.00048666,-0.00023995,-0.00002225
 ,0.00007799,0.00007333,-0.00121317,-0.00028024,-0.00004989,0.00031755,
 0.00016762,-0.00008961,0.00052479,-0.00025511,-0.00000688,-0.00009607,
 -0.00005114,0.00004073,-0.00000387,0.00003163,-0.00002064,-0.00009925,
 0.00007049,0.00000442,-0.00003244,0.00000361,0.00002548,0.00001386,-0.
 00002271,-0.00002551,0.00000070,-0.00000985,-0.00001093,-0.00007000,0.
 00008085,-0.00001081,0.00000516,-0.00000341,0.00000121,-0.00003537,-0.
 00001652,-0.00000717,0.00001741,0.00000705,0.00000356,0.00008321,0.000
 06177,-0.00004378,-0.00002681,0.00002210,-0.00002360,0.00000134,-0.000
 03389,0.00001318,-0.14941452,0.13081880,-0.11268854,0.03053624,-0.0230
 9248,0.00932024,0.11917875,-0.10818028,0.10449816,-0.00009320,-0.00015
 906,-0.00015380,-0.00020671,0.00010577,0.00001185,0.00008857,0.0000889
 0,0.00000409,0.00030924,0.00022591,0.00021653,-0.00050851,-0.00012326,
 0.00101622,0.00046098,-0.00038740,0.00002051,-0.00004105,0.00000546,-0
 .00000346,-0.00000454,-0.00000574,0.00000991,-0.00033464,0.00003740,-0
 .00043680,0.00000604,0.00002246,0.00001463,-0.00134300,0.00040598,-0.0
 0027640,0.00015733,0.00004422,-0.00001997,0.00034979,0.00021500,-0.000
 06214,-0.00002213,-0.00005086,-0.00002762,-0.00008326,-0.00005708,0.00
 004980,0.00001626,-0.00000296,0.00000896,0.00291100,0.00119919,-0.0010
 4424,-0.00000379,-0.00002251,-0.00000965,-0.00012184,-0.00081867,0.000
 68882,0.00022447,-0.00015544,-0.00000109,-0.00002133,0.00000614,0.0000
 1694,-0.00017946,-0.00031062,0.00059564,-0.00004338,0.00025734,-0.0001
 6451,-0.00000742,0.00022833,-0.00006573,0.00018395,-0.00008393,-0.0006
 0147,-0.00062645,-0.00071639,0.00049591,0.00000604,0.00010787,-0.00014
 894,-0.00001325,0.00034798,-0.00025194,0.00062715,0.00051253,-0.000191
 46,0.00003833,0.00010875,-0.00007454,0.00000464,0.00000504,-0.00003995
 ,-0.00000785,-0.00000557,0.00000969,0.00001683,-0.00002104,0.00004058,
 -0.00004194,-0.00000973,-0.00000613,0.00001695,0.00002221,-0.00003933,
 0.44056688,-0.00010787,-0.00003852,-0.00004540,-0.00007825,0.00011772,
 0.00005937,0.00017595,-0.00001290,-0.00000524,-0.00047535,0.00003053,0
 .00011016,-0.00027860,-0.00015632,-0.00005608,0.00011955,0.00005122,0.
 00008726,-0.00003007,0.00002193,0.00000615,-0.00003570,0.00001164,-0.0
 0000162,0.00012170,-0.00010642,-0.00010258,-0.00001631,0.00004132,0.00
 001953,0.00608991,0.00218300,0.00068173,0.00012293,0.00012884,0.000045
 49,-0.00088916,-0.00080542,-0.00031193,0.00005190,0.00006014,0.0000505
 6,0.00029660,0.00006281,-0.00005089,-0.00007729,-0.00004883,-0.0000230
 6,-0.00237585,-0.00859011,0.00646496,-0.00040611,-0.00013019,-0.000055
 73,-0.00308793,0.00086029,0.00015612,0.00049860,-0.00002537,-0.0001607
 1,0.00006465,-0.00021149,0.00012544,0.00056705,0.00044479,-0.00061731,
 0.00011701,-0.00030884,0.00009052,-0.00005357,-0.00014935,0.00008720,-
 0.00041033,0.00009054,0.00047650,0.00030795,0.00008892,-0.00016547,-0.
 00000500,-0.00004601,0.00008767,0.00013321,-0.00007861,0.00012009,-0.0
 0026731,-0.00026223,0.00004329,0.00000211,-0.00018266,0.00010478,0.000
 00008,-0.00005151,0.00005441,-0.00000407,0.00001917,-0.00011024,-0.000
 07615,-0.00003793,0.00011667,0.00007255,0.00006362,-0.00011696,0.00003
 722,0.00001082,-0.00009089,-0.20577862,0.40671883,0.00006150,0.0000579
 9,0.00009290,0.00023844,-0.00007918,0.00007656,0.00004691,0.00006926,-
 0.00007641,0.00033714,-0.00047320,-0.00010122,0.00010347,0.00009952,-0
 .00181624,-0.00018834,0.00037283,0.00013029,0.00008938,-0.00001845,0.0
 0000226,0.00003009,0.00000883,-0.00001674,0.00044278,0.00018054,0.0011
 8037,0.00000124,-0.00003719,-0.00006292,-0.00360675,-0.00108728,-0.000
 44658,-0.00022267,-0.00015133,-0.00002401,0.00063405,0.00068371,0.0002
 0155,-0.00002192,-0.00000221,-0.00004977,-0.00019829,0.00000152,0.0000
 6613,0.00005274,0.00004750,0.00001633,0.00066964,0.00665353,-0.0026849
 3,0.00034239,0.00012849,0.00005202,0.00245350,-0.00016272,-0.00081939,
 -0.00050580,0.00013703,0.00026673,-0.00003888,0.00018431,-0.00013316,-
 0.00008660,0.00026189,-0.00025296,-0.00005765,-0.00006194,0.00016905,0
 .00003281,-0.00002697,0.00001282,-0.00012232,-0.00011650,0.00019709,-0
 .00025818,-0.00011599,0.00029370,0.00005653,-0.00001832,0.00003524,-0.
 00008090,0.00007783,-0.00007098,0.00012255,0.00009791,-0.00022388,0.00
 000544,0.00007139,-0.00002956,-0.00000449,0.00002298,-0.00002763,0.000
 00986,-0.00002182,0.00009316,0.00005245,0.00005125,-0.00010279,-0.0000
 4637,-0.00007166,0.00010846,-0.00002864,-0.00002725,0.00008282,-0.0836
 4263,-0.23181932,0.25959206,-0.00008341,0.00002038,-0.00001094,0.00002
 508,0.00005755,0.00003578,0.00009336,-0.00004516,-0.00002143,-0.000122
 63,-0.00031967,0.00002489,0.00020334,0.00001652,0.00015226,-0.00021002
 ,0.00017814,-0.00009680,0.00000950,-0.00000357,-0.00000350,0.00000078,
 0.00000624,-0.00000259,-0.00007334,-0.00009525,-0.00000797,0.00000279,
 -0.00001423,0.00001249,0.00068145,0.00029803,0.00004989,-0.00006953,0.
 00004063,0.00000910,-0.00015916,-0.00010794,-0.00001424,0.00000220,0.0
 0000726,0.00000495,0.00008945,0.00001097,-0.00001684,-0.00000664,-0.00
 000178,0.00000127,-0.00030145,-0.00089563,0.00065258,-0.00000657,0.000
 00108,-0.00000129,-0.00029879,0.00014785,-0.00009274,0.00005597,-0.000
 00877,-0.00000561,0.00000369,-0.00001617,0.00001210,0.00007779,-0.0000
 8125,0.00002235,0.00001649,-0.00004035,0.00000524,-0.00000462,-0.00000
 742,-0.00000467,-0.00010086,0.00007269,0.00004542,-0.00003333,-0.00009
 539,0.00005241,-0.00000196,0.00001911,-0.00001113,0.00001808,0.0000158
 8,-0.00000592,-0.00002536,0.00005933,-0.00004277,-0.00001889,-0.000008
 22,0.00000611,0.00000080,-0.00000291,0.00000405,0.00000033,0.00000153,
 -0.00000632,-0.00000666,-0.00000336,-0.00000158,0.00000833,0.00000411,
 -0.00000012,0.00000234,-0.00000177,0.00000489,-0.40181695,0.22389914,0
 .04577947,0.40446326,0.00010701,0.00009328,0.00010534,0.00017410,-0.00
 010961,-0.00001482,-0.00018461,0.00000900,-0.00010255,-0.00000960,-0.0
 0012308,-0.00020347,0.00009681,-0.00008816,-0.00023629,-0.00023874,0.0
 0019529,-0.00002402,0.00003805,-0.00000918,-0.00000212,0.00001519,0.00
 000203,-0.00000985,0.00019464,0.00007130,0.00034410,0.00000775,-0.0000
 2400,-0.00003640,0.00019734,-0.00052618,0.00006611,-0.00012712,-0.0000
 7405,0.00004827,-0.00006087,0.00002438,0.00008970,0.00000034,0.0000209
 2,0.00001574,0.00001176,0.00005189,-0.00006172,0.00000219,0.00001386,-
 0.00000049,-0.00066562,-0.00013984,0.00048915,0.00009693,0.00005058,0.
 00001990,0.00018080,0.00006495,-0.00018985,-0.00005508,0.00004201,0.00
 002879,-0.00000112,0.00001762,-0.00002035,0.00006459,0.00014324,-0.000
 19188,-0.00000860,-0.00006267,0.00006183,0.00000021,-0.00002906,0.0000
 0828,-0.00004339,-0.00014426,0.00013759,-0.00009731,0.00009343,-0.0000
 4016,-0.00000194,0.00000438,-0.00000130,-0.00001842,0.00001653,-0.0000
 1249,0.00008131,-0.00005551,0.00004743,-0.00001265,0.00000044,-0.00000
 154,-0.00000388,0.00000379,-0.00000134,0.00000575,0.00000595,0.0000045
 1,0.00001081,0.00002142,-0.00003928,0.00000266,-0.00001945,0.00002630,
 -0.00001492,-0.00001433,0.00003551,0.18520962,-0.12979722,0.00208963,-
 0.21872267,0.14569431,0.00009028,-0.00002498,-0.00004837,-0.00020869,-
 0.00007818,-0.00008361,-0.00013028,0.00007697,0.00001803,0.00003497,0.
 00046708,0.00021718,0.00008520,0.00003357,0.00047355,0.00017662,-0.000
 43570,0.00004702,-0.00006911,0.00001128,0.00000212,-0.00001232,-0.0000
 1736,0.00001186,-0.00034794,0.00017039,-0.00100814,-0.00001023,0.00002
 157,0.00003332,-0.00043946,0.00015601,-0.00015954,0.00020148,0.0000132
 1,-0.00000538,0.00019382,-0.00000983,-0.00000320,0.00000138,-0.0000145
 3,-0.00001875,-0.00009698,-0.00003197,0.00002244,0.00000209,-0.0000135
 4,-0.00000411,0.00086829,0.00057421,-0.00048931,-0.00010198,-0.0000536
 6,-0.00002518,-0.00008812,-0.00024414,0.00001963,0.00004961,0.00000356
 ,0.00002531,-0.00000408,-0.00000337,0.00000665,0.00010104,-0.00004419,
 -0.00002022,0.00001404,-0.00002679,0.00001734,-0.00000824,-0.00000572,
 0.00002102,-0.00006397,0.00005344,0.00002054,-0.00014912,-0.00012384,0
 .00008115,0.00000261,0.00001883,-0.00002317,0.00000630,0.00007577,-0.0
 0005747,0.00013112,0.00011582,-0.00007902,0.00001402,0.00000306,0.0000
 0300,-0.00000250,-0.00000475,-0.00000033,-0.00000611,-0.00000409,-0.00
 000123,-0.00000793,-0.00002559,0.00004258,-0.00000461,0.00002104,-0.00
 003290,0.00001233,0.00002224,-0.00004173,0.08011586,-0.02139606,-0.030
 20798,-0.05181570,0.00435701,0.02862817,0.00016992,0.00010320,0.000135
 66,0.00025373,-0.00013737,-0.00003372,-0.00021007,-0.00000943,-0.00021
 446,-0.00057241,-0.00029518,0.00004596,-0.00049151,-0.00009630,0.00003
 087,-0.00019737,0.00032880,-0.00007095,0.00006573,-0.00000961,0.000003
 19,0.00002382,0.00000055,-0.00001566,0.00001391,0.00018887,0.00127721,
 0.00001397,-0.00004361,-0.00004069,0.00031122,-0.00321148,0.00155168,-
 0.00021258,-0.00004321,0.00012508,-0.00054420,-0.00017148,0.00006697,0
 .00003343,0.00007887,0.00007820,0.00014518,0.00008553,-0.00016650,-0.0
 0000786,0.00001505,-0.00001838,-0.00524085,-0.00011440,0.00012137,0.00
 009405,0.00006125,0.00003008,0.00071064,0.00261188,-0.00176624,-0.0005
 8560,0.00030502,0.00003384,0.00001484,0.00004331,-0.00006296,-0.000123
 03,0.00060689,-0.00048611,0.00003502,-0.00027110,0.00015416,0.00002296
 ,-0.00031719,0.00004173,-0.00034720,0.00052841,0.00091503,0.00051250,0
 .00114660,-0.00086202,0.00000219,-0.00019082,0.00023846,0.00007057,-0.
 00053147,0.00040792,-0.00193914,-0.00055842,-0.00029901,-0.00003410,-0
 .00015117,0.00011773,-0.00000187,0.00000153,0.00005140,0.00001614,-0.0
 0000478,0.00000304,-0.00000463,0.00003958,-0.00007363,0.00003970,-0.00
 000529,0.00002370,-0.00002934,-0.00003061,0.00006393,-0.04046379,-0.01
 822459,0.03754806,-0.00241486,0.03376871,-0.02853369,0.05087090,-0.000
 04305,-0.00011831,-0.00008064,-0.00008784,0.00001861,-0.00006729,-0.00
 013878,-0.00007975,0.00001154,0.00104716,-0.00012481,0.00008809,0.0003
 5653,0.00039742,0.00097285,0.00014283,-0.00043343,-0.00018299,0.000004
 26,-0.00003470,-0.00001874,0.00005555,-0.00002305,0.00000467,-0.000290
 92,0.00018929,-0.00062981,0.00001738,-0.00006651,0.00002165,-0.0124538
 2,-0.00531938,0.00027770,-0.00010046,-0.00001419,-0.00007412,0.0016380
 0,0.00158241,0.00035667,-0.00006989,-0.00010150,-0.00007369,-0.0004010
 1,-0.00019095,0.00004800,0.00013450,0.00008082,0.00005066,0.00447728,0
 .00591984,-0.00498390,0.00069645,0.00019785,0.00009079,0.00640265,-0.0
 0360228,0.00094390,-0.00089594,0.00015389,0.00023758,-0.00009478,0.000
 38059,-0.00023318,-0.00063803,-0.00051812,0.00023453,-0.00025111,0.000
 41446,0.00010141,0.00008130,0.00015442,-0.00006320,0.00089568,-0.00045
 161,-0.00091093,0.00008941,0.00040757,0.00021345,0.00001836,-0.0000067
 5,-0.00006897,-0.00032145,-0.00012899,-0.00008888,0.00011375,0.0000415
 9,0.00018093,-0.00000267,0.00029011,-0.00020150,0.00000314,0.00009595,
 -0.00007706,-0.00001171,-0.00003728,0.00018351,0.00012445,0.00005127,-
 0.00017271,-0.00012872,-0.00010268,0.00019493,-0.00003981,-0.00000880,
 0.00012255,0.01955282,-0.26996616,0.22299339,-0.00438495,-0.01542402,0
 .01636325,-0.01549656,0.28637718,-0.00008973,0.00008286,0.00005322,-0.
 00010486,0.00003935,-0.00008101,0.00000061,-0.00013039,0.00016428,-0.0
 0069947,0.00052045,-0.00008374,0.00091061,0.00027092,0.00017072,-0.000
 27055,-0.00014385,-0.00011062,-0.00009070,0.00002301,-0.00000235,-0.00
 004844,0.00000462,0.00000809,0.00095886,-0.00065063,-0.00195662,-0.000
 02160,0.00006260,0.00005261,0.00705875,0.00194419,0.00080654,0.0001969
 7,0.00008444,0.00000188,-0.00128837,-0.00116219,-0.00021571,0.00003047
 ,-0.00000938,0.00008728,0.00023099,0.00002191,-0.00016169,-0.00010727,
 -0.00006841,-0.00003524,-0.00176535,-0.00413146,-0.00065604,-0.0005176
 2,-0.00017634,-0.00006811,-0.00462900,0.00126234,0.00123110,0.00088148
 ,-0.00034619,-0.00047650,0.00007696,-0.00034075,0.00024172,0.00021173,
 -0.00068486,0.00079510,0.00008764,0.00021880,-0.00043304,-0.00006250,0
 .00014702,-0.00011777,0.00056488,-0.00029623,-0.00061112,0.00014922,-0
 .00003384,-0.00045704,-0.00007972,0.00003339,-0.00008485,0.00024012,-0
 .00010537,0.00011186,-0.00064689,0.00004699,0.00014980,-0.00003018,-0.
 00011259,0.00004078,0.00000696,-0.00005070,0.00004473,0.00000231,0.000
 02046,-0.00009844,-0.00008127,-0.00006371,0.00014394,0.00007639,0.0001
 0956,-0.00016943,0.00003704,0.00002214,-0.00010763,0.00394586,0.246141
 56,-0.22552243,0.00528691,-0.00678529,0.00261871,-0.01042123,-0.235764
 42,0.22472704\\-0.00000167,-0.00000165,-0.00000175,-0.00000273,-0.0000
 0676,0.00000075,0.00000244,-0.00000146,-0.00000308,-0.00000261,0.00000
 031,0.00000125,-0.00000161,-0.00000262,-0.00000187,-0.00000560,-0.0000
 0175,-0.00000057,-0.00000393,-0.00000460,-0.00000248,-0.00000080,-0.00
 000446,-0.00000238,-0.00000294,0.00000046,-0.00000108,-0.00000451,-0.0
 0000168,-0.00000182,0.00001137,0.00000492,-0.00000528,0.00000032,-0.00
 000506,-0.00000315,-0.00000231,-0.00000537,0.00001263,0.00000353,0.000
 00213,-0.00000596,0.00000250,0.00000103,-0.00000365,0.00000447,-0.0000
 0272,0.00000004,-0.00000997,-0.00000155,0.00000043,0.00000250,-0.00000
 424,-0.00000271,0.00000682,-0.00000083,0.00000001,0.00000086,0.0000038
 5,-0.00000058,0.00000281,0.00000353,0.00000249,0.00000127,0.00000347,0
 .00000065,0.00000225,0.00000277,0.00000296,0.00000221,0.00000233,0.000
 00175,0.00000109,0.00000201,0.00000227,-0.00000199,0.00000478,0.000001
 99,-0.00000150,0.00000304,0.00000139,-0.00000043,0.00000425,0.00000213
 ,-0.00000103,0.00000336,0.00000175,0.00000353,0.00000403,0.00000460,0.
 00000221,0.00000199,0.00000069,-0.00000462,-0.00000424,-0.00000438,-0.
 00000250,0.00000906,-0.00000061,0.00000577,-0.00000621,0.00000831,-0.0
 0000158,-0.00000385,-0.00000863,-0.00000542,-0.00000228,-0.00000351,-0
 .00000249,0.00000019,-0.00000030,0.00000429,0.00000380,0.00000771\\\@


 MATERIAL COPIED FROM ONE SCHOLARLY BOOK WITHOUT CREDIT COMPRISES PLAGIARISM.
 MATERIAL COPIED FROM TWO SCHOLARLY BOOKS COMPRISES AN ESSAY.
 MATERIAL COPIED FROM THREE SCHOLARLY BOOKS COMPRISES A DISSERTATION.
 MATERIAL COPIED FROM FOUR SCHOLARLY BOOKS COMPRISES A FIFTH SCHOLARLY BOOK.

                               -- C&EN, 25 FEB 1980
 Job cpu time:       0 days  5 hours 16 minutes  0.6 seconds.
 File lengths (MBytes):  RWF=    811 Int=      0 D2E=      0 Chk=     26 Scr=      1
 Normal termination of Gaussian 09 at Thu Aug 27 23:42:18 2020.
