 Entering Gaussian System, Link 0=g09
 Input=freq_b3lyp_TS_2H2O_claisen_PM6_toluene_water_1.com
 Output=freq_b3lyp_TS_2H2O_claisen_PM6_toluene_water_1.log
 Initial command:
 /apps/applications/gaussian/G09.D01/2/default/g09/l1.exe "/local/715708.1.40core-192G.q/Gau-371360.inp" -scrdir="/local/715708.1.40core-192G.q/"
 Entering Link 1 = /apps/applications/gaussian/G09.D01/2/default/g09/l1.exe PID=    371361.
  
 Copyright (c) 1988,1990,1992,1993,1995,1998,2003,2009,2013,
            Gaussian, Inc.  All Rights Reserved.
  
 This is part of the Gaussian(R) 09 program.  It is based on
 the Gaussian(R) 03 system (copyright 2003, Gaussian, Inc.),
 the Gaussian(R) 98 system (copyright 1998, Gaussian, Inc.),
 the Gaussian(R) 94 system (copyright 1995, Gaussian, Inc.),
 the Gaussian 92(TM) system (copyright 1992, Gaussian, Inc.),
 the Gaussian 90(TM) system (copyright 1990, Gaussian, Inc.),
 the Gaussian 88(TM) system (copyright 1988, Gaussian, Inc.),
 the Gaussian 86(TM) system (copyright 1986, Carnegie Mellon
 University), and the Gaussian 82(TM) system (copyright 1983,
 Carnegie Mellon University). Gaussian is a federally registered
 trademark of Gaussian, Inc.
  
 This software contains proprietary and confidential information,
 including trade secrets, belonging to Gaussian, Inc.
  
 This software is provided under written license and may be
 used, copied, transmitted, or stored only in accord with that
 written license.
  
 The following legend is applicable only to US Government
 contracts under FAR:
  
                    RESTRICTED RIGHTS LEGEND
  
 Use, reproduction and disclosure by the US Government is
 subject to restrictions as set forth in subparagraphs (a)
 and (c) of the Commercial Computer Software - Restricted
 Rights clause in FAR 52.227-19.
  
 Gaussian, Inc.
 340 Quinnipiac St., Bldg. 40, Wallingford CT 06492
  
  
 ---------------------------------------------------------------
 Warning -- This program may not be used in any manner that
 competes with the business of Gaussian, Inc. or will provide
 assistance to any competitor of Gaussian, Inc.  The licensee
 of this program is prohibited from giving any competitor of
 Gaussian, Inc. access to this program.  By using this program,
 the user acknowledges that Gaussian, Inc. is engaged in the
 business of creating and licensing software in the field of
 computational chemistry and represents and warrants to the
 licensee that it is not a competitor of Gaussian, Inc. and that
 it will not use this program in any manner prohibited above.
 ---------------------------------------------------------------
  

 Cite this work as:
 Gaussian 09, Revision D.01,
 M. J. Frisch, G. W. Trucks, H. B. Schlegel, G. E. Scuseria, 
 M. A. Robb, J. R. Cheeseman, G. Scalmani, V. Barone, B. Mennucci, 
 G. A. Petersson, H. Nakatsuji, M. Caricato, X. Li, H. P. Hratchian, 
 A. F. Izmaylov, J. Bloino, G. Zheng, J. L. Sonnenberg, M. Hada, 
 M. Ehara, K. Toyota, R. Fukuda, J. Hasegawa, M. Ishida, T. Nakajima, 
 Y. Honda, O. Kitao, H. Nakai, T. Vreven, J. A. Montgomery, Jr., 
 J. E. Peralta, F. Ogliaro, M. Bearpark, J. J. Heyd, E. Brothers, 
 K. N. Kudin, V. N. Staroverov, T. Keith, R. Kobayashi, J. Normand, 
 K. Raghavachari, A. Rendell, J. C. Burant, S. S. Iyengar, J. Tomasi, 
 M. Cossi, N. Rega, J. M. Millam, M. Klene, J. E. Knox, J. B. Cross, 
 V. Bakken, C. Adamo, J. Jaramillo, R. Gomperts, R. E. Stratmann, 
 O. Yazyev, A. J. Austin, R. Cammi, C. Pomelli, J. W. Ochterski, 
 R. L. Martin, K. Morokuma, V. G. Zakrzewski, G. A. Voth, 
 P. Salvador, J. J. Dannenberg, S. Dapprich, A. D. Daniels, 
 O. Farkas, J. B. Foresman, J. V. Ortiz, J. Cioslowski, 
 and D. J. Fox, Gaussian, Inc., Wallingford CT, 2013.
 
 ******************************************
 Gaussian 09:  ES64L-G09RevD.01 24-Apr-2013
                27-Aug-2020 
 ******************************************
 %nprocshared=4
 Will use up to    4 processors via shared memory.
 %chk=freq_b3lyp_TS_2H2O_claisen_PM6_toluene_water_1.chk
 ----------------------------------------------------------------------
 # freq b3lyp/6-31+g(d,p) scrf=(cpcm,solvent=water) geom=connectivity e
 mpiricaldispersion=gd3
 ----------------------------------------------------------------------
 1/10=4,30=1,38=1,57=2/1,3;
 2/12=2,17=6,18=5,40=1/2;
 3/5=1,6=6,7=111,11=2,16=1,25=1,30=1,70=2101,71=2,72=1,74=-5,124=31,140=1/1,2,3;
 4//1;
 5/5=2,38=5,53=1,98=1/2;
 8/6=4,10=90,11=11/1;
 11/6=1,8=1,9=11,15=111,16=1/1,2,10;
 10/6=1/2;
 6/7=2,8=2,9=2,10=2,18=1,28=1/1;
 7/8=1,10=1,25=1/1,2,3,16;
 1/10=4,30=1/3;
 99//99;
 -------------------
 Title Card Required
 -------------------
 Symbolic Z-matrix:
 Charge =  0 Multiplicity = 1
 C                     2.70864   2.73926  -0.35404 
 C                     3.08988   1.42096  -0.17993 
 C                     2.13188   0.41881   0.1222 
 C                     0.75567   0.79869   0.23288 
 C                     0.40008   2.155     0.05897 
 C                     1.35355   3.11382  -0.23141 
 H                     3.45935   3.48962  -0.58319 
 H                     4.13452   1.14658  -0.2698 
 H                    -0.64511   2.42771   0.14895 
 H                     1.06147   4.15075  -0.36604 
 C                    -0.26469  -0.1948    0.55767 
 C                     2.46712  -0.9627    0.33357 
 C                     0.148    -1.54225   0.70766 
 H                    -0.57701  -2.26995   1.0513 
 C                     1.51803  -1.90354   0.63597 
 H                     1.8071   -2.93556   0.80268 
 O                    -1.51193   0.1323    0.63147 
 Cl                    4.15467  -1.48065   0.22068 
 C                    -2.54247  -0.35938  -1.4625 
 C                    -2.0667   -1.67829  -1.37629 
 H                    -2.73781  -2.41653  -0.94418 
 C                    -3.95013  -0.05458  -1.06542 
 H                    -4.54555   0.13743  -1.96901 
 H                    -4.4097   -0.86841  -0.50223 
 H                    -3.98199   0.85868  -0.46301 
 C                    -1.82039   0.71962  -2.2065 
 H                    -0.73536   0.6204   -2.17386 
 H                    -2.12951   0.67149  -3.26008 
 H                    -2.09643   1.70475  -1.8263 
 C                    -0.75907  -2.04752  -1.59636 
 H                    -0.45243  -3.08014  -1.47568 
 H                    -0.0309   -1.38425  -2.04704 
 O                    -3.26973   1.86902   1.91964 
 H                    -2.51564   1.50671   1.41457 
 H                    -3.70468   1.05936   2.23363 
 O                    -3.44438  -1.13285   2.07492 
 H                    -3.05986  -1.50853   2.87746 
 H                    -2.67792  -0.82547   1.53324 
 

 GradGradGradGradGradGradGradGradGradGradGradGradGradGradGradGradGradGrad
 Berny optimization.
 Initialization pass.
 Trust Radius=3.00D-01 FncErr=1.00D-07 GrdErr=1.00D-07
 Number of steps in this run=      2 maximum allowed number of steps=      2.
 GradGradGradGradGradGradGradGradGradGradGradGradGradGradGradGradGradGrad

                          Input orientation:                          
 ---------------------------------------------------------------------
 Center     Atomic      Atomic             Coordinates (Angstroms)
 Number     Number       Type             X           Y           Z
 ---------------------------------------------------------------------
      1          6           0        2.708640    2.739258   -0.354040
      2          6           0        3.089881    1.420956   -0.179930
      3          6           0        2.131877    0.418805    0.122198
      4          6           0        0.755669    0.798691    0.232879
      5          6           0        0.400082    2.155000    0.058971
      6          6           0        1.353553    3.113816   -0.231410
      7          1           0        3.459351    3.489619   -0.583186
      8          1           0        4.134521    1.146582   -0.269797
      9          1           0       -0.645105    2.427705    0.148948
     10          1           0        1.061467    4.150750   -0.366044
     11          6           0       -0.264690   -0.194801    0.557667
     12          6           0        2.467121   -0.962699    0.333573
     13          6           0        0.147995   -1.542245    0.707655
     14          1           0       -0.577008   -2.269945    1.051298
     15          6           0        1.518031   -1.903544    0.635969
     16          1           0        1.807100   -2.935558    0.802682
     17          8           0       -1.511931    0.132298    0.631469
     18         17           0        4.154665   -1.480645    0.220681
     19          6           0       -2.542471   -0.359379   -1.462504
     20          6           0       -2.066695   -1.678286   -1.376289
     21          1           0       -2.737809   -2.416526   -0.944175
     22          6           0       -3.950127   -0.054577   -1.065421
     23          1           0       -4.545546    0.137428   -1.969011
     24          1           0       -4.409701   -0.868411   -0.502234
     25          1           0       -3.981988    0.858682   -0.463008
     26          6           0       -1.820394    0.719618   -2.206495
     27          1           0       -0.735358    0.620397   -2.173863
     28          1           0       -2.129514    0.671490   -3.260077
     29          1           0       -2.096433    1.704750   -1.826301
     30          6           0       -0.759065   -2.047520   -1.596359
     31          1           0       -0.452425   -3.080141   -1.475683
     32          1           0       -0.030898   -1.384248   -2.047042
     33          8           0       -3.269730    1.869019    1.919638
     34          1           0       -2.515637    1.506713    1.414570
     35          1           0       -3.704679    1.059360    2.233632
     36          8           0       -3.444377   -1.132847    2.074923
     37          1           0       -3.059863   -1.508530    2.877456
     38          1           0       -2.677924   -0.825466    1.533241
 ---------------------------------------------------------------------
                    Distance matrix (angstroms):
                    1          2          3          4          5
     1  C    0.000000
     2  C    1.383322   0.000000
     3  C    2.438024   1.418929   0.000000
     4  C    2.815026   2.450749   1.431961   0.000000
     5  C    2.416894   2.798377   2.453056   1.412891   0.000000
     6  C    1.411238   2.425543   2.827351   2.435741   1.383024
     7  H    1.085871   2.139741   3.419013   3.900891   3.398926
     8  H    2.139357   1.083803   2.166542   3.433708   3.882142
     9  H    3.405535   3.882245   3.427539   2.150093   1.083919
    10  H    2.169247   3.406006   3.913000   3.418848   2.145014
    11  C    4.275582   3.795770   2.511907   1.460701   2.492425
    12  C    3.773013   2.516610   1.437227   2.457987   3.750747
    13  C    5.100526   4.268848   2.850310   2.464683   3.762175
    14  H    6.153257   5.346471   3.928188   3.444178   4.638918
    15  C    4.894209   3.766790   2.456435   2.836503   4.249061
    16  H    5.861256   4.646533   3.438065   3.921071   5.333534
    17  O    5.057735   4.847234   3.690363   2.396865   2.841632
    18  Cl   4.497652   3.116656   2.776559   4.092517   5.228858
    19  C    6.197129   6.044665   4.996637   3.884994   4.158799
    20  C    6.585098   6.134073   4.926587   4.085410   4.779021
    21  H    7.522910   7.019424   5.734989   4.891571   5.634848
    22  C    7.256084   7.247276   6.214926   4.955620   5.007076
    23  H    7.874063   7.946572   7.002878   5.778276   5.713365
    24  H    7.981730   7.847854   6.696199   5.477287   5.708763
    25  H    6.950751   7.099832   6.157540   4.788867   4.599504
    26  C    5.293646   5.358138   4.597145   3.548647   3.481834
    27  H    4.434236   4.387382   3.678800   2.836786   2.937648
    28  H    6.010695   6.106643   5.446383   4.532240   4.428966
    29  H    5.130934   5.448755   4.830001   3.632582   3.160627
    30  C    6.039998   5.371311   4.170581   3.706946   4.663144
    31  H    6.716831   5.872545   4.634055   4.407268   5.521651
    32  H    5.232077   4.592879   3.554462   3.252991   4.140931
    33  O    6.455063   6.712198   5.874629   4.493840   4.124486
    34  H    5.651568   5.828518   4.945013   3.549526   3.280144
    35  H    7.116795   7.219562   6.239700   4.895474   4.772697
    36  O    7.665029   7.369043   6.108631   4.976379   5.445536
    37  H    7.858874   7.466515   6.185486   5.184143   5.773779
    38  H    6.729351   6.422534   5.164633   4.014771   4.531089
                    6          7          8          9         10
     6  C    0.000000
     7  H    2.167801   0.000000
     8  H    3.406650   2.458432   0.000000
     9  H    2.147104   4.302353   4.966029   0.000000
    10  H    1.085667   2.496816   4.298599   2.479211   0.000000
    11  C    3.766736   5.361434   4.673014   2.681288   4.636351
    12  C    4.263474   4.652752   2.755602   4.605961   5.349083
    13  C    4.900420   6.160439   4.906892   4.086767   5.864934
    14  H    5.861509   7.220548   5.967952   4.784014   6.776340
    15  C    5.094438   5.860142   4.119430   4.865806   6.153613
    16  H    6.153859   6.777423   4.819851   5.933403   7.220641
    17  O    4.224335   6.120509   5.807191   2.500621   4.874973
    18  Cl   5.399971   5.082636   2.672695   6.190165   6.451723
    19  C    5.362619   7.184000   6.947855   3.736926   5.876381
    20  C    5.997757   7.607459   6.903570   4.605044   6.692059
    21  H    6.916065   8.568410   7.770421   5.388961   7.609064
    22  C    6.234044   8.227651   8.212024   4.308084   6.579512
    23  H    6.832094   8.788406   8.902207   4.994453   7.079184
    24  H    7.010462   8.995608   8.781683   5.045850   7.425914
    25  H    5.797177   7.893656   8.123911   3.737795   6.023583
    26  C    4.439266   6.179300   6.276473   3.137989   4.844074
    27  H    3.788642   5.325249   5.255289   2.944479   4.354329
    28  H    5.222024   6.807570   6.957415   4.112081   5.537422
    29  H    4.053585   5.966392   6.446630   2.555509   4.252952
    30  C    5.741570   7.034306   5.992432   4.804864   6.576212
    31  H    6.570759   7.698070   6.352907   5.745687   7.470539
    32  H    5.044383   6.170842   5.187911   4.441915   5.886868
    33  O    5.248931   7.360095   7.754900   3.214985   5.402768
    34  H    4.501407   6.604803   6.869599   2.439040   4.791366
    35  H    5.990236   8.072419   8.229691   3.947058   6.247492
    36  O    6.809805   8.723199   8.254284   4.921670   7.360526
    37  H    7.106995   8.913904   8.289390   5.363745   7.715770
    38  H    5.906331   7.795214   7.317741   4.078203   6.507922
                   11         12         13         14         15
    11  C    0.000000
    12  C    2.846520   0.000000
    13  C    1.417184   2.419536   0.000000
    14  H    2.155791   3.389800   1.083175   0.000000
    15  C    2.470633   1.370184   1.418688   2.167011   0.000000
    16  H    3.444430   2.132572   2.168636   2.487734   1.084623
    17  O    1.291530   4.137707   2.359079   2.611725   3.650389
    18  Cl   4.614938   1.768846   4.036625   4.868434   2.702433
    19  C    3.049010   5.355922   3.653405   3.719208   4.824491
    20  C    3.031194   4.898079   3.044040   2.909022   4.117060
    21  H    3.648001   5.553157   3.438135   2.944904   4.568608
    22  C    4.029457   6.630456   4.706544   4.557004   6.017820
    23  H    4.981988   7.462551   5.658195   5.537780   6.907854
    24  H    4.331080   6.928069   4.763452   4.366611   6.124134
    25  H    3.996237   6.748554   4.918502   4.865729   6.252028
    26  C    3.301056   5.259745   4.181250   4.593116   5.109370
    27  H    2.889175   4.364550   3.709512   4.333684   4.398090
    28  H    4.336265   6.059204   5.082378   5.445206   5.925754
    29  H    3.556245   5.710198   4.690561   5.136870   5.669824
    30  C    2.883887   3.912768   2.527161   2.663213   3.192050
    31  H    3.534819   4.034937   2.737260   2.656609   3.118678
    32  H    2.872969   3.476367   2.765017   3.268395   3.141241
    33  O    3.891604   6.591334   4.978601   5.013561   6.229181
    34  H    2.948931   5.665194   4.109843   4.260680   5.339153
    35  H    4.026823   6.766835   4.892857   4.718529   6.213536
    36  O    3.645875   6.164987   3.865510   3.250016   5.223988
    37  H    3.862680   6.108750   3.872922   3.174772   5.112476
    38  H    2.678280   5.284839   3.030047   2.594732   4.424182
                   16         17         18         19         20
    16  H    0.000000
    17  O    4.522944   0.000000
    18  Cl   2.822509   5.905984   0.000000
    19  C    5.539543   2.385054   6.995854   0.000000
    20  C    4.618976   2.759904   6.426095   1.404746   0.000000
    21  H    4.896642   3.237582   7.052585   2.130417   1.087251
    22  C    6.703396   2.976434   8.329189   1.494013   2.506070
    23  H    7.581664   3.995665   9.116281   2.125012   3.129351
    24  H    6.680158   3.268604   8.616600   2.160505   2.628602
    25  H    7.036460   2.797623   8.493821   2.134215   3.307361
    26  C    5.964409   2.914470   6.814226   1.496380   2.549480
    27  H    5.288547   2.951473   5.836141   2.175236   2.773540
    28  H    6.709228   3.976967   7.499218   2.112935   3.012317
    29  H    6.609204   2.975715   7.308427   2.142878   3.412965
    30  C    3.623425   3.206498   5.269509   2.459324   1.376467
    31  H    3.212056   3.985274   5.163460   3.430891   2.140314
    32  H    3.729038   3.415815   4.761386   2.774895   2.163524
    33  O    7.078542   2.786653   8.320357   4.115039   4.989369
    34  H    6.228502   1.873417   7.405579   3.429369   4.258481
    35  H    6.956055   2.869584   8.501346   4.126132   4.817596
    36  O    5.696172   2.723692   7.829726   3.731632   3.755846
    37  H    5.479820   3.183217   7.688215   4.519236   4.371447
    38  H    5.010154   1.757852   6.988301   3.034810   3.092938
                   21         22         23         24         25
    21  H    0.000000
    22  C    2.657672   0.000000
    23  H    3.292550   1.099029   0.000000
    24  H    2.321033   1.091198   1.783704   0.000000
    25  H    3.536452   1.094513   1.762342   1.779699   0.000000
    26  C    3.502928   2.537162   2.796748   3.482937   2.780571
    27  H    3.839902   3.466839   3.846135   4.302521   3.677555
    28  H    3.907591   2.942502   2.790929   3.895670   3.360104
    29  H    4.263147   2.666524   2.911189   3.704797   2.475826
    30  C    2.115877   3.799552   4.387517   3.989305   4.485279
    31  H    2.438415   4.642873   5.229700   4.636743   5.384947
    32  H    3.099884   4.253465   4.764833   4.671877   4.811550
    33  O    5.181724   3.615763   4.443839   3.828645   2.684231
    34  H    4.583104   3.262782   4.176613   3.592051   2.468892
    35  H    4.807814   3.490681   4.383974   3.420281   2.718279
    36  O    3.355894   3.358602   4.379449   2.764691   3.270521
    37  H    3.941198   4.295676   5.329604   3.695148   4.196750
    38  H    2.944936   2.994297   4.084231   2.672836   2.919237
                   26         27         28         29         30
    26  C    0.000000
    27  H    1.090052   0.000000
    28  H    1.099048   1.768090   0.000000
    29  H    1.091435   1.774583   1.767607   0.000000
    30  C    3.025845   2.729808   3.469741   3.990107   0.000000
    31  H    4.104095   3.776439   4.480114   5.071575   1.083927
    32  H    2.766582   2.128603   3.178317   3.722509   1.083177
    33  O    4.521800   4.973816   5.437243   3.928825   5.831376
    34  H    3.770278   4.102658   4.764348   3.273866   4.978334
    35  H    4.835358   5.332501   5.728213   4.414299   5.744404
    36  O    4.939584   5.335244   5.783314   5.008838   4.639595
    37  H    5.687485   5.954114   6.579312   5.777430   5.059565
    38  H    4.136214   4.427946   5.051488   4.245780   3.869087
                   31         32         33         34         35
    31  H    0.000000
    32  H    1.838529   0.000000
    33  O    6.630203   6.066987   0.000000
    34  H    5.800831   5.149208   0.977249   0.000000
    35  H    6.439848   6.147524   0.971247   1.511558   0.000000
    36  O    5.034931   5.357764   3.010949   2.875048   2.213305
    37  H    5.312110   5.782798   3.517001   3.395277   2.724767
    38  H    4.369214   4.487473   2.785639   2.340829   2.257729
                   36         37         38
    36  O    0.000000
    37  H    0.965944   0.000000
    38  H    0.987599   1.555432   0.000000
 Stoichiometry    C15H19ClO3
 Framework group  C1[X(C15H19ClO3)]
 Deg. of freedom   108
 Full point group                 C1      NOp   1
 Largest Abelian subgroup         C1      NOp   1
 Largest concise Abelian subgroup C1      NOp   1
                         Standard orientation:                         
 ---------------------------------------------------------------------
 Center     Atomic      Atomic             Coordinates (Angstroms)
 Number     Number       Type             X           Y           Z
 ---------------------------------------------------------------------
      1          6           0       -2.708640    2.739258    0.354040
      2          6           0       -3.089881    1.420956    0.179930
      3          6           0       -2.131877    0.418805   -0.122198
      4          6           0       -0.755669    0.798691   -0.232879
      5          6           0       -0.400082    2.155000   -0.058971
      6          6           0       -1.353553    3.113816    0.231410
      7          1           0       -3.459351    3.489619    0.583186
      8          1           0       -4.134521    1.146582    0.269797
      9          1           0        0.645105    2.427705   -0.148948
     10          1           0       -1.061467    4.150750    0.366044
     11          6           0        0.264690   -0.194801   -0.557667
     12          6           0       -2.467121   -0.962699   -0.333573
     13          6           0       -0.147995   -1.542245   -0.707655
     14          1           0        0.577008   -2.269945   -1.051298
     15          6           0       -1.518031   -1.903544   -0.635969
     16          1           0       -1.807100   -2.935558   -0.802682
     17          8           0        1.511931    0.132298   -0.631469
     18         17           0       -4.154665   -1.480645   -0.220681
     19          6           0        2.542471   -0.359379    1.462504
     20          6           0        2.066695   -1.678286    1.376289
     21          1           0        2.737809   -2.416526    0.944175
     22          6           0        3.950127   -0.054577    1.065421
     23          1           0        4.545546    0.137428    1.969011
     24          1           0        4.409701   -0.868411    0.502234
     25          1           0        3.981988    0.858682    0.463008
     26          6           0        1.820394    0.719618    2.206495
     27          1           0        0.735358    0.620397    2.173863
     28          1           0        2.129514    0.671490    3.260077
     29          1           0        2.096433    1.704750    1.826301
     30          6           0        0.759065   -2.047520    1.596359
     31          1           0        0.452425   -3.080141    1.475683
     32          1           0        0.030898   -1.384248    2.047042
     33          8           0        3.269730    1.869019   -1.919638
     34          1           0        2.515637    1.506713   -1.414570
     35          1           0        3.704679    1.059360   -2.233632
     36          8           0        3.444377   -1.132847   -2.074923
     37          1           0        3.059863   -1.508530   -2.877456
     38          1           0        2.677924   -0.825466   -1.533241
 ---------------------------------------------------------------------
 Rotational constants (GHZ):      0.4762909      0.2243368      0.1943331
 Standard basis: 6-31+G(d,p) (6D, 7F)
 There are   460 symmetry adapted cartesian basis functions of A   symmetry.
 There are   460 symmetry adapted basis functions of A   symmetry.
   460 basis functions,   765 primitive gaussians,   460 cartesian basis functions
    75 alpha electrons       75 beta electrons
       nuclear repulsion energy      1599.2121391650 Hartrees.
 NAtoms=   38 NActive=   38 NUniq=   38 SFac= 1.00D+00 NAtFMM=   60 NAOKFM=F Big=F
 Integral buffers will be    131072 words long.
 Raffenetti 2 integral format.
 Two-electron integral symmetry is turned on.
 Nuclear repulsion after empirical dispersion term =     1599.1637375573 Hartrees.
 Force inversion solution in PCM.
 ------------------------------------------------------------------------------
 Polarizable Continuum Model (PCM)
 =================================
 Model                : C-PCM.
 Atomic radii         : UFF (Universal Force Field).
 Polarization charges : Total charges.
 Charge compensation  : None.
 Solution method      : Matrix inversion.
 Cavity type          : Scaled VdW (van der Waals Surface) (Alpha=1.100).
 Cavity algorithm     : GePol (No added spheres)
                        Default sphere list used, NSphG=   38.
                        Lebedev-Laikov grids with approx.  5.0 points / Ang**2.
                        Smoothing algorithm: Karplus/York (Gamma=1.0000).
                        Polarization charges: spherical gaussians, with
                                              point-specific exponents (IZeta= 3).
                        Self-potential: point-specific (ISelfS= 7).
                        Self-field    : sphere-specific E.n sum rule (ISelfD= 2).
 1st derivatives      : Analytical E(r).r(x)/FMM algorithm (CHGder, D1EAlg=3).
                        Cavity 1st derivative terms included.
 2nd derivatives      : Analytical E(r).r(xy)/FMM algorithm (CHGder, D2EAlg=3).
                        Cavity 2nd derivative terms included.
 Solvent              : Water, Eps=  78.355300 Eps(inf)=   1.777849
 ------------------------------------------------------------------------------
 One-electron integrals computed using PRISM.
 NBasis=   460 RedAO= T EigKep=  1.34D-06  NBF=   460
 NBsUse=   457 1.00D-06 EigRej=  9.29D-07 NBFU=   457
 ExpMin= 4.38D-02 ExpMax= 2.52D+04 ExpMxC= 3.78D+03 IAcc=2 IRadAn=         4 AccDes= 0.00D+00
 Harris functional with IExCor=  402 and IRadAn=       4 diagonalized for initial guess.
 HarFok:  IExCor=  402 AccDes= 0.00D+00 IRadAn=         4 IDoV= 1 UseB2=F ITyADJ=14
 ICtDFT=  3500011 ScaDFX=  1.000000  1.000000  1.000000  1.000000
 FoFCou: FMM=F IPFlag=           0 FMFlag=      100000 FMFlg1=           0
         NFxFlg=           0 DoJE=T BraDBF=F KetDBF=T FulRan=T
         wScrn=  0.000000 ICntrl=     500 IOpCl=  0 I1Cent=   200000004 NGrid=           0
         NMat0=    1 NMatS0=      1 NMatT0=    0 NMatD0=    1 NMtDS0=    0 NMtDT0=    0
 Petite list used in FoFCou.
 Requested convergence on RMS density matrix=1.00D-08 within 128 cycles.
 Requested convergence on MAX density matrix=1.00D-06.
 Requested convergence on             energy=1.00D-06.
 No special actions if energy rises.
 Inv3:  Mode=1 IEnd=    21983547.
 Iteration    1 A*A^-1 deviation from unit magnitude is 7.77D-15 for   2702.
 Iteration    1 A*A^-1 deviation from orthogonality  is 3.67D-15 for   2699   1786.
 Iteration    1 A^-1*A deviation from unit magnitude is 7.77D-15 for   2702.
 Iteration    1 A^-1*A deviation from orthogonality  is 3.38D-15 for   2699   1786.
 Error on total polarization charges =  0.02205
 SCF Done:  E(RB3LYP) =  -1268.99612534     A.U. after   16 cycles
            NFock= 16  Conv=0.42D-08     -V/T= 2.0073
 DoSCS=F DFT=T ScalE2(SS,OS)=  1.000000  1.000000
 Range of M.O.s used for correlation:     1   457
 NBasis=   460 NAE=    75 NBE=    75 NFC=     0 NFV=     0
 NROrb=    457 NOA=    75 NOB=    75 NVA=   382 NVB=   382

 **** Warning!!: The largest alpha MO coefficient is  0.17954703D+03

 PrsmSu:  requested number of processors reduced to:   2 ShMem   1 Linda.
 Symmetrizing basis deriv contribution to polar:
 IMax=3 JMax=2 DiffMx= 0.00D+00
 G2DrvN: will do    13 centers at a time, making    3 passes.
 Calling FoFCou, ICntrl=  3107 FMM=F I1Cent=   0 AccDes= 0.00D+00.
 Calling FoFCou, ICntrl=  3107 FMM=F I1Cent=   0 AccDes= 0.00D+00.
 Calling FoFCou, ICntrl=  3107 FMM=F I1Cent=   0 AccDes= 0.00D+00.
 NEqPCM:  Using equilibrium solvation (IEInf=0, Eps=  78.3553, EpsInf=   1.7778)
 G2PCM: DoFxE=T DoFxN=T DoGrad=T DoDP/DQ/DG/TGxP=FFFF NFrqRd=   0 IEInf=0 SqF1=F DoCFld=F IF1Alg=4.
 CoulSu:  requested number of processors reduced to:   3 ShMem   1 Linda.
 CoulSu:  requested number of processors reduced to:   3 ShMem   1 Linda.
 CoulSu:  requested number of processors reduced to:   3 ShMem   1 Linda.
 CoulSu:  requested number of processors reduced to:   3 ShMem   1 Linda.
 End of G2Drv F.D. properties file   721 does not exist.
 End of G2Drv F.D. properties file   722 does not exist.
 End of G2Drv F.D. properties file   788 does not exist.
          IDoAtm=11111111111111111111111111111111111111
 NEqPCM:  Using equilibrium solvation (IEInf=0, Eps=  78.3553, EpsInf=   1.7778)
          Differentiating once with respect to electric field.
                with respect to dipole field.
          Differentiating once with respect to nuclear coordinates.
          There are   117 degrees of freedom in the 1st order CPHF.  IDoFFX=6 NUNeed=     3.
    117 vectors produced by pass  0 Test12= 2.87D-14 1.00D-09 XBig12= 6.02D+02 1.72D+01.
 AX will form    32 AO Fock derivatives at one time.
    117 vectors produced by pass  1 Test12= 2.87D-14 1.00D-09 XBig12= 1.00D+02 1.34D+00.
    114 vectors produced by pass  2 Test12= 2.87D-14 1.00D-09 XBig12= 7.84D-01 1.00D-01.
    114 vectors produced by pass  3 Test12= 2.87D-14 1.00D-09 XBig12= 3.03D-03 3.89D-03.
    114 vectors produced by pass  4 Test12= 2.87D-14 1.00D-09 XBig12= 6.82D-06 1.60D-04.
    114 vectors produced by pass  5 Test12= 2.87D-14 1.00D-09 XBig12= 1.05D-08 9.94D-06.
     85 vectors produced by pass  6 Test12= 2.87D-14 1.00D-09 XBig12= 1.74D-11 3.75D-07.
     33 vectors produced by pass  7 Test12= 2.87D-14 1.00D-09 XBig12= 6.17D-13 6.58D-08.
      7 vectors produced by pass  8 Test12= 2.87D-14 1.00D-09 XBig12= 5.55D-15 4.36D-09.
      6 vectors produced by pass  9 Test12= 2.87D-14 1.00D-09 XBig12= 7.74D-15 6.34D-09.
      6 vectors produced by pass 10 Test12= 2.87D-14 1.00D-09 XBig12= 6.77D-14 1.86D-08.
      6 vectors produced by pass 11 Test12= 2.87D-14 1.00D-09 XBig12= 5.49D-14 1.83D-08.
      6 vectors produced by pass 12 Test12= 2.87D-14 1.00D-09 XBig12= 5.00D-14 1.71D-08.
      6 vectors produced by pass 13 Test12= 2.87D-14 1.00D-09 XBig12= 1.51D-14 8.82D-09.
      6 vectors produced by pass 14 Test12= 2.87D-14 1.00D-09 XBig12= 3.70D-14 1.43D-08.
      6 vectors produced by pass 15 Test12= 2.87D-14 1.00D-09 XBig12= 2.28D-14 1.03D-08.
      6 vectors produced by pass 16 Test12= 2.87D-14 1.00D-09 XBig12= 2.09D-14 1.31D-08.
      6 vectors produced by pass 17 Test12= 2.87D-14 1.00D-09 XBig12= 2.63D-14 1.07D-08.
      6 vectors produced by pass 18 Test12= 2.87D-14 1.00D-09 XBig12= 3.13D-14 1.29D-08.
      6 vectors produced by pass 19 Test12= 2.87D-14 1.00D-09 XBig12= 2.55D-14 1.03D-08.
      6 vectors produced by pass 20 Test12= 2.87D-14 1.00D-09 XBig12= 1.10D-14 9.43D-09.
      6 vectors produced by pass 21 Test12= 2.87D-14 1.00D-09 XBig12= 3.90D-14 1.14D-08.
      6 vectors produced by pass 22 Test12= 2.87D-14 1.00D-09 XBig12= 1.87D-14 9.63D-09.
      6 vectors produced by pass 23 Test12= 2.87D-14 1.00D-09 XBig12= 2.87D-14 1.09D-08.
      5 vectors produced by pass 24 Test12= 2.87D-14 1.00D-09 XBig12= 6.39D-15 5.03D-09.
      5 vectors produced by pass 25 Test12= 2.87D-14 1.00D-09 XBig12= 4.82D-14 1.49D-08.
      5 vectors produced by pass 26 Test12= 2.87D-14 1.00D-09 XBig12= 9.02D-15 6.66D-09.
      5 vectors produced by pass 27 Test12= 2.87D-14 1.00D-09 XBig12= 2.58D-14 1.05D-08.
      5 vectors produced by pass 28 Test12= 2.87D-14 1.00D-09 XBig12= 1.81D-14 9.17D-09.
      5 vectors produced by pass 29 Test12= 2.87D-14 1.00D-09 XBig12= 1.33D-14 6.87D-09.
      5 vectors produced by pass 30 Test12= 2.87D-14 1.00D-09 XBig12= 9.05D-15 6.40D-09.
      5 vectors produced by pass 31 Test12= 2.87D-14 1.00D-09 XBig12= 3.06D-14 1.24D-08.
      5 vectors produced by pass 32 Test12= 2.87D-14 1.00D-09 XBig12= 1.51D-14 8.92D-09.
      5 vectors produced by pass 33 Test12= 2.87D-14 1.00D-09 XBig12= 1.20D-14 7.79D-09.
      5 vectors produced by pass 34 Test12= 2.87D-14 1.00D-09 XBig12= 1.38D-14 8.35D-09.
      5 vectors produced by pass 35 Test12= 2.87D-14 1.00D-09 XBig12= 1.33D-14 7.48D-09.
      5 vectors produced by pass 36 Test12= 2.87D-14 1.00D-09 XBig12= 7.91D-15 7.53D-09.
      5 vectors produced by pass 37 Test12= 2.87D-14 1.00D-09 XBig12= 2.11D-14 9.79D-09.
      5 vectors produced by pass 38 Test12= 2.87D-14 1.00D-09 XBig12= 1.75D-14 9.45D-09.
      5 vectors produced by pass 39 Test12= 2.87D-14 1.00D-09 XBig12= 7.85D-15 5.18D-09.
      4 vectors produced by pass 40 Test12= 2.87D-14 1.00D-09 XBig12= 6.36D-15 6.06D-09.
      4 vectors produced by pass 41 Test12= 2.87D-14 1.00D-09 XBig12= 7.92D-15 5.78D-09.
      4 vectors produced by pass 42 Test12= 2.87D-14 1.00D-09 XBig12= 3.90D-15 3.64D-09.
      4 vectors produced by pass 43 Test12= 2.87D-14 1.00D-09 XBig12= 9.68D-15 6.11D-09.
      4 vectors produced by pass 44 Test12= 2.87D-14 1.00D-09 XBig12= 9.76D-15 6.16D-09.
      4 vectors produced by pass 45 Test12= 2.87D-14 1.00D-09 XBig12= 6.47D-15 5.15D-09.
      4 vectors produced by pass 46 Test12= 2.87D-14 1.00D-09 XBig12= 1.02D-14 5.59D-09.
      4 vectors produced by pass 47 Test12= 2.87D-14 1.00D-09 XBig12= 1.22D-14 6.72D-09.
      4 vectors produced by pass 48 Test12= 2.87D-14 1.00D-09 XBig12= 6.30D-15 5.78D-09.
      4 vectors produced by pass 49 Test12= 2.87D-14 1.00D-09 XBig12= 9.46D-15 5.56D-09.
      3 vectors produced by pass 50 Test12= 2.87D-14 1.00D-09 XBig12= 6.38D-15 5.09D-09.
      3 vectors produced by pass 51 Test12= 2.87D-14 1.00D-09 XBig12= 1.57D-14 7.85D-09.
      3 vectors produced by pass 52 Test12= 2.87D-14 1.00D-09 XBig12= 1.34D-14 7.30D-09.
      3 vectors produced by pass 53 Test12= 2.87D-14 1.00D-09 XBig12= 1.85D-14 8.39D-09.
      3 vectors produced by pass 54 Test12= 2.87D-14 1.00D-09 XBig12= 5.79D-15 4.57D-09.
      3 vectors produced by pass 55 Test12= 2.87D-14 1.00D-09 XBig12= 6.94D-15 5.28D-09.
      3 vectors produced by pass 56 Test12= 2.87D-14 1.00D-09 XBig12= 7.78D-15 4.76D-09.
      3 vectors produced by pass 57 Test12= 2.87D-14 1.00D-09 XBig12= 9.86D-15 6.05D-09.
      3 vectors produced by pass 58 Test12= 2.87D-14 1.00D-09 XBig12= 5.22D-15 4.32D-09.
      3 vectors produced by pass 59 Test12= 2.87D-14 1.00D-09 XBig12= 1.78D-14 7.36D-09.
      3 vectors produced by pass 60 Test12= 2.87D-14 1.00D-09 XBig12= 1.16D-14 6.73D-09.
      3 vectors produced by pass 61 Test12= 2.87D-14 1.00D-09 XBig12= 1.06D-14 5.97D-09.
      3 vectors produced by pass 62 Test12= 2.87D-14 1.00D-09 XBig12= 3.91D-15 3.53D-09.
      3 vectors produced by pass 63 Test12= 2.87D-14 1.00D-09 XBig12= 1.52D-14 7.58D-09.
      3 vectors produced by pass 64 Test12= 2.87D-14 1.00D-09 XBig12= 6.92D-15 5.11D-09.
      3 vectors produced by pass 65 Test12= 2.87D-14 1.00D-09 XBig12= 9.15D-15 5.55D-09.
      3 vectors produced by pass 66 Test12= 2.87D-14 1.00D-09 XBig12= 1.00D-14 6.74D-09.
      3 vectors produced by pass 67 Test12= 2.87D-14 1.00D-09 XBig12= 1.06D-14 5.88D-09.
      3 vectors produced by pass 68 Test12= 2.87D-14 1.00D-09 XBig12= 4.58D-15 3.73D-09.
      3 vectors produced by pass 69 Test12= 2.87D-14 1.00D-09 XBig12= 3.04D-15 3.80D-09.
      3 vectors produced by pass 70 Test12= 2.87D-14 1.00D-09 XBig12= 6.80D-15 5.06D-09.
      3 vectors produced by pass 71 Test12= 2.87D-14 1.00D-09 XBig12= 3.20D-15 3.60D-09.
      3 vectors produced by pass 72 Test12= 2.87D-14 1.00D-09 XBig12= 8.15D-15 4.97D-09.
      3 vectors produced by pass 73 Test12= 2.87D-14 1.00D-09 XBig12= 2.64D-15 2.88D-09.
      3 vectors produced by pass 74 Test12= 2.87D-14 1.00D-09 XBig12= 1.02D-14 6.40D-09.
      3 vectors produced by pass 75 Test12= 2.87D-14 1.00D-09 XBig12= 4.98D-15 4.37D-09.
      3 vectors produced by pass 76 Test12= 2.87D-14 1.00D-09 XBig12= 1.09D-14 5.90D-09.
      3 vectors produced by pass 77 Test12= 2.87D-14 1.00D-09 XBig12= 1.69D-14 6.97D-09.
      3 vectors produced by pass 78 Test12= 2.87D-14 1.00D-09 XBig12= 5.64D-15 4.07D-09.
      3 vectors produced by pass 79 Test12= 2.87D-14 1.00D-09 XBig12= 5.46D-15 4.36D-09.
      3 vectors produced by pass 80 Test12= 2.87D-14 1.00D-09 XBig12= 7.05D-15 5.70D-09.
      3 vectors produced by pass 81 Test12= 2.87D-14 1.00D-09 XBig12= 4.31D-15 4.19D-09.
      3 vectors produced by pass 82 Test12= 2.87D-14 1.00D-09 XBig12= 4.14D-15 3.77D-09.
      3 vectors produced by pass 83 Test12= 2.87D-14 1.00D-09 XBig12= 1.08D-14 7.23D-09.
      3 vectors produced by pass 84 Test12= 2.87D-14 1.00D-09 XBig12= 3.50D-15 4.08D-09.
      3 vectors produced by pass 85 Test12= 2.87D-14 1.00D-09 XBig12= 5.74D-15 4.53D-09.
      2 vectors produced by pass 86 Test12= 2.87D-14 1.00D-09 XBig12= 1.66D-15 2.16D-09.
 InvSVY:  IOpt=1 It=  1 EMax= 7.11D-15
 Solved reduced A of dimension  1135 with   117 vectors.
 Isotropic polarizability for W=    0.000000      351.17 Bohr**3.
 End of Minotr F.D. properties file   721 does not exist.
 End of Minotr F.D. properties file   722 does not exist.
 End of Minotr F.D. properties file   788 does not exist.

 **********************************************************************

            Population analysis using the SCF density.

 **********************************************************************

 Orbital symmetries:
       Occupied  (A) (A) (A) (A) (A) (A) (A) (A) (A) (A) (A) (A)
                 (A) (A) (A) (A) (A) (A) (A) (A) (A) (A) (A) (A)
                 (A) (A) (A) (A) (A) (A) (A) (A) (A) (A) (A) (A)
                 (A) (A) (A) (A) (A) (A) (A) (A) (A) (A) (A) (A)
                 (A) (A) (A) (A) (A) (A) (A) (A) (A) (A) (A) (A)
                 (A) (A) (A) (A) (A) (A) (A) (A) (A) (A) (A) (A)
                 (A) (A) (A)
       Virtual   (A) (A) (A) (A) (A) (A) (A) (A) (A) (A) (A) (A)
                 (A) (A) (A) (A) (A) (A) (A) (A) (A) (A) (A) (A)
                 (A) (A) (A) (A) (A) (A) (A) (A) (A) (A) (A) (A)
                 (A) (A) (A) (A) (A) (A) (A) (A) (A) (A) (A) (A)
                 (A) (A) (A) (A) (A) (A) (A) (A) (A) (A) (A) (A)
                 (A) (A) (A) (A) (A) (A) (A) (A) (A) (A) (A) (A)
                 (A) (A) (A) (A) (A) (A) (A) (A) (A) (A) (A) (A)
                 (A) (A) (A) (A) (A) (A) (A) (A) (A) (A) (A) (A)
                 (A) (A) (A) (A) (A) (A) (A) (A) (A) (A) (A) (A)
                 (A) (A) (A) (A) (A) (A) (A) (A) (A) (A) (A) (A)
                 (A) (A) (A) (A) (A) (A) (A) (A) (A) (A) (A) (A)
                 (A) (A) (A) (A) (A) (A) (A) (A) (A) (A) (A) (A)
                 (A) (A) (A) (A) (A) (A) (A) (A) (A) (A) (A) (A)
                 (A) (A) (A) (A) (A) (A) (A) (A) (A) (A) (A) (A)
                 (A) (A) (A) (A) (A) (A) (A) (A) (A) (A) (A) (A)
                 (A) (A) (A) (A) (A) (A) (A) (A) (A) (A) (A) (A)
                 (A) (A) (A) (A) (A) (A) (A) (A) (A) (A) (A) (A)
                 (A) (A) (A) (A) (A) (A) (A) (A) (A) (A) (A) (A)
                 (A) (A) (A) (A) (A) (A) (A) (A) (A) (A) (A) (A)
                 (A) (A) (A) (A) (A) (A) (A) (A) (A) (A) (A) (A)
                 (A) (A) (A) (A) (A) (A) (A) (A) (A) (A) (A) (A)
                 (A) (A) (A) (A) (A) (A) (A) (A) (A) (A) (A) (A)
                 (A) (A) (A) (A) (A) (A) (A) (A) (A) (A) (A) (A)
                 (A) (A) (A) (A) (A) (A) (A) (A) (A) (A) (A) (A)
                 (A) (A) (A) (A) (A) (A) (A) (A) (A) (A) (A) (A)
                 (A) (A) (A) (A) (A) (A) (A) (A) (A) (A) (A) (A)
                 (A) (A) (A) (A) (A) (A) (A) (A) (A) (A) (A) (A)
                 (A) (A) (A) (A) (A) (A) (A) (A) (A) (A) (A) (A)
                 (A) (A) (A) (A) (A) (A) (A) (A) (A) (A) (A) (A)
                 (A) (A) (A) (A) (A) (A) (A) (A) (A) (A) (A) (A)
                 (A) (A) (A) (A) (A) (A) (A) (A) (A) (A) (A) (A)
                 (A) (A) (A) (A) (A) (A) (A) (A) (A) (A)
 The electronic state is 1-A.
 Alpha  occ. eigenvalues -- -101.56306 -19.15289 -19.14777 -19.14572 -10.26319
 Alpha  occ. eigenvalues --  -10.26288 -10.26093 -10.23343 -10.22548 -10.21395
 Alpha  occ. eigenvalues --  -10.21323 -10.21012 -10.20874 -10.20661 -10.20558
 Alpha  occ. eigenvalues --  -10.20450 -10.20377 -10.19704 -10.19372  -9.47777
 Alpha  occ. eigenvalues --   -7.24166  -7.23229  -7.23196  -1.02676  -1.00322
 Alpha  occ. eigenvalues --   -0.99601  -0.90237  -0.86152  -0.84909  -0.82187
 Alpha  occ. eigenvalues --   -0.76894  -0.76719  -0.75783  -0.71433  -0.71002
 Alpha  occ. eigenvalues --   -0.64553  -0.63751  -0.63303  -0.58550  -0.54457
 Alpha  occ. eigenvalues --   -0.53718  -0.52693  -0.52225  -0.51131  -0.49948
 Alpha  occ. eigenvalues --   -0.49451  -0.47400  -0.46637  -0.46508  -0.44931
 Alpha  occ. eigenvalues --   -0.43830  -0.43793  -0.42320  -0.42086  -0.41521
 Alpha  occ. eigenvalues --   -0.40375  -0.40184  -0.39479  -0.39234  -0.38677
 Alpha  occ. eigenvalues --   -0.37952  -0.37429  -0.36801  -0.36564  -0.36327
 Alpha  occ. eigenvalues --   -0.35277  -0.32406  -0.31437  -0.31174  -0.30671
 Alpha  occ. eigenvalues --   -0.30159  -0.27764  -0.27387  -0.25808  -0.21335
 Alpha virt. eigenvalues --   -0.10553  -0.05275  -0.03095  -0.00158   0.00082
 Alpha virt. eigenvalues --    0.00988   0.01277   0.01624   0.02052   0.02460
 Alpha virt. eigenvalues --    0.02849   0.03433   0.03668   0.04593   0.04978
 Alpha virt. eigenvalues --    0.05222   0.05708   0.05922   0.06475   0.07262
 Alpha virt. eigenvalues --    0.07604   0.07619   0.08237   0.08574   0.08888
 Alpha virt. eigenvalues --    0.09659   0.09912   0.10394   0.10617   0.11159
 Alpha virt. eigenvalues --    0.11663   0.11756   0.12458   0.12993   0.13279
 Alpha virt. eigenvalues --    0.14044   0.14272   0.14324   0.14713   0.14883
 Alpha virt. eigenvalues --    0.15474   0.15721   0.16259   0.16492   0.17025
 Alpha virt. eigenvalues --    0.17216   0.17524   0.17923   0.18323   0.18430
 Alpha virt. eigenvalues --    0.18915   0.19484   0.19843   0.20033   0.20320
 Alpha virt. eigenvalues --    0.20520   0.20771   0.21329   0.21571   0.21859
 Alpha virt. eigenvalues --    0.22082   0.22335   0.22811   0.22985   0.23690
 Alpha virt. eigenvalues --    0.23746   0.23920   0.24145   0.24433   0.24621
 Alpha virt. eigenvalues --    0.25283   0.25946   0.26056   0.26368   0.26728
 Alpha virt. eigenvalues --    0.27133   0.27571   0.27870   0.28095   0.28288
 Alpha virt. eigenvalues --    0.28737   0.28929   0.29606   0.29743   0.30049
 Alpha virt. eigenvalues --    0.30471   0.30783   0.31343   0.32113   0.32574
 Alpha virt. eigenvalues --    0.32672   0.33783   0.34036   0.34716   0.34778
 Alpha virt. eigenvalues --    0.34963   0.35617   0.36703   0.37297   0.38104
 Alpha virt. eigenvalues --    0.39245   0.39738   0.40779   0.41706   0.42456
 Alpha virt. eigenvalues --    0.44128   0.44620   0.45502   0.45914   0.47686
 Alpha virt. eigenvalues --    0.49377   0.51335   0.53364   0.55636   0.57440
 Alpha virt. eigenvalues --    0.58733   0.62217   0.63743   0.64700   0.66027
 Alpha virt. eigenvalues --    0.67152   0.68263   0.68843   0.69280   0.69650
 Alpha virt. eigenvalues --    0.70361   0.70855   0.71235   0.72276   0.72903
 Alpha virt. eigenvalues --    0.73941   0.74089   0.75168   0.75367   0.76390
 Alpha virt. eigenvalues --    0.76761   0.77119   0.78022   0.79237   0.80415
 Alpha virt. eigenvalues --    0.80884   0.82935   0.83235   0.84039   0.84847
 Alpha virt. eigenvalues --    0.85099   0.86182   0.86989   0.87382   0.88027
 Alpha virt. eigenvalues --    0.89103   0.90115   0.91046   0.91573   0.92072
 Alpha virt. eigenvalues --    0.92524   0.93043   0.94513   0.96456   0.96815
 Alpha virt. eigenvalues --    0.97666   0.98003   0.99184   0.99489   1.00540
 Alpha virt. eigenvalues --    1.00909   1.01540   1.02633   1.02894   1.04320
 Alpha virt. eigenvalues --    1.05177   1.05926   1.07454   1.09120   1.09686
 Alpha virt. eigenvalues --    1.10329   1.11849   1.13393   1.13799   1.14251
 Alpha virt. eigenvalues --    1.15288   1.15455   1.15757   1.17554   1.18934
 Alpha virt. eigenvalues --    1.19506   1.20507   1.20830   1.22083   1.22465
 Alpha virt. eigenvalues --    1.22996   1.23933   1.24288   1.26271   1.27246
 Alpha virt. eigenvalues --    1.28105   1.29240   1.29846   1.30819   1.31650
 Alpha virt. eigenvalues --    1.32622   1.33976   1.34838   1.36328   1.36791
 Alpha virt. eigenvalues --    1.37430   1.38206   1.39620   1.40579   1.41104
 Alpha virt. eigenvalues --    1.42300   1.42746   1.43744   1.45466   1.46345
 Alpha virt. eigenvalues --    1.46820   1.48559   1.49156   1.49478   1.52362
 Alpha virt. eigenvalues --    1.55843   1.56574   1.56889   1.58665   1.59634
 Alpha virt. eigenvalues --    1.64198   1.64567   1.65562   1.69540   1.70169
 Alpha virt. eigenvalues --    1.73094   1.73769   1.75774   1.77099   1.79052
 Alpha virt. eigenvalues --    1.79403   1.81322   1.82150   1.82722   1.83917
 Alpha virt. eigenvalues --    1.86185   1.87678   1.88540   1.88996   1.89927
 Alpha virt. eigenvalues --    1.90527   1.91828   1.93019   1.93753   1.95662
 Alpha virt. eigenvalues --    1.96668   1.98394   1.99563   1.99986   2.00215
 Alpha virt. eigenvalues --    2.01843   2.02558   2.03134   2.04995   2.05217
 Alpha virt. eigenvalues --    2.06287   2.07414   2.08772   2.10170   2.11280
 Alpha virt. eigenvalues --    2.11724   2.12821   2.14995   2.16070   2.16399
 Alpha virt. eigenvalues --    2.18549   2.20233   2.20912   2.23485   2.24038
 Alpha virt. eigenvalues --    2.25636   2.27441   2.27911   2.29612   2.30965
 Alpha virt. eigenvalues --    2.32269   2.34418   2.35745   2.36052   2.36797
 Alpha virt. eigenvalues --    2.37859   2.38941   2.39813   2.41273   2.42237
 Alpha virt. eigenvalues --    2.44093   2.44459   2.45606   2.46182   2.47289
 Alpha virt. eigenvalues --    2.48656   2.50292   2.50762   2.52391   2.54578
 Alpha virt. eigenvalues --    2.55272   2.56723   2.58229   2.58405   2.59009
 Alpha virt. eigenvalues --    2.60057   2.61109   2.61505   2.62092   2.63075
 Alpha virt. eigenvalues --    2.64383   2.65904   2.66328   2.66759   2.67243
 Alpha virt. eigenvalues --    2.68028   2.68461   2.70223   2.71042   2.72126
 Alpha virt. eigenvalues --    2.73454   2.73863   2.76237   2.77404   2.80723
 Alpha virt. eigenvalues --    2.82004   2.82485   2.83929   2.86605   2.87619
 Alpha virt. eigenvalues --    2.88969   2.93910   2.95570   3.02308   3.04104
 Alpha virt. eigenvalues --    3.05474   3.06623   3.09323   3.10954   3.16117
 Alpha virt. eigenvalues --    3.16438   3.24146   3.25286   3.27546   3.27917
 Alpha virt. eigenvalues --    3.29223   3.32879   3.34812   3.35798   3.38470
 Alpha virt. eigenvalues --    3.44021   3.45724   3.46771   3.49020   3.50502
 Alpha virt. eigenvalues --    3.51603   3.53000   3.55487   3.66875   3.68638
 Alpha virt. eigenvalues --    3.70969   3.76628   3.85403   4.24955   4.26977
 Alpha virt. eigenvalues --    4.31595   4.35017   4.37749   4.38976   4.39195
 Alpha virt. eigenvalues --    4.42008   4.42526   4.47570   4.50110   4.51435
 Alpha virt. eigenvalues --    4.55650   4.61107   4.68872   4.69632   4.73659
 Alpha virt. eigenvalues --    4.90618   5.07889
          Condensed to atoms (all electrons):
               1          2          3          4          5          6
     1  C    7.670307  -2.293631   1.909866   1.125941  -1.893617   1.464095
     2  C   -2.293631  17.451003  -8.644724  -3.686870   3.411460  -0.794647
     3  C    1.909866  -8.644724  20.665873   3.740164  -3.597868  -0.332089
     4  C    1.125941  -3.686870   3.740164  17.684926  -4.222827  -3.564591
     5  C   -1.893617   3.411460  -3.597868  -4.222827  14.255191  -0.638828
     6  C    1.464095  -0.794647  -0.332089  -3.564591  -0.638828  10.189667
     7  H    0.301943  -0.025456   0.033425  -0.012443   0.025317  -0.004123
     8  H    0.109935   0.221506  -0.019573   0.028739  -0.014512   0.020806
     9  H    0.018116  -0.007318   0.024331   0.004923   0.267486  -0.018038
    10  H    0.002816   0.024549   0.000331   0.022323  -0.022891   0.301096
    11  C   -0.499716  -1.982624  -3.764613  -0.049736  -0.919867  -0.286024
    12  C   -0.695787  -0.074450  -3.276939  -2.103951  -0.450421   0.155836
    13  C   -0.480140   1.923760   0.443343  -3.523006  -1.705444  -0.272618
    14  H    0.001233  -0.000575   0.002127   0.034564   0.004639   0.000117
    15  C   -0.300277   0.880316  -2.138060   0.752404   1.815163   0.190658
    16  H    0.001593  -0.001037   0.056029  -0.010343  -0.003500   0.000716
    17  O   -0.003511   0.124769   0.087030  -0.386239  -0.044808   0.069322
    18  Cl   0.053960  -0.044200   0.030996  -0.022922  -0.082989  -0.006904
    19  C   -0.000824   0.121344   0.048004  -0.195751   0.170540   0.034779
    20  C   -0.026484  -0.096539   0.043833   0.185609  -0.460444  -0.176448
    21  H   -0.000019  -0.000008  -0.002876  -0.004165   0.002988   0.000288
    22  C    0.000765  -0.004453   0.014923   0.045911  -0.020196  -0.012537
    23  H   -0.000032   0.000005  -0.000162  -0.002819   0.000224   0.000071
    24  H    0.000005  -0.000007   0.000064   0.002570  -0.001547  -0.000310
    25  H    0.000161  -0.000116  -0.000239   0.007301  -0.002730  -0.000195
    26  C    0.023417  -0.053788  -0.000412  -0.046738   0.137806   0.087683
    27  H   -0.002530  -0.009427  -0.006704  -0.081264   0.059600   0.023911
    28  H    0.000245   0.000483   0.000445  -0.001571   0.004497   0.004433
    29  H    0.002016  -0.000912  -0.000805   0.053372  -0.024673  -0.019517
    30  C    0.005187   0.064732  -0.112320  -0.118318   0.176793   0.053318
    31  H    0.000215   0.002122   0.005672   0.002725   0.002117  -0.000052
    32  H   -0.000823  -0.016369  -0.058128   0.009136   0.029235   0.005633
    33  O    0.001158   0.002115   0.003433  -0.127071   0.089955   0.043199
    34  H   -0.001656  -0.000380  -0.002215   0.031931  -0.063810  -0.016182
    35  H   -0.000105  -0.000290  -0.000818   0.022003  -0.019651  -0.004022
    36  O    0.000270  -0.000259   0.004100  -0.009175   0.010491   0.000968
    37  H    0.000014   0.000097   0.000145   0.001122   0.004175   0.000091
    38  H    0.000297  -0.000190   0.002862   0.022033   0.004553  -0.000643
               7          8          9         10         11         12
     1  C    0.301943   0.109935   0.018116   0.002816  -0.499716  -0.695787
     2  C   -0.025456   0.221506  -0.007318   0.024549  -1.982624  -0.074450
     3  C    0.033425  -0.019573   0.024331   0.000331  -3.764613  -3.276939
     4  C   -0.012443   0.028739   0.004923   0.022323  -0.049736  -2.103951
     5  C    0.025317  -0.014512   0.267486  -0.022891  -0.919867  -0.450421
     6  C   -0.004123   0.020806  -0.018038   0.301096  -0.286024   0.155836
     7  H    0.543699  -0.005089  -0.000166  -0.004423  -0.000963  -0.001424
     8  H   -0.005089   0.547131   0.000014  -0.000157  -0.005265  -0.041202
     9  H   -0.000166   0.000014   0.563251  -0.005125  -0.028867  -0.012401
    10  H   -0.004423  -0.000157  -0.005125   0.546381  -0.010025  -0.000822
    11  C   -0.000963  -0.005265  -0.028867  -0.010025  20.843673   3.660803
    12  C   -0.001424  -0.041202  -0.012401  -0.000822   3.660803  13.335865
    13  C   -0.001020  -0.007010   0.036124  -0.000741  -5.981908  -2.069882
    14  H    0.000000   0.000000  -0.000005   0.000000   0.013069   0.033474
    15  C    0.000631   0.016007  -0.000994  -0.000918  -4.486351  -2.034492
    16  H    0.000000  -0.000005   0.000000   0.000000   0.030910   0.106669
    17  O    0.000000   0.000040   0.013703   0.000224  -0.349670  -0.149096
    18  Cl   0.000264  -0.004800   0.000062   0.000075   0.041040  -0.222286
    19  C    0.000064  -0.000041  -0.011740  -0.000028  -1.600255  -0.166253
    20  C   -0.000002   0.000021  -0.001482   0.000173   1.845141   0.078992
    21  H    0.000000   0.000000   0.000000   0.000000  -0.005495   0.000450
    22  C   -0.000001  -0.000004   0.001032   0.000020   0.122060   0.013759
    23  H    0.000000   0.000000   0.000001   0.000000  -0.000591   0.000064
    24  H    0.000000   0.000000   0.000001   0.000000   0.009231   0.000116
    25  H    0.000000   0.000000   0.000106   0.000000  -0.009719   0.000152
    26  C   -0.000149   0.000049   0.012489   0.000262  -0.202489  -0.057438
    27  H    0.000000   0.000000  -0.000573  -0.000004   0.077110   0.009444
    28  H    0.000000   0.000000   0.000031   0.000000  -0.022648  -0.001544
    29  H    0.000000   0.000000   0.001279  -0.000004  -0.006765  -0.000095
    30  C    0.000016   0.000086   0.000147  -0.000068  -0.218461   0.095138
    31  H    0.000000   0.000000   0.000000   0.000000  -0.045052  -0.011926
    32  H    0.000000   0.000000   0.000003   0.000000   0.057216  -0.001572
    33  O    0.000000   0.000000   0.000067  -0.000002  -0.044817  -0.001440
    34  H    0.000000   0.000000   0.001484  -0.000001   0.025385   0.004578
    35  H    0.000000   0.000000   0.000046   0.000000  -0.007061   0.000509
    36  O    0.000000   0.000000   0.000103   0.000000  -0.099364   0.003477
    37  H    0.000000   0.000000  -0.000001   0.000000   0.010008  -0.000978
    38  H    0.000000   0.000000  -0.000058   0.000000   0.008042  -0.001373
              13         14         15         16         17         18
     1  C   -0.480140   0.001233  -0.300277   0.001593  -0.003511   0.053960
     2  C    1.923760  -0.000575   0.880316  -0.001037   0.124769  -0.044200
     3  C    0.443343   0.002127  -2.138060   0.056029   0.087030   0.030996
     4  C   -3.523006   0.034564   0.752404  -0.010343  -0.386239  -0.022922
     5  C   -1.705444   0.004639   1.815163  -0.003500  -0.044808  -0.082989
     6  C   -0.272618   0.000117   0.190658   0.000716   0.069322  -0.006904
     7  H   -0.001020   0.000000   0.000631   0.000000   0.000000   0.000264
     8  H   -0.007010   0.000000   0.016007  -0.000005   0.000040  -0.004800
     9  H    0.036124  -0.000005  -0.000994   0.000000   0.013703   0.000062
    10  H   -0.000741   0.000000  -0.000918   0.000000   0.000224   0.000075
    11  C   -5.981908   0.013069  -4.486351   0.030910  -0.349670   0.041040
    12  C   -2.069882   0.033474  -2.034492   0.106669  -0.149096  -0.222286
    13  C   18.907845   0.188448  -1.985005  -0.023530   0.169869   0.046155
    14  H    0.188448   0.539069   0.020539  -0.004461   0.005110   0.000688
    15  C   -1.985005   0.020539  13.511038   0.153753   0.241297  -0.181599
    16  H   -0.023530  -0.004461   0.153753   0.526943  -0.000838   0.004530
    17  O    0.169869   0.005110   0.241297  -0.000838   8.827797   0.000452
    18  Cl   0.046155   0.000688  -0.181599   0.004530   0.000452  17.154793
    19  C    0.394311  -0.006438   0.879678  -0.003356   0.243073   0.000541
    20  C    0.098779  -0.027032  -1.344110   0.006991  -0.172699   0.011516
    21  H    0.000479   0.000343   0.015059  -0.000002  -0.005460  -0.000005
    22  C   -0.078798   0.001855  -0.030233   0.000056  -0.080020   0.000776
    23  H    0.000658   0.000000  -0.000210   0.000000   0.002390   0.000000
    24  H   -0.005604   0.000001  -0.000056   0.000000  -0.003960   0.000000
    25  H    0.001703   0.000002   0.000924   0.000000  -0.003352   0.000001
    26  C   -0.035881  -0.006707   0.089475  -0.000127   0.032348  -0.000865
    27  H   -0.043717  -0.000008  -0.002875  -0.000001  -0.011560   0.000154
    28  H    0.005307  -0.000001   0.000832   0.000000   0.005175  -0.000009
    29  H   -0.002959   0.000002  -0.000309   0.000000  -0.009045   0.000014
    30  C   -0.155525   0.035314   0.340461   0.000717  -0.005894  -0.008596
    31  H    0.005720  -0.001518   0.025745   0.000146   0.003520   0.000577
    32  H   -0.113458   0.000756   0.075704  -0.000098  -0.000454   0.000662
    33  O    0.030601   0.000051   0.001067   0.000000   0.000348   0.000014
    34  H    0.023549  -0.000011  -0.004077   0.000000   0.041165   0.000005
    35  H   -0.000449   0.000002  -0.001151   0.000000   0.013100   0.000000
    36  O    0.043136  -0.001720   0.028946   0.000009   0.013710   0.000006
    37  H   -0.014647   0.000107   0.012202   0.000000  -0.003843   0.000002
    38  H   -0.038630   0.000571   0.017947  -0.000003   0.043368   0.000006
              19         20         21         22         23         24
     1  C   -0.000824  -0.026484  -0.000019   0.000765  -0.000032   0.000005
     2  C    0.121344  -0.096539  -0.000008  -0.004453   0.000005  -0.000007
     3  C    0.048004   0.043833  -0.002876   0.014923  -0.000162   0.000064
     4  C   -0.195751   0.185609  -0.004165   0.045911  -0.002819   0.002570
     5  C    0.170540  -0.460444   0.002988  -0.020196   0.000224  -0.001547
     6  C    0.034779  -0.176448   0.000288  -0.012537   0.000071  -0.000310
     7  H    0.000064  -0.000002   0.000000  -0.000001   0.000000   0.000000
     8  H   -0.000041   0.000021   0.000000  -0.000004   0.000000   0.000000
     9  H   -0.011740  -0.001482   0.000000   0.001032   0.000001   0.000001
    10  H   -0.000028   0.000173   0.000000   0.000020   0.000000   0.000000
    11  C   -1.600255   1.845141  -0.005495   0.122060  -0.000591   0.009231
    12  C   -0.166253   0.078992   0.000450   0.013759   0.000064   0.000116
    13  C    0.394311   0.098779   0.000479  -0.078798   0.000658  -0.005604
    14  H   -0.006438  -0.027032   0.000343   0.001855   0.000000   0.000001
    15  C    0.879678  -1.344110   0.015059  -0.030233  -0.000210  -0.000056
    16  H   -0.003356   0.006991  -0.000002   0.000056   0.000000   0.000000
    17  O    0.243073  -0.172699  -0.005460  -0.080020   0.002390  -0.003960
    18  Cl   0.000541   0.011516  -0.000005   0.000776   0.000000   0.000000
    19  C    8.480674  -2.032990   0.028249  -0.580575  -0.048173  -0.093686
    20  C   -2.032990   8.472827   0.295685   0.331362  -0.002276  -0.023001
    21  H    0.028249   0.295685   0.548747  -0.032622   0.000281   0.003772
    22  C   -0.580575   0.331362  -0.032622   6.268361   0.378373   0.476822
    23  H   -0.048173  -0.002276   0.000281   0.378373   0.519686  -0.023669
    24  H   -0.093686  -0.023001   0.003772   0.476822  -0.023669   0.516790
    25  H   -0.075395   0.016378   0.000211   0.470292  -0.025548  -0.024643
    26  C   -0.224110  -0.344236   0.001548  -0.535557   0.021892   0.005807
    27  H   -0.093322   0.004618  -0.000067   0.023995   0.000068  -0.000148
    28  H   -0.107613  -0.007410  -0.000086  -0.041448   0.000814  -0.000055
    29  H   -0.055434   0.026848  -0.000118  -0.024655  -0.000241   0.000135
    30  C    0.230428  -0.426117   0.002501  -0.170955  -0.003586  -0.010125
    31  H    0.043072  -0.066519  -0.004799  -0.005068   0.000004  -0.000009
    32  H    0.070091  -0.140100   0.004167  -0.005285   0.000005  -0.000002
    33  O   -0.022523  -0.004642   0.000014   0.012292   0.000260   0.000514
    34  H   -0.009336   0.011489  -0.000001  -0.002889   0.000040  -0.000004
    35  H   -0.008624   0.005451   0.000001   0.001368  -0.000006  -0.000048
    36  O    0.020901  -0.039905   0.000592  -0.001229   0.000287  -0.001993
    37  H    0.002052  -0.010184   0.000015   0.004038  -0.000002   0.000067
    38  H    0.004545  -0.013447   0.000943   0.006373  -0.000023   0.000763
              25         26         27         28         29         30
     1  C    0.000161   0.023417  -0.002530   0.000245   0.002016   0.005187
     2  C   -0.000116  -0.053788  -0.009427   0.000483  -0.000912   0.064732
     3  C   -0.000239  -0.000412  -0.006704   0.000445  -0.000805  -0.112320
     4  C    0.007301  -0.046738  -0.081264  -0.001571   0.053372  -0.118318
     5  C   -0.002730   0.137806   0.059600   0.004497  -0.024673   0.176793
     6  C   -0.000195   0.087683   0.023911   0.004433  -0.019517   0.053318
     7  H    0.000000  -0.000149   0.000000   0.000000   0.000000   0.000016
     8  H    0.000000   0.000049   0.000000   0.000000   0.000000   0.000086
     9  H    0.000106   0.012489  -0.000573   0.000031   0.001279   0.000147
    10  H    0.000000   0.000262  -0.000004   0.000000  -0.000004  -0.000068
    11  C   -0.009719  -0.202489   0.077110  -0.022648  -0.006765  -0.218461
    12  C    0.000152  -0.057438   0.009444  -0.001544  -0.000095   0.095138
    13  C    0.001703  -0.035881  -0.043717   0.005307  -0.002959  -0.155525
    14  H    0.000002  -0.006707  -0.000008  -0.000001   0.000002   0.035314
    15  C    0.000924   0.089475  -0.002875   0.000832  -0.000309   0.340461
    16  H    0.000000  -0.000127  -0.000001   0.000000   0.000000   0.000717
    17  O   -0.003352   0.032348  -0.011560   0.005175  -0.009045  -0.005894
    18  Cl   0.000001  -0.000865   0.000154  -0.000009   0.000014  -0.008596
    19  C   -0.075395  -0.224110  -0.093322  -0.107613  -0.055434   0.230428
    20  C    0.016378  -0.344236   0.004618  -0.007410   0.026848  -0.426117
    21  H    0.000211   0.001548  -0.000067  -0.000086  -0.000118   0.002501
    22  C    0.470292  -0.535557   0.023995  -0.041448  -0.024655  -0.170955
    23  H   -0.025548   0.021892   0.000068   0.000814  -0.000241  -0.003586
    24  H   -0.024643   0.005807  -0.000148  -0.000055   0.000135  -0.010125
    25  H    0.504676  -0.051600  -0.000038   0.000168   0.002379  -0.000149
    26  C   -0.051600   6.681414   0.439627   0.504531   0.413470  -0.250983
    27  H   -0.000038   0.439627   0.535267  -0.022968  -0.028230  -0.034641
    28  H    0.000168   0.504531  -0.022968   0.510965  -0.025610   0.002551
    29  H    0.002379   0.413470  -0.028230  -0.025610   0.520919   0.004206
    30  C   -0.000149  -0.250983  -0.034641   0.002551   0.004206   6.026766
    31  H    0.000002   0.015665   0.000034   0.000001  -0.000003   0.370795
    32  H   -0.000004   0.004885   0.001085   0.000111  -0.000105   0.411077
    33  O    0.002240   0.003778  -0.000052   0.000015  -0.000195  -0.001051
    34  H    0.000146  -0.003223  -0.000042   0.000005   0.000225   0.000321
    35  H    0.000006   0.000794   0.000000   0.000000   0.000016   0.000059
    36  O   -0.000792   0.005423  -0.000052   0.000027  -0.000065   0.004167
    37  H    0.000037  -0.001574   0.000000   0.000000   0.000000   0.003527
    38  H    0.000259  -0.010304   0.000004  -0.000010   0.000015   0.006338
              31         32         33         34         35         36
     1  C    0.000215  -0.000823   0.001158  -0.001656  -0.000105   0.000270
     2  C    0.002122  -0.016369   0.002115  -0.000380  -0.000290  -0.000259
     3  C    0.005672  -0.058128   0.003433  -0.002215  -0.000818   0.004100
     4  C    0.002725   0.009136  -0.127071   0.031931   0.022003  -0.009175
     5  C    0.002117   0.029235   0.089955  -0.063810  -0.019651   0.010491
     6  C   -0.000052   0.005633   0.043199  -0.016182  -0.004022   0.000968
     7  H    0.000000   0.000000   0.000000   0.000000   0.000000   0.000000
     8  H    0.000000   0.000000   0.000000   0.000000   0.000000   0.000000
     9  H    0.000000   0.000003   0.000067   0.001484   0.000046   0.000103
    10  H    0.000000   0.000000  -0.000002  -0.000001   0.000000   0.000000
    11  C   -0.045052   0.057216  -0.044817   0.025385  -0.007061  -0.099364
    12  C   -0.011926  -0.001572  -0.001440   0.004578   0.000509   0.003477
    13  C    0.005720  -0.113458   0.030601   0.023549  -0.000449   0.043136
    14  H   -0.001518   0.000756   0.000051  -0.000011   0.000002  -0.001720
    15  C    0.025745   0.075704   0.001067  -0.004077  -0.001151   0.028946
    16  H    0.000146  -0.000098   0.000000   0.000000   0.000000   0.000009
    17  O    0.003520  -0.000454   0.000348   0.041165   0.013100   0.013710
    18  Cl   0.000577   0.000662   0.000014   0.000005   0.000000   0.000006
    19  C    0.043072   0.070091  -0.022523  -0.009336  -0.008624   0.020901
    20  C   -0.066519  -0.140100  -0.004642   0.011489   0.005451  -0.039905
    21  H   -0.004799   0.004167   0.000014  -0.000001   0.000001   0.000592
    22  C   -0.005068  -0.005285   0.012292  -0.002889   0.001368  -0.001229
    23  H    0.000004   0.000005   0.000260   0.000040  -0.000006   0.000287
    24  H   -0.000009  -0.000002   0.000514  -0.000004  -0.000048  -0.001993
    25  H    0.000002  -0.000004   0.002240   0.000146   0.000006  -0.000792
    26  C    0.015665   0.004885   0.003778  -0.003223   0.000794   0.005423
    27  H    0.000034   0.001085  -0.000052  -0.000042   0.000000  -0.000052
    28  H    0.000001   0.000111   0.000015   0.000005   0.000000   0.000027
    29  H   -0.000003  -0.000105  -0.000195   0.000225   0.000016  -0.000065
    30  C    0.370795   0.411077  -0.001051   0.000321   0.000059   0.004167
    31  H    0.500070  -0.027534   0.000001   0.000000   0.000000   0.000031
    32  H   -0.027534   0.514285   0.000001  -0.000001   0.000000  -0.000004
    33  O    0.000001   0.000001   8.296625   0.235248   0.271853  -0.010231
    34  H    0.000000  -0.000001   0.235248   0.312481  -0.020436   0.001293
    35  H    0.000000   0.000000   0.271853  -0.020436   0.343105   0.018687
    36  O    0.000031  -0.000004  -0.010231   0.001293   0.018687   8.407613
    37  H    0.000000   0.000000   0.000155   0.000000  -0.001369   0.256734
    38  H   -0.000010   0.000014  -0.001478  -0.002240  -0.004988   0.178327
              37         38
     1  C    0.000014   0.000297
     2  C    0.000097  -0.000190
     3  C    0.000145   0.002862
     4  C    0.001122   0.022033
     5  C    0.004175   0.004553
     6  C    0.000091  -0.000643
     7  H    0.000000   0.000000
     8  H    0.000000   0.000000
     9  H   -0.000001  -0.000058
    10  H    0.000000   0.000000
    11  C    0.010008   0.008042
    12  C   -0.000978  -0.001373
    13  C   -0.014647  -0.038630
    14  H    0.000107   0.000571
    15  C    0.012202   0.017947
    16  H    0.000000  -0.000003
    17  O   -0.003843   0.043368
    18  Cl   0.000002   0.000006
    19  C    0.002052   0.004545
    20  C   -0.010184  -0.013447
    21  H    0.000015   0.000943
    22  C    0.004038   0.006373
    23  H   -0.000002  -0.000023
    24  H    0.000067   0.000763
    25  H    0.000037   0.000259
    26  C   -0.001574  -0.010304
    27  H    0.000000   0.000004
    28  H    0.000000  -0.000010
    29  H    0.000000   0.000015
    30  C    0.003527   0.006338
    31  H    0.000000  -0.000010
    32  H    0.000000   0.000014
    33  O    0.000155  -0.001478
    34  H    0.000000  -0.002240
    35  H   -0.001369  -0.004988
    36  O    0.256734   0.178327
    37  H    0.364825  -0.008947
    38  H   -0.008947   0.314936
 Mulliken charges:
               1
     1  C   -0.494402
     2  C   -0.489990
     3  C    0.841551
     4  C    0.392103
     5  C   -0.281606
     6  C   -0.498921
     7  H    0.149903
     8  H    0.153324
     9  H    0.141969
    10  H    0.146959
    11  C   -0.115346
    12  C   -0.123552
    13  C    0.220185
    14  H    0.166397
    15  C   -0.559131
    16  H    0.158237
    17  O   -0.707360
    18  Cl   0.227887
    19  C    0.564124
    20  C   -0.019646
    21  H    0.149390
    22  C   -0.547910
    23  H    0.182217
    24  H    0.172207
    25  H    0.187377
    26  C   -0.656180
    27  H    0.163308
    28  H    0.190338
    29  H    0.174844
    30  C   -0.317854
    31  H    0.184258
    32  H    0.179873
    33  O   -0.781500
    34  H    0.437159
    35  H    0.392019
    36  O   -0.834508
    37  H    0.382130
    38  H    0.470147
 Sum of Mulliken charges =   0.00000
 Mulliken charges with hydrogens summed into heavy atoms:
               1
     1  C   -0.344499
     2  C   -0.336666
     3  C    0.841551
     4  C    0.392103
     5  C   -0.139637
     6  C   -0.351962
    11  C   -0.115346
    12  C   -0.123552
    13  C    0.386582
    15  C   -0.400894
    17  O   -0.707360
    18  Cl   0.227887
    19  C    0.564124
    20  C    0.129744
    22  C   -0.006110
    26  C   -0.127690
    30  C    0.046277
    33  O    0.047679
    36  O    0.017769
 APT charges:
               1
     1  C   -0.009132
     2  C   -0.135612
     3  C   -0.007651
     4  C   -0.051832
     5  C   -0.085785
     6  C   -0.022893
     7  H    0.037235
     8  H    0.073114
     9  H    0.077331
    10  H    0.041012
    11  C    0.536250
    12  C    0.484491
    13  C   -0.321655
    14  H    0.066897
    15  C    0.017886
    16  H    0.066556
    17  O   -1.105908
    18  Cl  -0.548693
    19  C    0.852463
    20  C   -0.616421
    21  H    0.051024
    22  C   -0.190317
    23  H   -0.017252
    24  H    0.018215
    25  H    0.061323
    26  C   -0.152882
    27  H    0.037998
    28  H    0.036298
    29  H    0.052022
    30  C    0.581664
    31  H    0.064677
    32  H    0.012232
    33  O   -0.869342
    34  H    0.537092
    35  H    0.405625
    36  O   -0.898687
    37  H    0.317793
    38  H    0.604865
 Sum of APT charges =   0.00000
 APT charges with hydrogens summed into heavy atoms:
               1
     1  C    0.028103
     2  C   -0.062499
     3  C   -0.007651
     4  C   -0.051832
     5  C   -0.008453
     6  C    0.018119
    11  C    0.536250
    12  C    0.484491
    13  C   -0.254758
    15  C    0.084441
    17  O   -1.105908
    18  Cl  -0.548693
    19  C    0.852463
    20  C   -0.565397
    22  C   -0.128031
    26  C   -0.026563
    30  C    0.658573
    33  O    0.073374
    36  O    0.023972
 Electronic spatial extent (au):  <R**2>=           6016.4914
 Charge=              0.0000 electrons
 Dipole moment (field-independent basis, Debye):
    X=             -1.1177    Y=             -3.6538    Z=              5.6477  Tot=              6.8188
 Quadrupole moment (field-independent basis, Debye-Ang):
   XX=           -140.3534   YY=           -115.5614   ZZ=           -120.9395
   XY=            -14.4430   XZ=             13.5373   YZ=             10.3543
 Traceless Quadrupole moment (field-independent basis, Debye-Ang):
   XX=            -14.7353   YY=             10.0567   ZZ=              4.6786
   XY=            -14.4430   XZ=             13.5373   YZ=             10.3543
 Octapole moment (field-independent basis, Debye-Ang**2):
  XXX=            -14.2493  YYY=            -26.0967  ZZZ=            -10.8759  XYY=            -27.7816
  XXY=             -0.8420  XXZ=             60.6516  XZZ=             19.1430  YZZ=            -29.6049
  YYZ=             17.5051  XYZ=             21.7234
 Hexadecapole moment (field-independent basis, Debye-Ang**3):
 XXXX=          -5134.6923 YYYY=          -1868.6010 ZZZZ=          -1015.3137 XXXY=           -130.8509
 XXXZ=            139.7559 YYYX=            -94.8357 YYYZ=             79.2490 ZZZX=            -44.0843
 ZZZY=             84.5252 XXYY=          -1241.3562 XXZZ=          -1027.7421 YYZZ=           -560.3458
 XXYZ=             79.7662 YYXZ=             28.2723 ZZXY=            -36.7279
 N-N= 1.599163737557D+03 E-N=-6.172097242904D+03  KE= 1.259765194129D+03
  Exact polarizability: 453.914 -15.241 354.489  52.391   4.257 245.119
 Approx polarizability: 506.115  -5.382 408.430  56.943   6.644 284.694
 D2PCM: C-PCM CHGder 2nd derivatives, FixD1E=F FixD2E=F DoIter=F DoCFld=F I1PDM=0
 Calling FoFJK, ICntrl=    100127 FMM=F ISym2X=0 I1Cent= 0 IOpClX= 0 NMat=1 NMatS=1 NMatT=0.
 Full mass-weighted force constant matrix:
 Low frequencies --- -112.6160  -11.2892   -2.7355   -0.0067   -0.0041   -0.0032
 Low frequencies ---   10.5247   32.6993   42.8507
 ******    1 imaginary frequencies (negative Signs) ****** 
 Diagonal vibrational polarizability:
      240.2662266     266.2018380     229.4447794
 Harmonic frequencies (cm**-1), IR intensities (KM/Mole), Raman scattering
 activities (A**4/AMU), depolarization ratios for plane and unpolarized
 incident light, reduced masses (AMU), force constants (mDyne/A),
 and normal coordinates:
                      1                      2                      3
                      A                      A                      A
 Frequencies --   -112.6088                32.6509                42.8161
 Red. masses --      5.1746                 5.3907                 5.1238
 Frc consts  --      0.0387                 0.0034                 0.0055
 IR Inten    --     43.3612                 1.9238                 3.7130
  Atom  AN      X      Y      Z        X      Y      Z        X      Y      Z
     1   6     0.02   0.01  -0.01    -0.01  -0.02   0.14     0.04   0.03  -0.05
     2   6     0.01   0.02  -0.02     0.00  -0.01   0.09     0.02   0.03   0.00
     3   6     0.01   0.00  -0.02     0.00   0.01   0.02     0.01   0.01  -0.01
     4   6     0.03  -0.01   0.01    -0.01   0.03   0.02     0.01   0.00  -0.06
     5   6     0.03  -0.01   0.03    -0.02   0.03   0.06     0.02   0.00  -0.12
     6   6     0.03  -0.01   0.02    -0.02   0.00   0.12     0.04   0.02  -0.12
     7   1     0.03   0.01  -0.01    -0.02  -0.03   0.18     0.05   0.05  -0.05
     8   1     0.01   0.02  -0.04     0.00  -0.03   0.09     0.03   0.04   0.05
     9   1     0.03  -0.01   0.06    -0.02   0.03   0.05     0.02  -0.01  -0.16
    10   1     0.04  -0.01   0.02    -0.03   0.00   0.16     0.05   0.02  -0.16
    11   6     0.01  -0.02   0.05     0.00   0.05  -0.02    -0.01  -0.02  -0.07
    12   6     0.00   0.03  -0.06     0.01   0.02  -0.03    -0.01   0.01   0.04
    13   6    -0.02   0.04  -0.14     0.02   0.05  -0.07    -0.04  -0.01  -0.09
    14   1     0.02   0.00   0.02     0.02   0.07  -0.10    -0.05  -0.01  -0.11
    15   6     0.00   0.03  -0.12     0.02   0.04  -0.07    -0.03   0.01  -0.02
    16   1     0.00   0.04  -0.15     0.03   0.04  -0.11    -0.05   0.01   0.00
    17   8     0.08  -0.05   0.23     0.00   0.07  -0.01     0.00  -0.04  -0.05
    18  17     0.01   0.01  -0.02     0.02   0.00  -0.04     0.00   0.02   0.18
    19   6    -0.09   0.07  -0.15    -0.03   0.05   0.01    -0.08  -0.01  -0.04
    20   6     0.02  -0.04   0.09     0.03   0.03  -0.07     0.02  -0.05  -0.10
    21   1     0.06  -0.03   0.12     0.07   0.09  -0.10     0.08   0.02  -0.13
    22   6    -0.11   0.07  -0.20    -0.04   0.15   0.04    -0.09   0.10   0.02
    23   1    -0.06  -0.22  -0.17    -0.07   0.17   0.05    -0.13   0.03   0.06
    24   1    -0.20   0.16  -0.41     0.02   0.19   0.03    -0.03   0.18  -0.05
    25   1    -0.06   0.21   0.03    -0.09   0.16   0.06    -0.12   0.17   0.12
    26   6    -0.05   0.01  -0.04    -0.10  -0.02   0.05    -0.19  -0.11  -0.01
    27   1    -0.05   0.01  -0.01    -0.09  -0.07   0.01    -0.18  -0.15  -0.11
    28   1    -0.02  -0.11  -0.05    -0.13  -0.08   0.06    -0.27  -0.19   0.01
    29   1    -0.05   0.04   0.04    -0.13   0.01   0.13    -0.20  -0.06   0.10
    30   6     0.13  -0.11   0.31     0.05  -0.04  -0.10     0.05  -0.16  -0.10
    31   1     0.14  -0.12   0.33     0.10  -0.05  -0.16     0.12  -0.17  -0.16
    32   1     0.08  -0.07   0.18     0.02  -0.10  -0.06     0.01  -0.23  -0.07
    33   8    -0.06  -0.01  -0.01     0.03  -0.16  -0.29     0.03   0.05   0.12
    34   1    -0.01  -0.04   0.05     0.02  -0.02  -0.22     0.01   0.00   0.04
    35   1    -0.06   0.01  -0.04     0.01  -0.24  -0.12     0.11   0.09   0.14
    36   8    -0.04   0.01  -0.02     0.02  -0.16   0.22     0.17   0.06   0.10
    37   1    -0.08  -0.02   0.02     0.05  -0.30   0.27     0.29   0.03   0.06
    38   1    -0.01   0.00   0.03     0.00  -0.06   0.14     0.09   0.01   0.01
                      4                      5                      6
                      A                      A                      A
 Frequencies --     47.6166                60.3427                66.0000
 Red. masses --      6.9917                 4.5664                 5.8917
 Frc consts  --      0.0093                 0.0098                 0.0151
 IR Inten    --      6.5656                 2.6758                 5.9854
  Atom  AN      X      Y      Z        X      Y      Z        X      Y      Z
     1   6     0.06   0.04  -0.09    -0.06   0.04  -0.15     0.06  -0.03   0.08
     2   6     0.04   0.04  -0.07    -0.04   0.03  -0.11     0.06  -0.03   0.08
     3   6     0.03   0.02  -0.01    -0.01   0.03  -0.01     0.05  -0.02   0.00
     4   6     0.04  -0.01   0.03    -0.01   0.04   0.04     0.05  -0.01  -0.04
     5   6     0.06  -0.02   0.01    -0.03   0.05   0.01     0.04  -0.01  -0.04
     6   6     0.07   0.01  -0.04    -0.06   0.05  -0.08     0.05  -0.02   0.02
     7   1     0.06   0.06  -0.14    -0.09   0.04  -0.23     0.07  -0.04   0.14
     8   1     0.03   0.06  -0.11    -0.04   0.02  -0.16     0.07  -0.04   0.12
     9   1     0.07  -0.04   0.06    -0.03   0.06   0.06     0.04   0.00  -0.09
    10   1     0.08   0.01  -0.05    -0.08   0.06  -0.11     0.05  -0.02   0.01
    11   6     0.03  -0.03   0.06     0.01   0.05   0.07     0.05   0.00  -0.04
    12   6     0.02   0.01   0.02     0.02   0.01   0.02     0.05  -0.01  -0.02
    13   6     0.02  -0.04   0.09     0.04   0.04   0.06     0.04   0.00  -0.08
    14   1     0.01  -0.04   0.07     0.04   0.07   0.02     0.05   0.00  -0.05
    15   6     0.01  -0.01   0.07     0.04   0.02   0.05     0.05   0.00  -0.08
    16   1     0.00  -0.01   0.08     0.06   0.02   0.06     0.05   0.00  -0.09
    17   8     0.03  -0.05   0.06     0.01   0.07   0.08     0.05  -0.01   0.02
    18  17     0.00   0.05  -0.03     0.03  -0.02   0.02     0.07  -0.04   0.07
    19   6     0.00  -0.08   0.11     0.03  -0.04   0.05    -0.15   0.02   0.08
    20   6     0.01  -0.07   0.04     0.09  -0.05  -0.05    -0.16   0.02   0.11
    21   1     0.01  -0.05   0.01     0.12   0.02  -0.13    -0.14  -0.01   0.20
    22   6     0.00  -0.04   0.12     0.01   0.06   0.07    -0.13  -0.02   0.14
    23   1    -0.02   0.07   0.11     0.00   0.09   0.07    -0.16   0.00   0.16
    24   1     0.06  -0.05   0.19     0.07   0.10   0.05    -0.11  -0.04   0.19
    25   1    -0.05  -0.08   0.05    -0.05   0.08   0.08    -0.08  -0.04   0.11
    26   6    -0.03  -0.11   0.12    -0.04  -0.13   0.12    -0.16   0.05   0.03
    27   1    -0.03  -0.10   0.05    -0.03  -0.14   0.03    -0.16   0.05   0.01
    28   1    -0.09  -0.15   0.13    -0.12  -0.24   0.14    -0.19   0.08   0.03
    29   1     0.00  -0.09   0.17    -0.03  -0.08   0.24    -0.16   0.04   0.00
    30   6    -0.01  -0.08  -0.02     0.11  -0.13  -0.06    -0.19   0.05   0.02
    31   1     0.00  -0.08  -0.05     0.16  -0.13  -0.14    -0.19   0.06   0.03
    32   1    -0.01  -0.11   0.03     0.09  -0.20   0.02    -0.22   0.09  -0.08
    33   8    -0.41   0.11  -0.28     0.10  -0.04   0.00     0.14  -0.07  -0.14
    34   1    -0.25  -0.01  -0.13     0.08   0.05   0.04     0.13   0.06  -0.06
    35   1    -0.29   0.18  -0.29    -0.03  -0.10  -0.05    -0.03  -0.16  -0.16
    36   8     0.10   0.14  -0.03    -0.25  -0.04  -0.13    -0.05   0.14  -0.25
    37   1     0.09  -0.03   0.05    -0.39   0.07  -0.12    -0.13   0.13  -0.20
    38   1     0.10   0.04   0.02    -0.15   0.03  -0.03     0.00   0.05  -0.12
                      7                      8                      9
                      A                      A                      A
 Frequencies --     76.9566                79.4647               127.4086
 Red. masses --      6.6747                 5.4751                 4.3076
 Frc consts  --      0.0233                 0.0204                 0.0412
 IR Inten    --      8.3665                 0.5057                 0.6061
  Atom  AN      X      Y      Z        X      Y      Z        X      Y      Z
     1   6     0.08  -0.02   0.08     0.08  -0.01   0.07    -0.01  -0.01   0.09
     2   6     0.07  -0.01   0.06     0.03   0.00   0.06     0.03  -0.04   0.25
     3   6     0.06  -0.01  -0.01    -0.01  -0.03   0.03     0.02  -0.01   0.13
[...]
 -0.00086247,0.00147533,-0.00045157,0.00075287,-0.00033162,-0.00002332,
 -0.00005417,0.00007189,0.00001298,-0.00026413,0.00002232,-0.00021779,0
 .00030423,0.00043579,-0.00009091,0.00003682,0.00005978,-0.00090117,0.0
 0002484,-0.00128023,-0.00026558,-0.00007112,-0.00040407,-0.00003113,0.
 00002396,0.00016714,0.00003223,0.00013622,-0.00013101,0.00012081,0.000
 06681,0.00009244,0.00086141,-0.00051043,0.00052652,-0.00002444,0.00000
 259,-0.00017354,-0.00003867,-0.00003955,-0.00007913,-0.28086052,0.0977
 9888,0.18174539,0.30152090,0.00010629,-0.00010148,0.00005924,-0.000001
 30,0.00002854,-0.00001739,0.00010779,-0.00048312,0.00000107,-0.0012774
 3,-0.00087348,0.00052582,-0.00074693,0.00071921,-0.00009592,-0.0000576
 8,-0.00034280,0.00003849,0.00000338,-0.00003960,-0.00000035,-0.0000531
 2,-0.00002579,-0.00000098,-0.00060822,-0.00022495,0.00063281,-0.000019
 46,-0.00005093,-0.00000611,0.00989089,-0.00012407,0.00088022,0.0001796
 9,0.00008131,-0.00002996,-0.00162129,0.00196710,0.00055479,0.00000135,
 -0.00007297,-0.00000744,0.00029429,0.00018855,-0.00033788,-0.00015948,
 0.00007464,-0.00000015,-0.00935337,-0.00069149,0.00161378,-0.00040447,
 0.00009102,0.00005909,-0.00080528,0.00013950,-0.00184860,-0.00008375,-
 0.00043407,0.00032551,0.00003084,0.00000033,-0.00007085,0.00018714,-0.
 00042434,0.00026672,0.00016147,0.00007817,0.00012695,-0.00005970,-0.00
 006261,-0.00006812,-0.00044965,0.00034497,-0.00039212,0.00016147,0.000
 12462,0.00045198,-0.00002998,-0.00003562,-0.00008419,-0.00006306,-0.00
 015767,0.00013166,-0.00003160,-0.00003112,-0.00009295,-0.00058367,0.00
 058668,-0.00047278,-0.00000147,0.00000915,0.00018983,0.00001788,0.0000
 2597,0.00004078,0.14293708,-0.10623854,-0.09545697,-0.10396542,0.10044
 104,-0.00002876,-0.00016216,0.00003948,-0.00010446,0.00000376,-0.00001
 072,-0.00001343,-0.00015413,0.00006315,-0.00076700,-0.00032582,0.00034
 589,0.00041393,-0.00018877,-0.00008456,-0.00035222,0.00007998,0.000039
 85,-0.00006953,-0.00001917,0.00001020,-0.00005418,-0.00001356,0.000007
 63,0.00095212,0.00099365,-0.00040280,-0.00001235,-0.00007143,0.0000136
 1,0.00622689,0.00151742,-0.00044807,0.00023062,-0.00008792,-0.00002701
 ,-0.00166127,0.00094251,0.00041860,0.00002729,-0.00005045,0.00000883,0
 .00018307,0.00035124,-0.00015421,-0.00016314,0.00007353,-0.00000866,-0
 .00573941,0.00093943,-0.00201583,-0.00038116,0.00011256,0.00003617,-0.
 00012784,-0.00073627,-0.00152129,-0.00035201,0.00003234,0.00017085,0.0
 0002438,0.00000498,-0.00004132,0.00017809,-0.00050931,0.00009665,0.000
 11445,0.00023596,0.00021183,0.00001562,0.00015001,0.00007978,-0.001410
 28,-0.00012102,-0.00104436,0.00016232,0.00001117,0.00021762,-0.0000203
 8,-0.00000567,-0.00007875,-0.00003500,0.00000466,0.00013198,-0.0000571
 1,0.00016665,-0.00021962,-0.00008435,0.00024186,-0.00025124,-0.0000182
 6,0.00000934,0.00008948,0.00001033,-0.00000530,0.00000206,0.18177656,-
 0.06516376,-0.13238397,-0.19334608,0.07001122,0.14331835,-0.00001857,0
 .00001688,-0.00001478,0.00000771,-0.00000680,-0.00000098,-0.00001490,0
 .00008808,-0.00000441,0.00027201,0.00013570,0.00000770,0.00012830,-0.0
 0011884,-0.00000220,0.00001913,0.00004710,-0.00000515,0.00000248,0.000
 00647,0.00000077,0.00000958,0.00000458,0.00000116,-0.00001848,0.000015
 39,-0.00004364,0.00000299,0.00000982,-0.00000006,-0.00126573,0.0003406
 3,-0.00018086,-0.00002886,-0.00000271,0.00000046,0.00015164,-0.0003214
 6,-0.00010506,-0.00000277,0.00001711,0.00000272,-0.00004533,-0.0000062
 3,0.00003909,0.00001840,-0.00001024,0.00000057,0.00202491,-0.00031097,
 -0.00096227,0.00006863,-0.00001694,-0.00001134,0.00009581,0.00001028,0
 .00027861,0.00002157,0.00004768,-0.00005263,-0.00000146,0.00000494,0.0
 0001475,-0.00011802,0.00002929,-0.00009260,-0.00001905,-0.00001318,-0.
 00003468,0.00003252,0.00000726,0.00002219,0.00012133,0.00001631,-0.000
 02632,-0.00003720,-0.00001085,-0.00009344,0.00000440,0.00000133,0.0000
 2004,0.00000927,0.00002527,-0.00002551,0.00000097,0.00000450,0.0000201
 5,0.00007035,-0.00009008,0.00006172,0.00000090,-0.00000202,-0.00002913
 ,-0.00000087,-0.00000488,-0.00000563,-0.12076775,-0.14446321,0.0810796
 7,-0.01916998,-0.03418981,0.01534047,0.14168529,-0.00000553,0.00001321
 ,-0.00000036,-0.00000641,-0.00000968,0.00001320,-0.00000278,-0.0000215
 3,-0.00000158,-0.00015553,-0.00002648,-0.00006920,-0.00010859,0.000071
 03,-0.00003821,0.00004025,-0.00003570,0.00000423,0.00000484,-0.0000020
 7,-0.00000083,-0.00000272,-0.00000276,-0.00000084,-0.00009073,-0.00008
 705,0.00009433,0.00000008,-0.00000007,-0.00000034,0.00017890,-0.000431
 03,0.00004591,-0.00000365,-0.00000829,0.00000112,0.00009819,0.00008453
 ,0.00003291,0.00005551,-0.00005997,-0.00000936,0.00002201,-0.00005105,
 0.00002860,0.00000419,0.00000062,-0.00000186,-0.00029982,-0.00158202,0
 .00009325,-0.00002061,-0.00000054,0.00000257,-0.00004754,-0.00001329,-
 0.00006355,0.00002941,0.00004332,0.00002846,-0.00001755,-0.00005498,-0
 .00002162,0.00013332,0.00003460,-0.00009220,-0.00003416,-0.00005902,0.
 00004702,-0.00013844,-0.00013556,-0.00009566,0.00007641,0.00017620,0.0
 0017173,-0.00003589,0.00001795,0.00001554,-0.00000596,-0.00000900,0.00
 000383,-0.00000031,-0.00000824,0.00000410,-0.00000130,-0.00001607,0.00
 002022,0.00003651,-0.00002664,0.00002242,-0.00000400,-0.00000180,-0.00
 000480,-0.00000756,-0.00000013,-0.00000426,-0.18958641,-0.35748541,0.1
 3664534,0.01037304,0.00924990,-0.00711685,0.17829204,0.34745335,-0.000
 01279,-0.00000850,-0.00000307,-0.00000935,-0.00002134,0.00001962,-0.00
 001662,-0.00000511,-0.00004057,-0.00018470,-0.00003429,0.00003581,-0.0
 0007254,0.00004859,0.00004033,-0.00000006,-0.00002844,-0.00000276,-0.0
 0000651,-0.00000756,0.00000170,-0.00001154,-0.00000414,0.00000084,-0.0
 0000806,0.00001926,0.00000848,-0.00000250,-0.00001319,0.00000291,0.000
 84219,-0.00017897,0.00010571,0.00004573,-0.00005291,0.00001856,-0.0002
 0410,0.00013898,-0.00002962,0.00000734,-0.00000635,0.00002062,0.000092
 06,-0.00000398,-0.00003768,-0.00002556,0.00001657,-0.00000073,-0.00170
 877,0.00026979,0.00039997,-0.00011691,0.00003251,0.00001386,0.00058095
 ,-0.00026084,-0.00029131,-0.00038780,0.00018704,0.00005447,0.00001439,
 -0.00002138,-0.00000838,0.00000644,-0.00042651,0.00038269,-0.00006599,
 0.00019619,0.00034414,-0.00010222,-0.00012707,-0.00009121,-0.00026746,
 0.00042842,-0.00096783,-0.00004916,0.00003152,0.00006807,-0.00002636,-
 0.00001639,0.00000140,-0.00000918,-0.00000485,0.00001734,0.00000905,0.
 00002081,-0.00002500,0.00014979,0.00007250,-0.00001041,-0.00001456,0.0
 0000808,0.00002342,-0.00000994,-0.00000501,-0.00001350,0.08165696,0.10
 549794,-0.06465433,0.01489613,0.02328375,-0.00758108,-0.09604141,-0.12
 849742,0.07510038,0.00005492,-0.00018476,-0.00000377,-0.00012074,0.000
 12234,0.00004935,0.00002493,-0.00072671,0.00004353,-0.00210087,-0.0004
 4468,-0.00006276,-0.00013862,0.00044092,-0.00003610,-0.00027360,-0.000
 11235,0.00005850,-0.00003329,-0.00003148,0.00000737,-0.00007185,-0.000
 03813,0.00000665,0.00006866,0.00027016,-0.00001499,-0.00001571,-0.0000
 6351,0.00002480,0.00870727,-0.00502828,0.00114542,0.00021580,0.0000603
 3,-0.00012586,0.00004150,0.00206083,0.00040548,0.00018329,-0.00040399,
 0.00003326,0.00012908,0.00000738,0.00002142,-0.00009392,0.00006484,0.0
 0000012,-0.01635468,-0.00773652,0.01236088,-0.00034812,0.00009016,0.00
 003348,-0.00142991,0.00028304,-0.00134082,0.00011662,-0.00053959,0.000
 25539,-0.00005261,0.00004974,-0.00008287,-0.00013602,-0.00051923,-0.00
 003821,0.00030450,0.00015345,-0.00023245,0.00026709,0.00030418,0.00021
 746,0.00002578,-0.00009339,0.00000843,0.00027116,0.00001953,0.00046139
 ,0.00001681,-0.00001994,-0.00015756,-0.00004691,-0.00012410,0.00016241
 ,-0.00008041,-0.00001474,-0.00006102,-0.00046878,0.00040187,-0.0004164
 6,0.00001076,-0.00000780,0.00011016,0.00003839,0.00001078,0.00004260,0
 .00192889,0.00078309,-0.00030817,-0.00098387,0.00101643,0.00040026,-0.
 00206498,-0.00226981,0.00006074,0.41350665,0.00005810,-0.00010794,0.00
 000166,-0.00008331,0.00008264,0.00001359,-0.00001224,-0.00044506,-0.00
 002878,-0.00141961,-0.00016528,0.00005790,-0.00000314,0.00028822,0.000
 00623,-0.00019744,-0.00008122,0.00003987,-0.00002270,-0.00002006,0.000
 00352,-0.00004581,-0.00002479,0.00000305,0.00008734,0.00016305,-0.0000
 5688,-0.00000636,-0.00003593,0.00001552,0.00481993,-0.00350147,0.00113
 041,0.00014821,0.00002217,-0.00000362,-0.00051117,0.00071621,0.0003779
 9,-0.00026024,0.00028961,0.00002728,0.00015308,0.00016348,-0.00016187,
 -0.00006606,0.00003370,-0.00001183,-0.01347477,0.00000820,0.00734517,-
 0.00020838,0.00007596,0.00002644,-0.00008730,-0.00027004,-0.00099697,-
 0.00028970,-0.00027463,0.00014001,0.00012175,0.00022048,0.00009244,0.0
 0031827,-0.00012786,0.00066161,-0.00005374,0.00000519,0.00025695,-0.00
 018950,-0.00048039,-0.00003624,-0.00012739,0.00031796,-0.00027751,0.00
 001361,0.00006075,0.00027072,-0.00002412,-0.00004269,-0.00005357,-0.00
 001863,-0.00005957,0.00008814,-0.00001962,0.00001681,-0.00005418,-0.00
 015792,0.00033513,-0.00026664,-0.00001712,0.00000552,0.00008040,0.0000
 3082,0.00000588,0.00003240,-0.00042434,-0.00968954,0.00118871,0.002051
 86,0.00123001,-0.00139965,-0.00326636,0.00527587,0.00065667,0.02636475
 ,0.13921245,0.00002824,0.00009136,-0.00002817,0.00014523,-0.00000495,-
 0.00003177,0.00012630,0.00042434,0.00000526,0.00183200,-0.00005187,-0.
 00020665,0.00017239,-0.00027198,-0.00000141,0.00012443,0.00009502,-0.0
 0001556,0.00004025,0.00003484,-0.00000876,0.00007629,0.00003944,-0.000
 00873,-0.00008313,-0.00024566,0.00002463,0.00001606,0.00006900,-0.0000
 2304,-0.00597913,0.00463270,-0.00079219,-0.00023401,0.00016225,-0.0000
 3119,0.00036361,-0.00117377,-0.00016031,-0.00012330,0.00013683,-0.0000
 7423,-0.00034359,0.00001419,0.00007114,0.00011247,-0.00007328,0.000004
 70,0.01708520,0.00601102,-0.00601816,0.00047111,-0.00013108,-0.0000387
 8,-0.00010309,0.00044226,0.00188753,0.00046558,-0.00057319,-0.00027030
 ,0.00008009,0.00048921,0.00029720,-0.00123293,-0.00056087,-0.00110710,
 0.00025597,0.00033790,-0.00062703,0.00110731,0.00097353,0.00014552,0.0
 0015227,-0.00046000,0.00014533,0.00012608,-0.00009001,-0.00022632,0.00
 006497,0.00007282,0.00005918,0.00001475,0.00008174,-0.00009652,0.00002
 296,0.00000790,0.00007290,-0.00033681,-0.00011930,-0.00002689,0.000028
 51,-0.00001805,-0.00009659,0.00007441,0.00001628,0.00006708,0.00027261
 ,0.00113617,0.00242940,0.00011771,-0.00130034,-0.00093993,-0.00053570,
 0.00052698,-0.00359138,-0.00624505,-0.25384753,0.51952567,0.00001232,-
 0.00000430,0.00001138,-0.00001004,0.00001586,-0.00001213,-0.00001362,-
 0.00005474,-0.00000547,-0.00018454,0.00002745,0.00004640,-0.00000636,0
 .00004340,0.00001222,-0.00001591,-0.00000659,-0.00000773,-0.00000160,-
 0.00000047,0.00000073,-0.00000474,-0.00000374,-0.00000038,0.00000401,0
 .00000893,-0.00000332,-0.00000135,-0.00000182,0.00000147,0.00018941,-0
 .00048495,0.00007608,0.00000819,0.00001361,0.00001790,-0.00010024,-0.0
 0004124,0.00007007,-0.00013603,0.00014824,0.00012162,0.00002580,0.0000
 3138,-0.00005363,-0.00000511,0.00000033,-0.00000248,-0.00211833,-0.000
 51612,0.00033979,-0.00000384,0.00000600,0.00000175,-0.00012511,0.00006
 430,-0.00026457,-0.00000237,-0.00000686,-0.00001700,-0.00000563,-0.000
 01094,0.00000424,-0.00009040,-0.00017587,-0.00008569,0.00006279,0.0000
 4578,-0.00006182,0.00010529,0.00017234,0.00004774,-0.00002251,-0.00001
 462,0.00001942,0.00005465,0.00000359,0.00002479,0.00000734,0.00000871,
 -0.00001019,-0.00000411,-0.00000760,0.00000526,-0.00000333,-0.00000312
 ,-0.00000046,0.00001374,0.00000884,-0.00000565,0.00000267,0.00000047,0
 .00000739,-0.00000425,-0.00000131,-0.00000858,0.00011443,-0.00002657,0
 .00007314,-0.00002800,0.00013182,0.00005560,-0.00022150,-0.00013785,-0
 .00033883,-0.11978043,0.08604257,-0.18429323,0.10892427,-0.00000010,0.
 00000251,0.00000232,-0.00000103,0.00000362,-0.00000450,-0.00000475,-0.
 00000650,-0.00000300,0.00001508,0.00003631,0.00000166,-0.00000088,-0.0
 0000133,0.00000082,0.00000534,0.00000110,-0.00000119,0.00000117,0.0000
 0081,-0.00000030,0.00000112,-0.00000033,-0.00000074,0.00000052,-0.0000
 0690,0.00000013,-0.00000022,0.00000139,-0.00000009,-0.00042916,-0.0000
 4318,0.00013116,-0.00000908,0.00000340,0.00000145,-0.00001927,-0.00003
 232,-0.00000473,0.00007452,0.00002229,-0.00003268,-0.00001249,0.000003
 48,0.00000561,0.00000372,-0.00000162,0.00000005,-0.00028633,0.00026201
 ,-0.00037906,0.00001370,-0.00000485,-0.00000082,-0.00000630,0.00002469
 ,0.00001617,0.00001596,-0.00007463,-0.00004218,0.00000544,0.00005391,0
 .00001718,-0.00009145,-0.00011925,-0.00011780,0.00002182,0.00008578,-0
 .00002126,0.00015136,0.00003128,0.00009246,0.00000368,0.00008605,-0.00
 002299,0.00002939,-0.00000138,-0.00000576,0.00000605,0.00000899,-0.000
 00232,0.00000257,0.00000650,-0.00000234,0.00000232,0.00000473,0.000000
 20,-0.00003544,0.00000839,-0.00001995,0.00000302,-0.00000201,-0.000002
 47,0.00000967,0.00000255,0.00000963,-0.00038884,-0.00060755,-0.0005883
 1,0.00019269,0.00007907,0.00011772,0.00055414,-0.00013331,0.00136898,0
 .06258565,-0.08091502,0.16832293,-0.07151555,0.08664117,0.00000525,-0.
 00000707,0.00000461,0.00000265,-0.00000303,0.00000759,0.00000535,-0.00
 000236,0.00000032,-0.00002148,-0.00009565,-0.00006535,-0.00002348,0.00
 002413,0.00002029,-0.00001101,-0.00001408,-0.00000529,-0.00000257,-0.0
 0000135,0.00000157,-0.00000290,-0.00000024,-0.00000008,0.00000695,0.00
 001333,-0.00000256,-0.00000112,-0.00000445,0.00000143,0.00057478,0.000
 18846,-0.00008874,-0.00000720,-0.00000622,-0.00001494,0.00004410,0.000
 25973,0.00000283,0.00017790,-0.00018403,-0.00007391,0.00001381,-0.0000
 7774,0.00005593,-0.00000816,0.00000627,0.00000400,0.00012389,-0.000347
 44,0.00075729,-0.00003563,0.00000379,0.00000300,-0.00013894,0.00006268
 ,-0.00002102,0.00002470,-0.00008904,0.00001034,-0.00001706,0.00002022,
 0.00000455,-0.00016431,-0.00023103,0.00004513,0.00007203,0.00006407,-0
 .00002979,0.00012284,0.00014982,-0.00008216,-0.00000950,0.00001255,0.0
 0000363,0.00003916,-0.00000728,0.00003773,0.00000301,0.00000125,-0.000
 01151,-0.00000853,-0.00001121,0.00001347,-0.00000690,-0.00000322,-0.00
 000460,-0.00006997,0.00002996,-0.00004203,0.00000322,-0.00000193,0.000
 00697,0.00000532,0.00000289,0.00001068,-0.00028540,-0.00108314,0.00007
 152,0.00012676,0.00010314,-0.00009498,0.00009457,0.00113222,0.00028390
 ,-0.13763817,0.17099627,-0.36295232,0.15431566,-0.17975865,0.38216097,
 -0.00007619,0.00028273,-0.00001827,0.00015611,-0.00014424,-0.00003281,
 0.00001025,0.00093728,-0.00002049,0.00307872,0.00102386,-0.00035506,0.
 00028777,-0.00058161,0.00003638,0.00043393,0.00017969,-0.00006987,0.00
 005853,0.00004827,-0.00001276,0.00011153,0.00005403,-0.00000312,-0.000
 09086,-0.00040670,0.00001709,0.00002507,0.00009961,-0.00004698,-0.0171
 4449,0.00516938,0.00077331,-0.00023827,0.00000448,0.00009566,0.0001205
 6,-0.00324161,-0.00071712,-0.00026163,0.00078425,0.00011308,-0.0003821
 4,-0.00007107,-0.00008875,0.00018951,-0.00010812,0.00001894,0.01121899
 ,0.00481805,-0.00758484,0.00058893,-0.00014878,-0.00004428,0.00272024,
 -0.00046837,0.00219293,-0.00026583,0.00115464,-0.00045832,-0.00002318,
 -0.00025745,0.00002532,0.00020911,0.00078217,-0.00030150,-0.00051077,-
 0.00020823,0.00050931,-0.00085237,-0.00055950,-0.00042539,-0.00014851,
 0.00027018,-0.00010624,-0.00052264,-0.00008313,-0.00087642,-0.00002911
 ,0.00003134,0.00026747,0.00009647,0.00022866,-0.00028540,0.00013563,0.
 00002754,0.00009296,0.00091904,-0.00072254,0.00072497,-0.00001290,0.00
 000705,-0.00020280,-0.00009187,-0.00003099,-0.00010989,-0.00128792,-0.
 00189294,0.00046524,0.00258783,-0.00066172,-0.00131374,-0.00095272,0.0
 0363844,0.00133118,-0.28131681,-0.09922332,0.17613318,0.01336448,0.009
 10196,-0.01730959,0.26789552,-0.00014508,0.00020954,-0.00001083,0.0001
 2843,-0.00018012,0.00001028,0.00000150,0.00084963,0.00006142,0.0027343
 6,0.00046160,-0.00032969,0.00007660,-0.00058970,0.00005395,0.00038462,
 0.00018542,-0.00009864,0.00003374,0.00003272,-0.00000545,0.00007629,0.
 00004279,0.00000059,-0.00008666,-0.00020356,0.00005078,0.00001540,0.00
 005896,-0.00002891,-0.00841503,0.00651621,-0.00178420,-0.00022353,-0.0
 0011641,0.00000194,0.00143631,-0.00134407,-0.00108295,0.00052528,-0.00
 063140,-0.00000040,-0.00031231,-0.00037674,0.00027795,0.00010278,-0.00
 005723,0.00002697,0.01124885,-0.00843823,-0.00245430,0.00032897,-0.000
 12046,-0.00003594,0.00074954,0.00030488,0.00175065,0.00021200,0.000677
 79,-0.00043548,-0.00019303,-0.00037238,-0.00009522,0.00006578,0.000619
 67,-0.00018694,-0.00017460,-0.00023421,-0.00013164,-0.00026834,0.00004
 832,-0.00005815,0.00022185,-0.00041043,0.00032866,-0.00018709,-0.00012
 491,-0.00057645,0.00001983,0.00004410,0.00010230,0.00004519,0.00012879
 ,-0.00018316,0.00004598,-0.00001247,0.00007965,0.00054678,-0.00067465,
 0.00056392,0.00000473,-0.00000629,-0.00015900,-0.00006426,-0.00002493,
 -0.00006603,-0.00087910,0.00214798,0.00111600,-0.00089239,-0.00504512,
 0.00013127,0.00315978,-0.00215889,-0.00255337,-0.07673051,-0.05228780,
 0.07480317,-0.01375937,-0.00541984,0.00885841,0.08016672,0.06650142,-0
 .00005704,-0.00012774,0.00004326,-0.00022328,-0.00001270,-0.00000531,-
 0.00021407,-0.00056206,0.00007873,-0.00265025,0.00011417,0.00087535,-0
 .00027793,0.00032006,-0.00005534,-0.00017807,-0.00012358,0.00004364,-0
 .00005968,-0.00004949,0.00001214,-0.00011138,-0.00005557,0.00001256,0.
 00009210,0.00032553,-0.00002891,-0.00001977,-0.00009992,0.00003026,0.0
 0902226,-0.00610125,0.00048525,0.00033267,-0.00026604,0.00007506,-0.00
 086159,0.00145227,-0.00000902,-0.00000995,-0.00006210,0.00016765,0.000
 46555,0.00014492,-0.00011652,-0.00018215,0.00010347,-0.00002006,-0.011
 82305,-0.00128862,-0.00200457,-0.00067436,0.00018671,0.00005287,-0.000
 44496,-0.00010002,-0.00383044,-0.00069307,0.00030694,-0.00005773,-0.00
 006011,-0.00045359,-0.00029757,0.00021900,0.00017051,0.00011605,0.0001
 2080,-0.00012605,0.00031426,-0.00081936,-0.00025261,-0.00027302,-0.000
 25112,0.00036439,-0.00018060,0.00010331,0.00012866,0.00042998,-0.00004
 109,-0.00004450,-0.00013169,-0.00004739,-0.00015538,0.00015307,-0.0000
 6403,-0.00002542,-0.00009132,0.00051069,0.00025157,0.00002330,-0.00004
 375,0.00001668,0.00013133,-0.00007049,-0.00001801,-0.00006131,0.000547
 68,0.00130370,-0.00145745,-0.00117959,0.00098628,0.00200636,0.00128315
 ,-0.00291501,0.00040462,0.13085520,0.07368229,-0.14736221,0.02991850,0
 .01092268,-0.02001847,-0.15241340,-0.07794119,0.17054579\\-0.00000030,
 0.00000189,0.00000119,-0.00000127,-0.00000020,0.00000389,-0.00000143,0
 .00000826,0.00000059,-0.00000716,-0.00000339,-0.00000078,0.00000781,-0
 .00000800,0.00000257,-0.00000347,0.00000245,0.00000294,-0.00000082,0.0
 0000144,0.00000184,-0.00000044,0.00000158,0.00000481,-0.00001758,0.000
 00320,-0.00000543,-0.00000171,0.00000069,-0.00000108,-0.00002057,0.000
 01605,-0.00000493,0.00000117,-0.00000406,0.00000746,-0.00000824,0.0000
 0569,0.00000631,-0.00000241,0.00000124,0.00000567,0.00001107,-0.000001
 72,0.00000394,-0.00000024,0.00000106,0.00000584,0.00004483,-0.00001135
 ,0.00001832,0.00000036,0.00000151,0.00000668,-0.00000544,-0.00000426,-
 0.00001360,-0.00003047,0.00001177,0.00000077,0.00000023,-0.00000273,-0
 .00000154,0.00000346,-0.00000051,-0.00000120,0.00000226,-0.00000507,-0
 .00000534,-0.00000122,-0.00000159,-0.00000530,0.00000183,-0.00000108,-
 0.00000925,0.00000123,-0.00000188,0.00000258,0.00000303,0.00000025,0.0
 0000197,0.00000552,-0.00000643,-0.00000284,-0.00000209,-0.00000242,-0.
 00000540,0.00003017,-0.00000998,0.00000109,0.00000129,-0.00000344,-0.0
 0000089,0.00000228,0.00000056,-0.00000088,0.00001308,0.00000845,-0.000
 00849,0.00001106,0.00000764,-0.00000483,-0.00003103,0.00000351,0.00000
 267,-0.00000890,-0.00001570,0.00000038,0.00000440,0.00000255,-0.000004
 71,-0.00000027,0.00000402,-0.00000503\\\@


 A COMPUTER IS LIKE A HORSE, IT WILL SENSE WEAKNESS.
     -- GREG WETTSTEIN
 Job cpu time:       0 days  6 hours 39 minutes 33.4 seconds.
 File lengths (MBytes):  RWF=    823 Int=      0 D2E=      0 Chk=     22 Scr=      1
 Normal termination of Gaussian 09 at Thu Aug 27 23:30:22 2020.
