 Entering Gaussian System, Link 0=g09
 Input=CH2NO2H_opt.com
 Output=CH2NO2H_opt.log
 Initial command:
 /apps/applications/gaussian/G09.D01/2/default/g09/l1.exe "/nobackup/chmbnn/Gau-61600.inp" -scrdir="/nobackup/chmbnn/"
 Entering Link 1 = /apps/applications/gaussian/G09.D01/2/default/g09/l1.exe PID=     61601.
  
 Copyright (c) 1988,1990,1992,1993,1995,1998,2003,2009,2013,
            Gaussian, Inc.  All Rights Reserved.
  
 This is part of the Gaussian(R) 09 program.  It is based on
 the Gaussian(R) 03 system (copyright 2003, Gaussian, Inc.),
 the Gaussian(R) 98 system (copyright 1998, Gaussian, Inc.),
 the Gaussian(R) 94 system (copyright 1995, Gaussian, Inc.),
 the Gaussian 92(TM) system (copyright 1992, Gaussian, Inc.),
 the Gaussian 90(TM) system (copyright 1990, Gaussian, Inc.),
 the Gaussian 88(TM) system (copyright 1988, Gaussian, Inc.),
 the Gaussian 86(TM) system (copyright 1986, Carnegie Mellon
 University), and the Gaussian 82(TM) system (copyright 1983,
 Carnegie Mellon University). Gaussian is a federally registered
 trademark of Gaussian, Inc.
  
 This software contains proprietary and confidential information,
 including trade secrets, belonging to Gaussian, Inc.
  
 This software is provided under written license and may be
 used, copied, transmitted, or stored only in accord with that
 written license.
  
 The following legend is applicable only to US Government
 contracts under FAR:
  
                    RESTRICTED RIGHTS LEGEND
  
 Use, reproduction and disclosure by the US Government is
 subject to restrictions as set forth in subparagraphs (a)
 and (c) of the Commercial Computer Software - Restricted
 Rights clause in FAR 52.227-19.
  
 Gaussian, Inc.
 340 Quinnipiac St., Bldg. 40, Wallingford CT 06492
  
  
 ---------------------------------------------------------------
 Warning -- This program may not be used in any manner that
 competes with the business of Gaussian, Inc. or will provide
 assistance to any competitor of Gaussian, Inc.  The licensee
 of this program is prohibited from giving any competitor of
 Gaussian, Inc. access to this program.  By using this program,
 the user acknowledges that Gaussian, Inc. is engaged in the
 business of creating and licensing software in the field of
 computational chemistry and represents and warrants to the
 licensee that it is not a competitor of Gaussian, Inc. and that
 it will not use this program in any manner prohibited above.
 ---------------------------------------------------------------
  

 Cite this work as:
 Gaussian 09, Revision D.01,
 M. J. Frisch, G. W. Trucks, H. B. Schlegel, G. E. Scuseria, 
 M. A. Robb, J. R. Cheeseman, G. Scalmani, V. Barone, B. Mennucci, 
 G. A. Petersson, H. Nakatsuji, M. Caricato, X. Li, H. P. Hratchian, 
 A. F. Izmaylov, J. Bloino, G. Zheng, J. L. Sonnenberg, M. Hada, 
 M. Ehara, K. Toyota, R. Fukuda, J. Hasegawa, M. Ishida, T. Nakajima, 
 Y. Honda, O. Kitao, H. Nakai, T. Vreven, J. A. Montgomery, Jr., 
 J. E. Peralta, F. Ogliaro, M. Bearpark, J. J. Heyd, E. Brothers, 
 K. N. Kudin, V. N. Staroverov, T. Keith, R. Kobayashi, J. Normand, 
 K. Raghavachari, A. Rendell, J. C. Burant, S. S. Iyengar, J. Tomasi, 
 M. Cossi, N. Rega, J. M. Millam, M. Klene, J. E. Knox, J. B. Cross, 
 V. Bakken, C. Adamo, J. Jaramillo, R. Gomperts, R. E. Stratmann, 
 O. Yazyev, A. J. Austin, R. Cammi, C. Pomelli, J. W. Ochterski, 
 R. L. Martin, K. Morokuma, V. G. Zakrzewski, G. A. Voth, 
 P. Salvador, J. J. Dannenberg, S. Dapprich, A. D. Daniels, 
 O. Farkas, J. B. Foresman, J. V. Ortiz, J. Cioslowski, 
 and D. J. Fox, Gaussian, Inc., Wallingford CT, 2013.
 
 ******************************************
 Gaussian 09:  ES64L-G09RevD.01 24-Apr-2013
                 1-Nov-2020 
 ******************************************
 %nprocshared=4
 Will use up to    4 processors via shared memory.
 %chk=CH2NO2H_opt.chk
 ----------------------------------------------------
 # opt freq scrf=(cpcm,solvent=ethanol) def2svp m062x
 ----------------------------------------------------
 1/14=-1,18=20,19=15,26=3,38=1/1,3;
 2/9=110,12=2,17=6,18=5,40=1/2;
 3/5=43,7=101,11=2,16=1,25=1,30=1,70=2101,71=1,72=4,74=-55/1,2,3;
 4//1;
 5/5=2,38=5,53=4/2;
 6/7=2,8=2,9=2,10=2,28=1/1;
 7//1,2,3,16;
 1/14=-1,18=20,19=15,26=3/3(2);
 2/9=110/2;
 99//99;
 2/9=110/2;
 3/5=43,7=101,11=2,16=1,25=1,30=1,70=2105,71=1,72=4,74=-55/1,2,3;
 4/5=5,16=3,69=1/1;
 5/5=2,38=5,53=4/2;
 7//1,2,3,16;
 1/14=-1,18=20,19=15,26=3/3(-5);
 2/9=110/2;
 6/7=2,8=2,9=2,10=2,19=2,28=1/1;
 99/9=1/99;
 -------
 CH2NO2H
 -------
 Symbolic Z-matrix:
 Charge =  0 Multiplicity = 1
 N                     1.20229  -0.05781   0.07098 
 O                     2.17385   0.2106   -0.6185 
 O                     0.71166  -1.22737   0.01505 
 C                     0.58497   0.89063   0.85213 
 H                     1.10452   1.78855   1.11427 
 H                    -0.41494   0.73074   1.19783 
 H                     1.29294  -1.99051  -0.02145 
 

 GradGradGradGradGradGradGradGradGradGradGradGradGradGradGradGradGradGrad
 Berny optimization.
 Initialization pass.
                           ----------------------------
                           !    Initial Parameters    !
                           ! (Angstroms and Degrees)  !
 --------------------------                            --------------------------
 ! Name  Definition              Value          Derivative Info.                !
 --------------------------------------------------------------------------------
 ! R1    R(1,2)                  1.2212         estimate D2E/DX2                !
 ! R2    R(1,3)                  1.2695         estimate D2E/DX2                !
 ! R3    R(1,4)                  1.3751         estimate D2E/DX2                !
 ! R4    R(3,7)                  0.96           estimate D2E/DX2                !
 ! R5    R(4,5)                  1.07           estimate D2E/DX2                !
 ! R6    R(4,6)                  1.07           estimate D2E/DX2                !
 ! A1    A(2,1,3)              119.0172         estimate D2E/DX2                !
 ! A2    A(2,1,4)              121.7554         estimate D2E/DX2                !
 ! A3    A(3,1,4)              119.1403         estimate D2E/DX2                !
 ! A4    A(1,3,7)              120.0            estimate D2E/DX2                !
 ! A5    A(1,4,5)              120.0            estimate D2E/DX2                !
 ! A6    A(1,4,6)              120.0            estimate D2E/DX2                !
 ! A7    A(5,4,6)              120.0            estimate D2E/DX2                !
 ! D1    D(2,1,3,7)             41.064          estimate D2E/DX2                !
 ! D2    D(4,1,3,7)           -142.2705         estimate D2E/DX2                !
 ! D3    D(2,1,4,5)            -19.1663         estimate D2E/DX2                !
 ! D4    D(2,1,4,6)            160.8337         estimate D2E/DX2                !
 ! D5    D(3,1,4,5)            164.2631         estimate D2E/DX2                !
 ! D6    D(3,1,4,6)            -15.7369         estimate D2E/DX2                !
 --------------------------------------------------------------------------------
 Trust Radius=3.00D-01 FncErr=1.00D-07 GrdErr=1.00D-06
 Number of steps in this run=     29 maximum allowed number of steps=    100.
 GradGradGradGradGradGradGradGradGradGradGradGradGradGradGradGradGradGrad

                          Input orientation:                          
 ---------------------------------------------------------------------
 Center     Atomic      Atomic             Coordinates (Angstroms)
 Number     Number       Type             X           Y           Z
 ---------------------------------------------------------------------
      1          7           0        1.202294   -0.057814    0.070981
      2          8           0        2.173845    0.210596   -0.618495
      3          8           0        0.711659   -1.227368    0.015048
      4          6           0        0.584969    0.890630    0.852132
      5          1           0        1.104516    1.788545    1.114274
      6          1           0       -0.414943    0.730736    1.197834
      7          1           0        1.292941   -1.990506   -0.021448
 ---------------------------------------------------------------------
                    Distance matrix (angstroms):
                    1          2          3          4          5
     1  N    0.000000
     2  O    1.221201   0.000000
     3  O    1.269531   2.146417   0.000000
     4  C    1.375076   2.269299   2.280937   0.000000
     5  H    2.122985   2.576020   3.233940   1.070000   0.000000
     6  H    2.122985   3.204906   2.549978   1.070000   1.853294
     7  H    1.937023   2.444853   0.960000   3.092784   3.950518
                    6          7
     6  H    0.000000
     7  H    3.436375   0.000000
 Stoichiometry    CH3NO2
 Framework group  C1[X(CH3NO2)]
 Deg. of freedom    15
 Full point group                 C1      NOp   1
 Largest Abelian subgroup         C1      NOp   1
 Largest concise Abelian subgroup C1      NOp   1
                         Standard orientation:                         
 ---------------------------------------------------------------------
 Center     Atomic      Atomic             Coordinates (Angstroms)
 Number     Number       Type             X           Y           Z
 ---------------------------------------------------------------------
      1          7           0        0.000192    0.058467    0.001147
      2          8           0        0.307794    1.239679   -0.036935
      3          8           0        0.917261   -0.818386   -0.041516
      4          6           0       -1.313618   -0.347018    0.019040
      5          1           0       -2.081900    0.340625    0.305029
      6          1           0       -1.567662   -1.350183   -0.253026
      7          1           0        1.729483   -0.687946    0.453338
 ---------------------------------------------------------------------
 Rotational constants (GHZ):     12.7720010     11.0089372      5.9696235
 Standard basis: def2SVP (5D, 7F)
 There are    75 symmetry adapted cartesian basis functions of A   symmetry.
 There are    71 symmetry adapted basis functions of A   symmetry.
    71 basis functions,   121 primitive gaussians,    75 cartesian basis functions
    16 alpha electrons       16 beta electrons
       nuclear repulsion energy       126.8910484633 Hartrees.
 NAtoms=    7 NActive=    7 NUniq=    7 SFac= 1.00D+00 NAtFMM=   60 NAOKFM=F Big=F
 Integral buffers will be    131072 words long.
 Raffenetti 2 integral format.
 Two-electron integral symmetry is turned on.
 ------------------------------------------------------------------------------
 Polarizable Continuum Model (PCM)
 =================================
 Model                : C-PCM.
 Atomic radii         : UFF (Universal Force Field).
 Polarization charges : Total charges.
 Charge compensation  : None.
 Solution method      : On-the-fly selection.
 Cavity type          : Scaled VdW (van der Waals Surface) (Alpha=1.100).
 Cavity algorithm     : GePol (No added spheres)
                        Default sphere list used, NSphG=    7.
                        Lebedev-Laikov grids with approx.  5.0 points / Ang**2.
                        Smoothing algorithm: Karplus/York (Gamma=1.0000).
                        Polarization charges: spherical gaussians, with
                                              point-specific exponents (IZeta= 3).
                        Self-potential: point-specific (ISelfS= 7).
                        Self-field    : sphere-specific E.n sum rule (ISelfD= 2).
 1st derivatives      : Analytical E(r).r(x)/FMM algorithm (CHGder, D1EAlg=3).
                        Cavity 1st derivative terms included.
 Solvent              : Ethanol, Eps=  24.852000 Eps(inf)=   1.852593
 ------------------------------------------------------------------------------
 Spheres list:
 ISph  on   Nord     Re0    Alpha      Xe            Ye            Ze
    1   N      1    1.8300  1.100      0.000192      0.058467      0.001147
    2   O      2    1.7500  1.100      0.307794      1.239679     -0.036935
    3   O      3    1.7500  1.100      0.917261     -0.818386     -0.041516
    4   C      4    1.9255  1.100     -1.313618     -0.347018      0.019040
    5   H      5    1.4430  1.100     -2.081900      0.340625      0.305029
    6   H      6    1.4430  1.100     -1.567662     -1.350183     -0.253026
    7   H      7    1.4430  1.100      1.729483     -0.687946      0.453338
 ------------------------------------------------------------------------------
 One-electron integrals computed using PRISM.
   1 Symmetry operations used in ECPInt.
 ECPInt:  NShTT=     561 NPrTT=    2077 LenC2=     562 LenP2D=    1814.
 LDataN:  DoStor=T MaxTD1= 4 Len=   56
 NBasis=    71 RedAO= T EigKep=  6.38D-03  NBF=    71
 NBsUse=    71 1.00D-06 EigRej= -1.00D+00 NBFU=    71
 ExpMin= 1.22D-01 ExpMax= 2.27D+03 ExpMxC= 3.41D+02 IAcc=1 IRadAn=         1 AccDes= 0.00D+00
 Harris functional with IExCor= 1009 and IRadAn=       1 diagonalized for initial guess.
 HarFok:  IExCor= 1009 AccDes= 0.00D+00 IRadAn=         1 IDoV= 1 UseB2=F ITyADJ=14
 ICtDFT=  3500011 ScaDFX=  1.000000  1.000000  1.000000  1.000000
 FoFCou: FMM=F IPFlag=           0 FMFlag=      100000 FMFlg1=           0
         NFxFlg=           0 DoJE=T BraDBF=F KetDBF=T FulRan=T
         wScrn=  0.000000 ICntrl=     500 IOpCl=  0 I1Cent=   200000004 NGrid=           0
         NMat0=    1 NMatS0=      1 NMatT0=    0 NMatD0=    1 NMtDS0=    0 NMtDT0=    0
 Petite list used in FoFCou.
 Keep R1 ints in memory in canonical form, NReq=6906281.
 Requested convergence on RMS density matrix=1.00D-08 within 128 cycles.
 Requested convergence on MAX density matrix=1.00D-06.
 Requested convergence on             energy=1.00D-06.
 No special actions if energy rises.
 Inv3:  Mode=1 IEnd=     1801875.
 Iteration    1 A*A^-1 deviation from unit magnitude is 3.33D-15 for    745.
 Iteration    1 A*A^-1 deviation from orthogonality  is 2.33D-15 for    660    243.
 Iteration    1 A^-1*A deviation from unit magnitude is 3.11D-15 for    745.
 Iteration    1 A^-1*A deviation from orthogonality  is 2.16D-15 for    771      1.
 Error on total polarization charges =  0.00350
 SCF Done:  E(RM062X) =  -244.665645820     A.U. after   13 cycles
            NFock= 13  Conv=0.27D-08     -V/T= 2.0067

 **********************************************************************

            Population analysis using the SCF density.

 **********************************************************************

 Orbital symmetries:
       Occupied  (A) (A) (A) (A) (A) (A) (A) (A) (A) (A) (A) (A)
                 (A) (A) (A) (A)
       Virtual   (A) (A) (A) (A) (A) (A) (A) (A) (A) (A) (A) (A)
                 (A) (A) (A) (A) (A) (A) (A) (A) (A) (A) (A) (A)
                 (A) (A) (A) (A) (A) (A) (A) (A) (A) (A) (A) (A)
                 (A) (A) (A) (A) (A) (A) (A) (A) (A) (A) (A) (A)
                 (A) (A) (A) (A) (A) (A) (A)
 The electronic state is 1-A.
 Alpha  occ. eigenvalues --  -19.70478 -19.62579 -14.98257 -10.58877  -1.35413
 Alpha  occ. eigenvalues --   -1.17082  -0.92977  -0.77588  -0.64114  -0.62138
 Alpha  occ. eigenvalues --   -0.60453  -0.50627  -0.48470  -0.42511  -0.36509
 Alpha  occ. eigenvalues --   -0.27744
 Alpha virt. eigenvalues --    0.00245   0.09873   0.14866   0.17474   0.22936
 Alpha virt. eigenvalues --    0.30648   0.36669   0.48565   0.54325   0.56520
 Alpha virt. eigenvalues --    0.59678   0.62384   0.71959   0.72526   0.74364
 Alpha virt. eigenvalues --    0.81174   0.96162   0.98321   0.99973   1.04457
 Alpha virt. eigenvalues --    1.07822   1.11987   1.18507   1.20410   1.23737
 Alpha virt. eigenvalues --    1.30091   1.38011   1.50203   1.55086   1.63516
 Alpha virt. eigenvalues --    1.70057   1.80446   1.86601   1.92492   1.96664
 Alpha virt. eigenvalues --    2.05402   2.20602   2.28208   2.34286   2.39283
 Alpha virt. eigenvalues --    2.43415   2.54459   2.62971   2.72161   2.79353
 Alpha virt. eigenvalues --    2.79897   2.94337   2.96996   3.13915   3.22214
 Alpha virt. eigenvalues --    3.27856   3.39591   3.67007   3.76654   3.86445
          Condensed to atoms (all electrons):
               1          2          3          4          5          6
     1  N    5.838946   0.289143   0.174142   0.530696  -0.012266  -0.016079
     2  O    0.289143   8.288802  -0.100639  -0.084566  -0.001135   0.004668
     3  O    0.174142  -0.100639   7.853757  -0.078605   0.004038   0.002207
     4  C    0.530696  -0.084566  -0.078605   4.871841   0.402341   0.393357
     5  H   -0.012266  -0.001135   0.004038   0.402341   0.552091  -0.033543
     6  H   -0.016079   0.004668   0.002207   0.393357  -0.033543   0.569933
     7  H   -0.011541   0.008720   0.327898   0.003790  -0.000222  -0.000881
               7
     1  N   -0.011541
     2  O    0.008720
     3  O    0.327898
     4  C    0.003790
     5  H   -0.000222
     6  H   -0.000881
     7  H    0.421586
 Mulliken charges:
               1
     1  N    0.206960
     2  O   -0.404993
     3  O   -0.182797
     4  C   -0.038853
     5  H    0.088696
     6  H    0.080338
     7  H    0.250650
 Sum of Mulliken charges =   0.00000
 Mulliken charges with hydrogens summed into heavy atoms:
               1
     1  N    0.206960
     2  O   -0.404993
     3  O    0.067853
     4  C    0.130180
 Electronic spatial extent (au):  <R**2>=            223.5464
 Charge=              0.0000 electrons
 Dipole moment (field-independent basis, Debye):
    X=              0.4914    Y=             -2.6562    Z=              1.1514  Tot=              2.9365
 Quadrupole moment (field-independent basis, Debye-Ang):
   XX=            -16.1524   YY=            -26.8023   ZZ=            -23.2012
   XY=             -1.5743   XZ=              1.7861   YZ=             -0.0881
 Traceless Quadrupole moment (field-independent basis, Debye-Ang):
   XX=              5.8996   YY=             -4.7503   ZZ=             -1.1492
   XY=             -1.5743   XZ=              1.7861   YZ=             -0.0881
 Octapole moment (field-independent basis, Debye-Ang**2):
  XXX=             11.6216  YYY=             -5.1634  ZZZ=              0.5102  XYY=             -0.4152
  XXY=             -3.8117  XXZ=              4.4903  XZZ=              4.3359  YZZ=              0.2168
  YYZ=              0.1535  XYZ=             -2.4956
 Hexadecapole moment (field-independent basis, Debye-Ang**3):
 XXXX=           -105.6949 YYYY=           -109.4460 ZZZZ=            -21.1759 XXXY=            -11.3339
 XXXZ=              4.5026 YYYX=             -1.6633 YYYZ=              0.4931 ZZZX=              1.3397
 ZZZY=             -0.1650 XXYY=            -36.0701 XXZZ=            -26.7007 YYZZ=            -21.0992
 XXYZ=             -0.7470 YYXZ=              2.0935 ZZXY=             -2.0839
 N-N= 1.268910484633D+02 E-N=-8.280219815912D+02  KE= 2.430303074348D+02
   1 Symmetry operations used in ECPInt.
 ECPInt:  NShTT=     561 NPrTT=    2077 LenC2=     562 LenP2D=    1814.
 LDataN:  DoStor=T MaxTD1= 5 Len=  102
 D1PCM: C-PCM CHGder 1st derivatives, ID1Alg=3 FixD1E=F DoIter=F DoCFld=F I1PDM=0.
 Calling FoFJK, ICntrl=      2127 FMM=F ISym2X=0 I1Cent= 0 IOpClX= 0 NMat=1 NMatS=1 NMatT=0.
 ***** Axes restored to original set *****
 -------------------------------------------------------------------
 Center     Atomic                   Forces (Hartrees/Bohr)
 Number     Number              X              Y              Z
 -------------------------------------------------------------------
      1        7           0.006215787    0.120731778    0.043333641
      2        8           0.027027390   -0.008563972   -0.007472510
      3        8          -0.075519982   -0.058953829    0.001384558
      4        6           0.016102957   -0.056409878   -0.029807781
      5        1           0.009962960    0.010392227   -0.011951785
      6        1          -0.008244667   -0.012763909    0.008710942
      7        1           0.024455555    0.005567583   -0.004197065
 -------------------------------------------------------------------
 Cartesian Forces:  Max     0.120731778 RMS     0.039137394

 GradGradGradGradGradGradGradGradGradGradGradGradGradGradGradGradGradGrad
 Berny optimization.
 FormGI is forming the generalized inverse of G from B-inverse, IUseBI=4.
 Internal  Forces:  Max     0.069046697 RMS     0.026578391
 Search for a local minimum.
 Step number   1 out of a maximum of   29
 All quantities printed in internal units (Hartrees-Bohrs-Radians)
 Mixed Optimization -- RFO/linear search
 Second derivative matrix not updated -- first step.
 The second derivative matrix:
                          R1        R2        R3        R4        R5
           R1           0.94853
           R2           0.00000   0.76419
           R3           0.00000   0.00000   0.50014
           R4           0.00000   0.00000   0.00000   0.55473
           R5           0.00000   0.00000   0.00000   0.00000   0.37230
           R6           0.00000   0.00000   0.00000   0.00000   0.00000
           A1           0.00000   0.00000   0.00000   0.00000   0.00000
           A2           0.00000   0.00000   0.00000   0.00000   0.00000
           A3           0.00000   0.00000   0.00000   0.00000   0.00000
           A4           0.00000   0.00000   0.00000   0.00000   0.00000
           A5           0.00000   0.00000   0.00000   0.00000   0.00000
           A6           0.00000   0.00000   0.00000   0.00000   0.00000
           A7           0.00000   0.00000   0.00000   0.00000   0.00000
           D1           0.00000   0.00000   0.00000   0.00000   0.00000
           D2           0.00000   0.00000   0.00000   0.00000   0.00000
           D3           0.00000   0.00000   0.00000   0.00000   0.00000
           D4           0.00000   0.00000   0.00000   0.00000   0.00000
           D5           0.00000   0.00000   0.00000   0.00000   0.00000
           D6           0.00000   0.00000   0.00000   0.00000   0.00000
                          R6        A1        A2        A3        A4
           R6           0.37230
           A1           0.00000   0.25000
           A2           0.00000   0.00000   0.25000
           A3           0.00000   0.00000   0.00000   0.25000
           A4           0.00000   0.00000   0.00000   0.00000   0.16000
           A5           0.00000   0.00000   0.00000   0.00000   0.00000
           A6           0.00000   0.00000   0.00000   0.00000   0.00000
           A7           0.00000   0.00000   0.00000   0.00000   0.00000
           D1           0.00000   0.00000   0.00000   0.00000   0.00000
           D2           0.00000   0.00000   0.00000   0.00000   0.00000
           D3           0.00000   0.00000   0.00000   0.00000   0.00000
           D4           0.00000   0.00000   0.00000   0.00000   0.00000
           D5           0.00000   0.00000   0.00000   0.00000   0.00000
           D6           0.00000   0.00000   0.00000   0.00000   0.00000
                          A5        A6        A7        D1        D2
           A5           0.16000
           A6           0.00000   0.16000
           A7           0.00000   0.00000   0.16000
           D1           0.00000   0.00000   0.00000   0.03021
           D2           0.00000   0.00000   0.00000   0.00000   0.03021
           D3           0.00000   0.00000   0.00000   0.00000   0.00000
           D4           0.00000   0.00000   0.00000   0.00000   0.00000
           D5           0.00000   0.00000   0.00000   0.00000   0.00000
           D6           0.00000   0.00000   0.00000   0.00000   0.00000
                          D3        D4        D5        D6
           D3           0.02021
           D4           0.00000   0.02021
           D5           0.00000   0.00000   0.02021
           D6           0.00000   0.00000   0.00000   0.02021
 ITU=  0
     Eigenvalues ---    0.02021   0.02021   0.02355   0.03021   0.16000
     Eigenvalues ---    0.16000   0.16000   0.24982   0.25000   0.37230
     Eigenvalues ---    0.37230   0.50014   0.55473   0.76419   0.94853
 RFO step:  Lambda=-3.53512199D-02 EMin= 2.02148159D-02
 Linear search not attempted -- first point.
 Iteration  1 RMS(Cart)=  0.10131590 RMS(Int)=  0.00686541
 Iteration  2 RMS(Cart)=  0.00873658 RMS(Int)=  0.00027958
 Iteration  3 RMS(Cart)=  0.00004505 RMS(Int)=  0.00027596
 Iteration  4 RMS(Cart)=  0.00000000 RMS(Int)=  0.00027596
 Variable       Old X    -DE/DX   Delta X   Delta X   Delta X     New X
                                 (Linear)    (Quad)   (Total)
    R1        2.30774   0.02384   0.00000   0.02423   0.02423   2.33196
    R2        2.39907   0.06905   0.00000   0.08636   0.08636   2.48542
    R3        2.59852  -0.06732   0.00000  -0.12571  -0.12571   2.47280
    R4        1.81414   0.01054   0.00000   0.01785   0.01785   1.83199
    R5        2.02201   0.01064   0.00000   0.02609   0.02609   2.04810
    R6        2.02201   0.01242   0.00000   0.03047   0.03047   2.05247
    A1        2.07724  -0.00370   0.00000  -0.01249  -0.01269   2.06455
    A2        2.12503   0.02241   0.00000   0.07906   0.07888   2.20391
    A3        2.07939  -0.01860   0.00000  -0.06468  -0.06487   2.01452
    A4        2.09440  -0.04118   0.00000  -0.21081  -0.21081   1.88358
    A5        2.09440  -0.00972   0.00000  -0.04975  -0.04979   2.04461
    A6        2.09440  -0.00256   0.00000  -0.01310  -0.01313   2.08126
    A7        2.09440   0.01228   0.00000   0.06285   0.06282   2.15721
    D1        0.71670  -0.00492   0.00000  -0.07309  -0.07241   0.64429
    D2       -2.48309  -0.00211   0.00000  -0.03408  -0.03477  -2.51786
    D3       -0.33451   0.01051   0.00000   0.19017   0.19048  -0.14404
    D4        2.80708   0.00968   0.00000   0.17515   0.17546   2.98254
    D5        2.86693   0.00858   0.00000   0.15339   0.15308   3.02001
    D6       -0.27466   0.00775   0.00000   0.13837   0.13806  -0.13660
         Item               Value     Threshold  Converged?
 Maximum Force            0.069047     0.000450     NO 
 RMS     Force            0.026578     0.000300     NO 
 Maximum Displacement     0.219731     0.001800     NO 
 RMS     Displacement     0.105753     0.001200     NO 
 Predicted change in Energy=-2.127097D-02
 GradGradGradGradGradGradGradGradGradGradGradGradGradGradGradGradGradGrad

                          Input orientation:                          
 ---------------------------------------------------------------------
 Center     Atomic      Atomic             Coordinates (Angstroms)
 Number     Number       Type             X           Y           Z
 ---------------------------------------------------------------------
      1          7           0        1.197323   -0.022967    0.088309
      2          8           0        2.231751    0.158235   -0.559715
      3          8           0        0.613026   -1.198922    0.013787
      4          6           0        0.591415    0.858628    0.841948
      5          1           0        1.105759    1.796393    1.017128
      6          1           0       -0.390862    0.627683    1.243766
      7          1           0        1.306870   -1.874229   -0.034897
 ---------------------------------------------------------------------
                    Distance matrix (angstroms):
                    1          2          3          4          5
     1  N    0.000000
     2  O    1.234022   0.000000
     3  O    1.315229   2.188847   0.000000
     4  C    1.308551   2.268460   2.218069   0.000000
     5  H    2.044788   2.537292   3.197091   1.083809   0.000000
     6  H    2.068999   3.217300   2.420150   1.086122   1.912360
     7  H    1.858589   2.293850   0.969448   2.957911   3.823698
                    6          7
     6  H    0.000000
     7  H    3.282809   0.000000
 Stoichiometry    CH3NO2
 Framework group  C1[X(CH3NO2)]
 Deg. of freedom    15
 Full point group                 C1      NOp   1
 Largest Abelian subgroup         C1      NOp   1
 Largest concise Abelian subgroup C1      NOp   1
                         Standard orientation:                         
 ---------------------------------------------------------------------
 Center     Atomic      Atomic             Coordinates (Angstroms)
 Number     Number       Type             X           Y           Z
 ---------------------------------------------------------------------
      1          7           0       -0.030270    0.078141   -0.008779
      2          8           0        0.396397    1.235931   -0.025682
      3          8           0        0.839686   -0.907423   -0.049631
      4          6           0       -1.287531   -0.283270    0.022537
      5          1           0       -2.023130    0.498269    0.173309
      6          1           0       -1.542375   -1.330028   -0.115350
      7          1           0        1.613922   -0.643672    0.470775
 ---------------------------------------------------------------------
 Rotational constants (GHZ):     12.2137879     11.7245783      6.0266048
 Standard basis: def2SVP (5D, 7F)
 There are    75 symmetry adapted cartesian basis functions of A   symmetry.
 There are    71 symmetry adapted basis functions of A   symmetry.
    71 basis functions,   121 primitive gaussians,    75 cartesian basis functions
    16 alpha electrons       16 beta electrons
       nuclear repulsion energy       127.0194033167 Hartrees.
 NAtoms=    7 NActive=    7 NUniq=    7 SFac= 1.00D+00 NAtFMM=   60 NAOKFM=F Big=F
 Integral buffers will be    131072 words long.
 Raffenetti 2 integral format.
 Two-electron integral symmetry is turned on.
 ------------------------------------------------------------------------------
 Polarizable Continuum Model (PCM)
 =================================
 Model                : C-PCM.
 Atomic radii         : UFF (Universal Force Field).
 Polarization charges : Total charges.
 Charge compensation  : None.
 Solution method      : On-the-fly selection.
 Cavity type          : Scaled VdW (van der Waals Surface) (Alpha=1.100).
 Cavity algorithm     : GePol (No added spheres)
                        Default sphere list used, NSphG=    7.
                        Lebedev-Laikov grids with approx.  5.0 points / Ang**2.
                        Smoothing algorithm: Karplus/York (Gamma=1.0000).
                        Polarization charges: spherical gaussians, with
                                              point-specific exponents (IZeta= 3).
                        Self-potential: point-specific (ISelfS= 7).
                        Self-field    : sphere-specific E.n sum rule (ISelfD= 2).
 1st derivatives      : Analytical E(r).r(x)/FMM algorithm (CHGder, D1EAlg=3).
                        Cavity 1st derivative terms included.
 Solvent              : Ethanol, Eps=  24.852000 Eps(inf)=   1.852593
 ------------------------------------------------------------------------------
 Spheres list:
 ISph  on   Nord     Re0    Alpha      Xe            Ye            Ze
    1   N      1    1.8300  1.100     -0.030270      0.078141     -0.008779
    2   O      2    1.7500  1.100      0.396397      1.235931     -0.025682
    3   O      3    1.7500  1.100      0.839686     -0.907423     -0.049631
    4   C      4    1.9255  1.100     -1.287531     -0.283270      0.022537
    5   H      5    1.4430  1.100     -2.023130      0.498269      0.173309
    6   H      6    1.4430  1.100     -1.542375     -1.330028     -0.115350
    7   H      7    1.4430  1.100      1.613922     -0.643672      0.470775
 ------------------------------------------------------------------------------
 One-electron integrals computed using PRISM.
   1 Symmetry operations used in ECPInt.
 ECPInt:  NShTT=     561 NPrTT=    2077 LenC2=     561 LenP2D=    1818.
 LDataN:  DoStor=T MaxTD1= 4 Len=   56
 NBasis=    71 RedAO= T EigKep=  6.19D-03  NBF=    71
 NBsUse=    71 1.00D-06 EigRej= -1.00D+00 NBFU=    71
 Initial guess from the checkpoint file:  "CH2NO2H_opt.chk"
 B after Tr=     0.000000    0.000000    0.000000
         Rot=    0.999554    0.004402    0.001251    0.029515 Ang=   3.42 deg.
 ExpMin= 1.22D-01 ExpMax= 2.27D+03 ExpMxC= 3.41D+02 IAcc=1 IRadAn=         1 AccDes= 0.00D+00
 Harris functional with IExCor= 1009 and IRadAn=       1 diagonalized for initial guess.
 HarFok:  IExCor= 1009 AccDes= 0.00D+00 IRadAn=         1 IDoV= 1 UseB2=F ITyADJ=14
 ICtDFT=  3500011 ScaDFX=  1.000000  1.000000  1.000000  1.000000
 FoFCou: FMM=F IPFlag=           0 FMFlag=      100000 FMFlg1=           0
         NFxFlg=           0 DoJE=T BraDBF=F KetDBF=T FulRan=T
         wScrn=  0.000000 ICntrl=     500 IOpCl=  0 I1Cent=   200000004 NGrid=           0
         NMat0=    1 NMatS0=      1 NMatT0=    0 NMatD0=    1 NMtDS0=    0 NMtDT0=    0
 Petite list used in FoFCou.
 Keep R1 ints in memory in canonical form, NReq=6891033.
 Requested convergence on RMS density matrix=1.00D-08 within 128 cycles.
 Requested convergence on MAX density matrix=1.00D-06.
 Requested convergence on             energy=1.00D-06.
 No special actions if energy rises.
 Inv3:  Mode=1 IEnd=     1760268.
 Iteration    1 A*A^-1 deviation from unit magnitude is 3.55D-15 for    760.
 Iteration    1 A*A^-1 deviation from orthogonality  is 1.19D-15 for    317    232.
 Iteration    1 A^-1*A deviation from unit magnitude is 3.55D-15 for    760.
 Iteration    1 A^-1*A deviation from orthogonality  is 1.12D-15 for    633     77.
 Error on total polarization charges =  0.00341
 SCF Done:  E(RM062X) =  -244.689985154     A.U. after   13 cycles
            NFock= 13  Conv=0.33D-08     -V/T= 2.0067
   1 Symmetry operations used in ECPInt.
 ECPInt:  NShTT=     561 NPrTT=    2077 LenC2=     561 LenP2D=    1818.
 LDataN:  DoStor=T MaxTD1= 5 Len=  102
 D1PCM: C-PCM CHGder 1st derivatives, ID1Alg=3 FixD1E=F DoIter=F DoCFld=F I1PDM=0.
 Calling FoFJK, ICntrl=      2127 FMM=F ISym2X=0 I1Cent= 0 IOpClX= 0 NMat=1 NMatS=1 NMatT=0.
 ***** Axes restored to original set *****
 -------------------------------------------------------------------
 Center     Atomic                   Forces (Hartrees/Bohr)
 Number     Number              X              Y              Z
 -------------------------------------------------------------------
      1        7           0.010474765    0.052821420    0.015852303
      2        8           0.007778068   -0.008685203   -0.000003346
      3        8          -0.027259546   -0.038458597   -0.004912319
      4        6           0.000783933   -0.006373339   -0.003795650
      5        1          -0.000993972    0.002787962   -0.006321802
      6        1           0.003265781   -0.004237579    0.003509257
      7        1           0.005950971    0.002145335   -0.004328443
 -------------------------------------------------------------------
 Cartesian Forces:  Max     0.052821420 RMS     0.016529027

 GradGradGradGradGradGradGradGradGradGradGradGradGradGradGradGradGradGrad
 Berny optimization.
 Using GEDIIS/GDIIS optimizer.
 FormGI is forming the generalized inverse of G from B-inverse, IUseBI=4.
 Internal  Forces:  Max     0.042521892 RMS     0.011265083
 Search for a local minimum.
 Step number   2 out of a maximum of   29
 All quantities printed in internal units (Hartrees-Bohrs-Radians)
 Mixed Optimization -- RFO/linear search
 Update second derivatives using D2CorX and points    1    2
 DE= -2.43D-02 DEPred=-2.13D-02 R= 1.14D+00
 TightC=F SS=  1.41D+00  RLast= 4.51D-01 DXNew= 5.0454D-01 1.3531D+00
 Trust test= 1.14D+00 RLast= 4.51D-01 DXMaxT set to 5.05D-01
 The second derivative matrix:
                          R1        R2        R3        R4        R5
           R1           0.94466
           R2          -0.03262   0.63983
           R3           0.00582   0.08245   0.49875
           R4          -0.00199  -0.01452   0.00350   0.55374
           R5          -0.00017  -0.01170  -0.00202  -0.00024   0.37299
           R6           0.00132  -0.01149  -0.00699   0.00034   0.00160
           A1           0.00825   0.01551  -0.02438   0.00343   0.00404
           A2          -0.00425  -0.02932   0.00784  -0.00209  -0.00063
           A3          -0.00417   0.01318   0.01696  -0.00141  -0.00347
           A4           0.00251   0.04336   0.00113   0.00163  -0.00140
           A5          -0.00032   0.00894   0.00306   0.00001  -0.00081
           A6           0.00102   0.00393  -0.00256   0.00045   0.00036
           A7          -0.00067  -0.01281  -0.00057  -0.00045   0.00046
           D1           0.00057   0.00339  -0.00116   0.00027   0.00012
           D2           0.00263   0.00499  -0.00775   0.00109   0.00128
           D3           0.00095  -0.00318  -0.00392   0.00032   0.00081
           D4           0.00116  -0.00253  -0.00446   0.00041   0.00089
           D5          -0.00099  -0.00507   0.00223  -0.00046  -0.00027
           D6          -0.00079  -0.00442   0.00168  -0.00037  -0.00019
                          R6        A1        A2        A3        A4
           R6           0.37524
           A1           0.00530   0.25179
           A2           0.00047   0.00672   0.24561
           A3          -0.00583  -0.00844  -0.00249   0.26100
           A4          -0.00418  -0.01331   0.00372   0.00981   0.16164
           A5          -0.00164  -0.00349   0.00015   0.00339   0.00192
           A6           0.00035  -0.00050   0.00092  -0.00039  -0.00134
           A7           0.00130   0.00400  -0.00105  -0.00301  -0.00061
           D1           0.00001  -0.00071   0.00056   0.00017  -0.00057
           D2           0.00168   0.00055   0.00214  -0.00267  -0.00423
           D3           0.00136   0.00199   0.00056  -0.00257  -0.00227
           D4           0.00145   0.00194   0.00074  -0.00269  -0.00256
           D5          -0.00016   0.00093  -0.00095  -0.00001   0.00113
           D6          -0.00007   0.00088  -0.00077  -0.00013   0.00084
                          A5        A6        A7        D1        D2
           A5           0.16087
           A6          -0.00027   0.15988
           A7          -0.00061   0.00040   0.16022
           D1          -0.00006  -0.00011   0.00016   0.03014
           D2          -0.00111  -0.00016   0.00127  -0.00023   0.03038
           D3          -0.00079   0.00010   0.00070  -0.00004   0.00063
           D4          -0.00085   0.00007   0.00078  -0.00006   0.00061
           D5           0.00017   0.00016  -0.00033   0.00011   0.00030
           D6           0.00011   0.00014  -0.00024   0.00009   0.00028
                          D3        D4        D5        D6
           D3           0.02081
           D4           0.00063   0.02087
           D5           0.00000   0.00003   0.02003
           D6           0.00003   0.00005  -0.00015   0.02009
 ITU=  1  0
 Use linear search instead of GDIIS.
     Eigenvalues ---    0.02016   0.02030   0.02374   0.02972   0.15305
     Eigenvalues ---    0.16000   0.16086   0.23769   0.26629   0.37205
     Eigenvalues ---    0.37586   0.46647   0.55362   0.68297   0.94829
 RFO step:  Lambda=-5.37731686D-03 EMin= 2.01592623D-02
 Quartic linear search produced a step of  0.42466.
 Iteration  1 RMS(Cart)=  0.10107383 RMS(Int)=  0.00992421
 Iteration  2 RMS(Cart)=  0.01048190 RMS(Int)=  0.00070932
 Iteration  3 RMS(Cart)=  0.00009187 RMS(Int)=  0.00070341
 Iteration  4 RMS(Cart)=  0.00000002 RMS(Int)=  0.00070341
 Variable       Old X    -DE/DX   Delta X   Delta X   Delta X     New X
                                 (Linear)    (Quad)   (Total)
    R1        2.33196   0.00524   0.01029  -0.00014   0.01015   2.34211
    R2        2.48542   0.04252   0.03667   0.04917   0.08584   2.57126
    R3        2.47280  -0.01051  -0.05339   0.01442  -0.03896   2.43384
    R4        1.83199   0.00293   0.00758   0.00124   0.00882   1.84081
    R5        2.04810   0.00095   0.01108  -0.00596   0.00512   2.05322
    R6        2.05247  -0.00079   0.01294  -0.01401  -0.00107   2.05140
    A1        2.06455  -0.01077  -0.00539  -0.05482  -0.06120   2.00335
    A2        2.20391   0.00762   0.03350   0.01054   0.04287   2.24678
    A3        2.01452   0.00313  -0.02755   0.04238   0.01379   2.02830
    A4        1.88358  -0.00994  -0.08952   0.00921  -0.08031   1.80328
    A5        2.04461  -0.00120  -0.02114   0.01185  -0.00946   2.03514
    A6        2.08126  -0.00169  -0.00558  -0.00860  -0.01435   2.06691
    A7        2.15721   0.00287   0.02668  -0.00359   0.02292   2.18013
    D1        0.64429  -0.00339  -0.03075  -0.05353  -0.08578   0.55851
    D2       -2.51786  -0.00432  -0.01476  -0.14723  -0.16050  -2.67836
    D3       -0.14404   0.00540   0.08089   0.06771   0.14800   0.00396
    D4        2.98254   0.00461   0.07451   0.04330   0.11722   3.09976
    D5        3.02001   0.00667   0.06500   0.17089   0.23649  -3.02668
    D6       -0.13660   0.00589   0.05863   0.14649   0.20572   0.06911
         Item               Value     Threshold  Converged?
 Maximum Force            0.042522     0.000450     NO 
 RMS     Force            0.011265     0.000300     NO 
 Maximum Displacement     0.226003     0.001800     NO 
 RMS     Displacement     0.107623     0.001200     NO 
 Predicted change in Energy=-6.814223D-03
 GradGradGradGradGradGradGradGradGradGradGradGradGradGradGradGradGradGrad

                          Input orientation:                          
 ---------------------------------------------------------------------
 Center     Atomic      Atomic             Coordinates (Angstroms)
 Number     Number       Type             X           Y           Z
 ---------------------------------------------------------------------
      1          7           0        1.214165   -0.019965    0.159354
      2          8           0        2.271932    0.092161   -0.476766
      3          8           0        0.574390   -1.209811   -0.002924
      4          6           0        0.594463    0.868857    0.855583
      5          1           0        1.046279    1.856089    0.897532
      6          1           0       -0.350252    0.597858    1.316561
      7          1           0        1.304305   -1.840369   -0.139013
 ---------------------------------------------------------------------
                    Distance matrix (angstroms):
                    1          2          3          4          5
     1  N    0.000000
     2  O    1.239392   0.000000
     3  O    1.360654   2.191189   0.000000
     4  C    1.287932   2.278664   2.249065   0.000000
     5  H    2.023036   2.549973   3.230053   1.086520   0.000000
     6  H    2.041625   3.216768   2.421501   1.085554   1.925884
     7  H    1.846894   2.187476   0.974115   2.972036   3.847701
                    6          7
     6  H    0.000000
     7  H    3.286518   0.000000
 Stoichiometry    CH3NO2
 Framework group  C1[X(CH3NO2)]
 Deg. of freedom    15
 Full point group                 C1      NOp   1
 Largest Abelian subgroup         C1      NOp   1
 Largest concise Abelian subgroup C1      NOp   1
                         Standard orientation:                         
 ---------------------------------------------------------------------
 Center     Atomic      Atomic             Coordinates (Angstroms)
 Number     Number       Type             X           Y           Z
 ---------------------------------------------------------------------
      1          7           0       -0.062038    0.081896    0.021482
      2          8           0        0.410093    1.227133   -0.018712
      3          8           0        0.857721   -0.917434   -0.060744
      4          6           0       -1.297854   -0.280767    0.019542
      5          1           0       -2.037939    0.513380   -0.026595
      6          1           0       -1.524855   -1.342322    0.019681
      7          1           0        1.641683   -0.537316    0.374933
 ---------------------------------------------------------------------
 Rotational constants (GHZ):     12.2874444     11.4510474      5.9560219
 Standard basis: def2SVP (5D, 7F)
 There are    75 symmetry adapted cartesian basis functions of A   symmetry.
 There are    71 symmetry adapted basis functions of A   symmetry.
    71 basis functions,   121 primitive gaussians,    75 cartesian basis functions
    16 alpha electrons       16 beta electrons
       nuclear repulsion energy       126.2990534542 Hartrees.
 NAtoms=    7 NActive=    7 NUniq=    7 SFac= 1.00D+00 NAtFMM=   60 NAOKFM=F Big=F
 Integral buffers will be    131072 words long.
 Raffenetti 2 integral format.
 Two-electron integral symmetry is turned on.
 ------------------------------------------------------------------------------
 Polarizable Continuum Model (PCM)
 =================================
 Model                : C-PCM.
 Atomic radii         : UFF (Universal Force Field).
 Polarization charges : Total charges.
 Charge compensation  : None.
 Solution method      : On-the-fly selection.
 Cavity type          : Scaled VdW (van der Waals Surface) (Alpha=1.100).
 Cavity algorithm     : GePol (No added spheres)
                        Default sphere list used, NSphG=    7.
                        Lebedev-Laikov grids with approx.  5.0 points / Ang**2.
                        Smoothing algorithm: Karplus/York (Gamma=1.0000).
                        Polarization charges: spherical gaussians, with
                                              point-specific exponents (IZeta= 3).
                        Self-potential: point-specific (ISelfS= 7).
                        Self-field    : sphere-specific E.n sum rule (ISelfD= 2).
 1st derivatives      : Analytical E(r).r(x)/FMM algorithm (CHGder, D1EAlg=3).
                        Cavity 1st derivative terms included.
 Solvent              : Ethanol, Eps=  24.852000 Eps(inf)=   1.852593
 ------------------------------------------------------------------------------
 Spheres list:
 ISph  on   Nord     Re0    Alpha      Xe            Ye            Ze
    1   N      1    1.8300  1.100     -0.062038      0.081896      0.021482
    2   O      2    1.7500  1.100      0.410093      1.227133     -0.018712
    3   O      3    1.7500  1.100      0.857721     -0.917434     -0.060744
    4   C      4    1.9255  1.100     -1.297854     -0.280767      0.019542
    5   H      5    1.4430  1.100     -2.037939      0.513380     -0.026595
    6   H      6    1.4430  1.100     -1.524855     -1.342322      0.019681
    7   H      7    1.4430  1.100      1.641683     -0.537316      0.374933
 ------------------------------------------------------------------------------
 One-electron integrals computed using PRISM.
   1 Symmetry operations used in ECPInt.
 ECPInt:  NShTT=     561 NPrTT=    2077 LenC2=     561 LenP2D=    1819.
 LDataN:  DoStor=T MaxTD1= 4 Len=   56
 NBasis=    71 RedAO= T EigKep=  6.34D-03  NBF=    71
 NBsUse=    71 1.00D-06 EigRej= -1.00D+00 NBFU=    71
 Initial guess from the checkpoint file:  "CH2NO2H_opt.chk"
 B after Tr=     0.000000    0.000000    0.000000
         Rot=    0.999997    0.002426    0.000125   -0.000925 Ang=   0.30 deg.
 ExpMin= 1.22D-01 ExpMax= 2.27D+03 ExpMxC= 3.41D+02 IAcc=1 IRadAn=         1 AccDes= 0.00D+00
 Harris functional with IExCor= 1009 and IRadAn=       1 diagonalized for initial guess.
 HarFok:  IExCor= 1009 AccDes= 0.00D+00 IRadAn=         1 IDoV= 1 UseB2=F ITyADJ=14
 ICtDFT=  3500011 ScaDFX=  1.000000  1.000000  1.000000  1.000000
 FoFCou: FMM=F IPFlag=           0 FMFlag=      100000 FMFlg1=           0
         NFxFlg=           0 DoJE=T BraDBF=F KetDBF=T FulRan=T
         wScrn=  0.000000 ICntrl=     500 IOpCl=  0 I1Cent=   200000004 NGrid=           0
         NMat0=    1 NMatS0=      1 NMatT0=    0 NMatD0=    1 NMtDS0=    0 NMtDT0=    0
 Petite list used in FoFCou.
 Keep R1 ints in memory in canonical form, NReq=6889389.
 Requested convergence on RMS density matrix=1.00D-08 within 128 cycles.
 Requested convergence on MAX density matrix=1.00D-06.
 Requested convergence on             energy=1.00D-06.
 No special actions if energy rises.
 Inv3:  Mode=1 IEnd=     1755675.
 Iteration    1 A*A^-1 deviation from unit magnitude is 3.33D-15 for    610.
 Iteration    1 A*A^-1 deviation from orthogonality  is 1.30D-15 for    754    576.
 Iteration    1 A^-1*A deviation from unit magnitude is 3.22D-15 for    764.
 Iteration    1 A^-1*A deviation from orthogonality  is 1.09D-15 for    614    554.
 Error on total polarization charges =  0.00330
 SCF Done:  E(RM062X) =  -244.695646115     A.U. after   13 cycles
            NFock= 13  Conv=0.20D-08     -V/T= 2.0069
   1 Symmetry operations used in ECPInt.
 ECPInt:  NShTT=     561 NPrTT=    2077 LenC2=     561 LenP2D=    1819.
 LDataN:  DoStor=T MaxTD1= 5 Len=  102
 D1PCM: C-PCM CHGder 1st derivatives, ID1Alg=3 FixD1E=F DoIter=F DoCFld=F I1PDM=0.
 Calling FoFJK, ICntrl=      2127 FMM=F ISym2X=0 I1Cent= 0 IOpClX= 0 NMat=1 NMatS=1 NMatT=0.
 ***** Axes restored to original set *****
 -------------------------------------------------------------------
 Center     Atomic                   Forces (Hartrees/Bohr)
 Number     Number              X              Y              Z
 -------------------------------------------------------------------
      1        7           0.008879648    0.006853227   -0.018507571
      2        8           0.001631402   -0.000359925    0.006921457
      3        8          -0.005287167   -0.010315530    0.007405356
      4        6          -0.005247144    0.004048176    0.005308345
      5        1          -0.000011718   -0.000934217    0.000479278
      6        1           0.000981868   -0.000431600    0.000994449
      7        1          -0.000946889    0.001139869   -0.002601314
 -------------------------------------------------------------------
 Cartesian Forces:  Max     0.018507571 RMS     0.006143326

 GradGradGradGradGradGradGradGradGradGradGradGradGradGradGradGradGradGrad
 Berny optimization.
 Using GEDIIS/GDIIS optimizer.
 FormGI is forming the generalized inverse of G from B-inverse, IUseBI=4.
 Internal  Forces:  Max     0.010431717 RMS     0.004042512
 Search for a local minimum.
 Step number   3 out of a maximum of   29
 All quantities printed in internal units (Hartrees-Bohrs-Radians)
 Mixed Optimization -- RFO/linear search
 Update second derivatives using D2CorX and points    2    3
 DE= -5.66D-03 DEPred=-6.81D-03 R= 8.31D-01
 TightC=F SS=  1.41D+00  RLast= 4.35D-01 DXNew= 8.4853D-01 1.3047D+00
 Trust test= 8.31D-01 RLast= 4.35D-01 DXMaxT set to 8.49D-01
 The second derivative matrix:
                          R1        R2        R3        R4        R5
           R1           0.94684
           R2          -0.03451   0.53798
           R3          -0.00113   0.07332   0.51869
           R4          -0.00080  -0.01556  -0.00030   0.55439
           R5           0.00063  -0.00980  -0.00419   0.00020   0.37322
           R6           0.00162  -0.00783  -0.00736   0.00050   0.00161
           A1           0.00347   0.01921  -0.00918   0.00082   0.00230
           A2          -0.00319  -0.03892   0.00318  -0.00151  -0.00002
           A3          -0.00011   0.02337   0.00603   0.00080  -0.00233
           A4           0.00007   0.05016   0.00959   0.00030  -0.00242
           A5          -0.00073   0.00888   0.00429  -0.00021  -0.00095
           A6           0.00079   0.00641  -0.00149   0.00033   0.00022
           A7          -0.00003  -0.01490  -0.00286  -0.00010   0.00073
           D1           0.00302   0.01864  -0.00645   0.00162   0.00059
           D2           0.00150   0.00783  -0.00390   0.00048   0.00083
           D3           0.00109  -0.00947  -0.00525   0.00039   0.00101
           D4          -0.00024  -0.01434  -0.00191  -0.00035   0.00070
           D5           0.00397   0.00747  -0.01114   0.00225   0.00113
           D6           0.00264   0.00260  -0.00780   0.00150   0.00082
                          R6        A1        A2        A3        A4
           R6           0.37514
           A1           0.00466   0.26230
           A2           0.00094   0.00435   0.24540
           A3          -0.00580  -0.01729   0.00064   0.26673
           A4          -0.00469  -0.00794   0.00292   0.00466   0.16415
           A5          -0.00168  -0.00260  -0.00008   0.00268   0.00239
           A6           0.00023   0.00001   0.00099  -0.00113  -0.00119
           A7           0.00145   0.00257  -0.00086  -0.00161  -0.00127
           D1          -0.00031  -0.00603   0.00322   0.00244  -0.00411
           D2           0.00146   0.00303   0.00175  -0.00501  -0.00306
           D3           0.00161   0.00167   0.00011  -0.00150  -0.00214
           D4           0.00175   0.00496  -0.00103  -0.00357  -0.00041
           D5          -0.00012  -0.00990   0.00289   0.00700  -0.00519
           D6           0.00002  -0.00661   0.00174   0.00493  -0.00345
                          A5        A6        A7        D1        D2
           A5           0.16095
           A6          -0.00022   0.15985
           A7          -0.00073   0.00036   0.16039
           D1          -0.00045  -0.00075   0.00115   0.02999
           D2          -0.00089  -0.00008   0.00096  -0.00181   0.03092
           D3          -0.00084   0.00022   0.00065   0.00115   0.00067
           D4          -0.00064   0.00051   0.00018   0.00055   0.00157
           D5          -0.00069  -0.00074   0.00139   0.00289  -0.00257
           D6          -0.00049  -0.00045   0.00092   0.00229  -0.00167
                          D3        D4        D5        D6
           D3           0.02046
           D4          -0.00023   0.02013
           D5           0.00131  -0.00104   0.02860
           D6           0.00084  -0.00089   0.00604   0.02452
 ITU=  1  1  0
 Use linear search instead of GDIIS.
     Eigenvalues ---    0.01931   0.02087   0.02778   0.03444   0.15534
     Eigenvalues ---    0.16000   0.16149   0.23558   0.28265   0.37218
     Eigenvalues ---    0.37585   0.46171   0.55289   0.61292   0.94995
 RFO step:  Lambda=-3.31272185D-03 EMin= 1.93067990D-02
 Quartic linear search produced a step of  0.01310.
 Iteration  1 RMS(Cart)=  0.04653901 RMS(Int)=  0.00457754
 Iteration  2 RMS(Cart)=  0.00400304 RMS(Int)=  0.00254880
 Iteration  3 RMS(Cart)=  0.00001221 RMS(Int)=  0.00254876
 Iteration  4 RMS(Cart)=  0.00000000 RMS(Int)=  0.00254876
 Variable       Old X    -DE/DX   Delta X   Delta X   Delta X     New X
                                 (Linear)    (Quad)   (Total)
    R1        2.34211  -0.00219   0.00013   0.00002   0.00016   2.34227
    R2        2.57126   0.01043   0.00112   0.03669   0.03782   2.60908
    R3        2.43384   0.00757  -0.00051   0.00714   0.00663   2.44047
    R4        1.84081  -0.00114   0.00012   0.00006   0.00017   1.84098
    R5        2.05322  -0.00082   0.00007  -0.00144  -0.00138   2.05185
    R6        2.05140  -0.00034  -0.00001  -0.00212  -0.00213   2.04927
    A1        2.00335   0.00540  -0.00080   0.00995   0.00285   2.00620
    A2        2.24678   0.00076   0.00056   0.01916   0.01336   2.26014
    A3        2.02830  -0.00561   0.00018  -0.01004  -0.01617   2.01213
    A4        1.80328   0.00013  -0.00105  -0.01618  -0.01723   1.78605
    A5        2.03514   0.00004  -0.00012  -0.00002  -0.00100   2.03415
    A6        2.06691  -0.00005  -0.00019  -0.00310  -0.00414   2.06276
    A7        2.18013   0.00010   0.00030   0.00634   0.00579   2.18592
    D1        0.55851  -0.00531  -0.00112  -0.20346  -0.20377   0.35474
    D2       -2.67836   0.00021  -0.00210  -0.01152  -0.01443  -2.69278
    D3        0.00396   0.00264   0.00194   0.12387   0.12590   0.12986
    D4        3.09976   0.00454   0.00154   0.19731   0.19891  -2.98452
    D5       -3.02668  -0.00401   0.00310  -0.09868  -0.09565  -3.12233
    D6        0.06911  -0.00211   0.00269  -0.02524  -0.02263   0.04648
         Item               Value     Threshold  Converged?
 Maximum Force            0.010432     0.000450     NO 
 RMS     Force            0.004043     0.000300     NO 
 Maximum Displacement     0.095506     0.001800     NO 
 RMS     Displacement     0.046173     0.001200     NO 
 Predicted change in Energy=-1.851838D-03
 GradGradGradGradGradGradGradGradGradGradGradGradGradGradGradGradGradGrad

                          Input orientation:                          
 ---------------------------------------------------------------------
 Center     Atomic      Atomic             Coordinates (Angstroms)
 Number     Number       Type             X           Y           Z
 ---------------------------------------------------------------------
      1          7           0        1.188202    0.003209    0.108814
      2          8           0        2.299698    0.064147   -0.436309
      3          8           0        0.565048   -1.225966    0.024895
      4          6           0        0.579215    0.882129    0.833005
      5          1           0        1.041998    1.862198    0.898113
      6          1           0       -0.329150    0.583779    1.344709
      7          1           0        1.310271   -1.824677   -0.162902
 ---------------------------------------------------------------------
                    Distance matrix (angstroms):
                    1          2          3          4          5
     1  N    0.000000
     2  O    1.239474   0.000000
     3  O    1.380665   2.210455   0.000000
     4  C    1.291440   2.289173   2.257722   0.000000
     5  H    2.024897   2.568167   3.244496   1.085791   0.000000
     6  H    2.041287   3.217590   2.411779   1.084426   1.927135
     7  H    1.851998   2.149738   0.974207   2.975411   3.845877
                    6          7
     6  H    0.000000
     7  H    3.280434   0.000000
 Stoichiometry    CH3NO2
 Framework group  C1[X(CH3NO2)]
 Deg. of freedom    15
 Full point group                 C1      NOp   1
 Largest Abelian subgroup         C1      NOp   1
 Largest concise Abelian subgroup C1      NOp   1
                         Standard orientation:                         
 ---------------------------------------------------------------------
 Center     Atomic      Atomic             Coordinates (Angstroms)
 Number     Number       Type             X           Y           Z
 ---------------------------------------------------------------------
      1          7           0       -0.066814    0.091096   -0.040807
      2          8           0        0.417694    1.230950    0.006948
      3          8           0        0.857087   -0.934887   -0.039890
      4          6           0       -1.302566   -0.279309    0.018655
      5          1           0       -2.047358    0.510562    0.000479
      6          1           0       -1.516030   -1.338752    0.108060
      7          1           0        1.648244   -0.502134    0.328720
 ---------------------------------------------------------------------
 Rotational constants (GHZ):     12.1146281     11.3909268      5.8935430
 Standard basis: def2SVP (5D, 7F)
 There are    75 symmetry adapted cartesian basis functions of A   symmetry.
 There are    71 symmetry adapted basis functions of A   symmetry.
    71 basis functions,   121 primitive gaussians,    75 cartesian basis functions
    16 alpha electrons       16 beta electrons
       nuclear repulsion energy       125.7254766909 Hartrees.
 NAtoms=    7 NActive=    7 NUniq=    7 SFac= 1.00D+00 NAtFMM=   60 NAOKFM=F Big=F
 Integral buffers will be    131072 words long.
 Raffenetti 2 integral format.
 Two-electron integral symmetry is turned on.
 ------------------------------------------------------------------------------
 Polarizable Continuum Model (PCM)
 =================================
 Model                : C-PCM.
 Atomic radii         : UFF (Universal Force Field).
 Polarization charges : Total charges.
 Charge compensation  : None.
 Solution method      : On-the-fly selection.
 Cavity type          : Scaled VdW (van der Waals Surface) (Alpha=1.100).
 Cavity algorithm     : GePol (No added spheres)
                        Default sphere list used, NSphG=    7.
                        Lebedev-Laikov grids with approx.  5.0 points / Ang**2.
                        Smoothing algorithm: Karplus/York (Gamma=1.0000).
                        Polarization charges: spherical gaussians, with
                                              point-specific exponents (IZeta= 3).
                        Self-potential: point-specific (ISelfS= 7).
                        Self-field    : sphere-specific E.n sum rule (ISelfD= 2).
 1st derivatives      : Analytical E(r).r(x)/FMM algorithm (CHGder, D1EAlg=3).
                        Cavity 1st derivative terms included.
 Solvent              : Ethanol, Eps=  24.852000 Eps(inf)=   1.852593
 ------------------------------------------------------------------------------
 Spheres list:
 ISph  on   Nord     Re0    Alpha      Xe            Ye            Ze
    1   N      1    1.8300  1.100     -0.066814      0.091096     -0.040807
    2   O      2    1.7500  1.100      0.417694      1.230950      0.006948
    3   O      3    1.7500  1.100      0.857087     -0.934887     -0.039890
    4   C      4    1.9255  1.100     -1.302566     -0.279309      0.018655
    5   H      5    1.4430  1.100     -2.047358      0.510562      0.000479
    6   H      6    1.4430  1.100     -1.516030     -1.338752      0.108060
    7   H      7    1.4430  1.100      1.648244     -0.502134      0.328720
 ------------------------------------------------------------------------------
 One-electron integrals computed using PRISM.
   1 Symmetry operations used in ECPInt.
 ECPInt:  NShTT=     561 NPrTT=    2077 LenC2=     561 LenP2D=    1818.
 LDataN:  DoStor=T MaxTD1= 4 Len=   56
 NBasis=    71 RedAO= T EigKep=  6.40D-03  NBF=    71
 NBsUse=    71 1.00D-06 EigRej= -1.00D+00 NBFU=    71
 Initial guess from the checkpoint file:  "CH2NO2H_opt.chk"
 B after Tr=     0.000000    0.000000    0.000000
         Rot=    0.999999    0.000868   -0.000100    0.001330 Ang=   0.18 deg.
 ExpMin= 1.22D-01 ExpMax= 2.27D+03 ExpMxC= 3.41D+02 IAcc=1 IRadAn=         1 AccDes= 0.00D+00
 Harris functional with IExCor= 1009 and IRadAn=       1 diagonalized for initial guess.
 HarFok:  IExCor= 1009 AccDes= 0.00D+00 IRadAn=         1 IDoV= 1 UseB2=F ITyADJ=14
 ICtDFT=  3500011 ScaDFX=  1.000000  1.000000  1.000000  1.000000
 FoFCou: FMM=F IPFlag=           0 FMFlag=      100000 FMFlg1=           0
         NFxFlg=           0 DoJE=T BraDBF=F KetDBF=T FulRan=T
         wScrn=  0.000000 ICntrl=     500 IOpCl=  0 I1Cent=   200000004 NGrid=           0
         NMat0=    1 NMatS0=      1 NMatT0=    0 NMatD0=    1 NMtDS0=    0 NMtDT0=    0
 Petite list used in FoFCou.
 Keep R1 ints in memory in canonical form, NReq=6885995.
 Requested convergence on RMS density matrix=1.00D-08 within 128 cycles.
 Requested convergence on MAX density matrix=1.00D-06.
 Requested convergence on             energy=1.00D-06.
 No special actions if energy rises.
 Inv3:  Mode=1 IEnd=     1746507.
 Iteration    1 A*A^-1 deviation from unit magnitude is 2.89D-15 for    751.
 Iteration    1 A*A^-1 deviation from orthogonality  is 1.28D-15 for    263    190.
 Iteration    1 A^-1*A deviation from unit magnitude is 2.89D-15 for    751.
 Iteration    1 A^-1*A deviation from orthogonality  is 1.58D-15 for    739     45.
 Error on total polarization charges =  0.00331
 SCF Done:  E(RM062X) =  -244.695960182     A.U. after   12 cycles
            NFock= 12  Conv=0.89D-08     -V/T= 2.0071
   1 Symmetry operations used in ECPInt.
 ECPInt:  NShTT=     561 NPrTT=    2077 LenC2=     561 LenP2D=    1818.
 LDataN:  DoStor=T MaxTD1= 5 Len=  102
 D1PCM: C-PCM CHGder 1st derivatives, ID1Alg=3 FixD1E=F DoIter=F DoCFld=F I1PDM=0.
 Calling FoFJK, ICntrl=      2127 FMM=F ISym2X=0 I1Cent= 0 IOpClX= 0 NMat=1 NMatS=1 NMatT=0.
 ***** Axes restored to original set *****
 -------------------------------------------------------------------
 Center     Atomic                   Forces (Hartrees/Bohr)
 Number     Number              X              Y              Z
 -------------------------------------------------------------------
      1        7           0.015409666   -0.010176366    0.008706837
      2        8          -0.008154622    0.003273979   -0.002535893
      3        8          -0.001269703    0.002468539   -0.000082579
      4        6          -0.002920294    0.002544773   -0.002212749
      5        1          -0.000296585   -0.000045265   -0.000063182
      6        1          -0.001618794    0.000799862   -0.001665505
      7        1          -0.001149668    0.001134479   -0.002146929
 -------------------------------------------------------------------
 Cartesian Forces:  Max     0.015409666 RMS     0.005077645

 GradGradGradGradGradGradGradGradGradGradGradGradGradGradGradGradGradGrad
 Berny optimization.
 Using GEDIIS/GDIIS optimizer.
 FormGI is forming the generalized inverse of G from B-inverse, IUseBI=4.
 Internal  Forces:  Max     0.006589004 RMS     0.003092383
 Search for a local minimum.
 Step number   4 out of a maximum of   29
 All quantities printed in internal units (Hartrees-Bohrs-Radians)
 Mixed Optimization -- RFO/linear search
 Update second derivatives using D2CorX and points    3    4
 DE= -3.14D-04 DEPred=-1.85D-03 R= 1.70D-01
 Trust test= 1.70D-01 RLast= 3.30D-01 DXMaxT set to 8.49D-01
 The second derivative matrix:
                          R1        R2        R3        R4        R5
           R1           0.94770
           R2          -0.01870   0.52737
           R3           0.00800   0.05764   0.50383
           R4          -0.00163  -0.01142   0.00271   0.55395
           R5          -0.00043  -0.00833  -0.00268  -0.00013   0.37307
           R6           0.00094  -0.00802  -0.00708   0.00036   0.00159
           A1           0.00942   0.00631  -0.02050   0.00295   0.00347
           A2          -0.00223  -0.03929   0.00239  -0.00128   0.00005
           A3          -0.00690   0.03500   0.01707  -0.00143  -0.00345
           A4           0.00038   0.05005   0.00934   0.00037  -0.00239
           A5          -0.00064   0.00882   0.00420  -0.00019  -0.00094
           A6           0.00052   0.00564  -0.00180   0.00032   0.00026
           A7           0.00027  -0.01453  -0.00280  -0.00006   0.00072
           D1          -0.00556   0.02344   0.00148  -0.00057  -0.00015
           D2           0.00625   0.01685  -0.00118   0.00094   0.00042
           D3           0.00694  -0.00150  -0.00382   0.00117   0.00073
           D4           0.00962  -0.00334  -0.00097   0.00110   0.00039
           D5          -0.00413   0.00089  -0.01042   0.00090   0.00122
           D6          -0.00145  -0.00095  -0.00757   0.00083   0.00088
                          R6        A1        A2        A3        A4
           R6           0.37517
           A1           0.00495   0.25383
           A2           0.00092   0.00368   0.24540
           A3          -0.00600  -0.00888   0.00122   0.25853
           A4          -0.00470  -0.00815   0.00292   0.00484   0.16415
           A5          -0.00168  -0.00268  -0.00008   0.00275   0.00239
           A6           0.00027  -0.00016   0.00094  -0.00089  -0.00120
           A7           0.00142   0.00256  -0.00083  -0.00164  -0.00126
           D1          -0.00017   0.00058   0.00336  -0.00344  -0.00407
           D2           0.00090   0.00412   0.00237  -0.00705  -0.00285
           D3           0.00106   0.00172   0.00068  -0.00258  -0.00195
           D4           0.00092   0.00406  -0.00021  -0.00429  -0.00013
           D5           0.00047  -0.00817   0.00236   0.00648  -0.00536
           D6           0.00033  -0.00583   0.00146   0.00477  -0.00355
                          A5        A6        A7        D1        D2
           A5           0.16095
           A6          -0.00023   0.15988
           A7          -0.00073   0.00034   0.16041
           D1          -0.00042  -0.00032   0.00093   0.02790
           D2          -0.00084  -0.00048   0.00128  -0.00695   0.03680
           D3          -0.00079  -0.00023   0.00098  -0.00349   0.00710
           D4          -0.00058  -0.00021   0.00071  -0.00596   0.01177
           D5          -0.00072  -0.00018   0.00100   0.00691  -0.01031
           D6          -0.00051  -0.00016   0.00072   0.00444  -0.00564
                          D3        D4        D5        D6
           D3           0.02734
           D4           0.01056   0.03695
           D5          -0.00675  -0.01347   0.03766
           D6          -0.00331  -0.00730   0.01072   0.02694
 ITU=  0  1  1  0
 Use linear search instead of GDIIS.
     Eigenvalues ---    0.02029   0.02149   0.02709   0.07286   0.15535
     Eigenvalues ---    0.16006   0.16149   0.23570   0.26227   0.37212
     Eigenvalues ---    0.37565   0.46322   0.55320   0.59043   0.94910
 RFO step:  Lambda=-7.81583478D-04 EMin= 2.02910148D-02
 Quartic linear search produced a step of -0.44976.
 Iteration  1 RMS(Cart)=  0.03256043 RMS(Int)=  0.00140938
 Iteration  2 RMS(Cart)=  0.00166461 RMS(Int)=  0.00041592
 Iteration  3 RMS(Cart)=  0.00000082 RMS(Int)=  0.00041592
 Variable       Old X    -DE/DX   Delta X   Delta X   Delta X     New X
                                 (Linear)    (Quad)   (Total)
    R1        2.34227  -0.00604  -0.00007  -0.00413  -0.00420   2.33807
    R2        2.60908  -0.00193  -0.01701   0.01555  -0.00145   2.60763
    R3        2.44047   0.00229  -0.00298   0.00901   0.00602   2.44649
    R4        1.84098  -0.00119  -0.00008  -0.00182  -0.00189   1.83909
    R5        2.05185  -0.00014   0.00062  -0.00107  -0.00045   2.05139
    R6        2.04927   0.00032   0.00096   0.00021   0.00117   2.05044
    A1        2.00620   0.00247  -0.00128   0.01657   0.01631   2.02252
    A2        2.26014  -0.00005  -0.00601   0.00549   0.00051   2.26065
    A3        2.01213  -0.00168   0.00727  -0.02045  -0.01215   1.99999
    A4        1.78605  -0.00013   0.00775  -0.00816  -0.00041   1.78564
    A5        2.03415  -0.00004   0.00045  -0.00149  -0.00085   2.03330
    A6        2.06276   0.00035   0.00186  -0.00030   0.00176   2.06452
    A7        2.18592  -0.00025  -0.00260   0.00183  -0.00058   2.18534
    D1        0.35474   0.00158   0.09165  -0.09329  -0.00165   0.35309
    D2       -2.69278  -0.00587   0.00649  -0.10966  -0.10316  -2.79595
    D3        0.12986  -0.00425  -0.05662  -0.01627  -0.07290   0.05696
    D4       -2.98452  -0.00659  -0.08946  -0.01777  -0.10724  -3.09175
    D5       -3.12233   0.00466   0.04302   0.00335   0.04638  -3.07595
    D6        0.04648   0.00232   0.01018   0.00186   0.01204   0.05852
         Item               Value     Threshold  Converged?
 Maximum Force            0.006589     0.000450     NO 
 RMS     Force            0.003092     0.000300     NO 
 Maximum Displacement     0.071000     0.001800     NO 
 RMS     Displacement     0.032616     0.001200     NO 
 Predicted change in Energy=-9.817507D-04
 GradGradGradGradGradGradGradGradGradGradGradGradGradGradGradGradGradGrad

                          Input orientation:                          
 ---------------------------------------------------------------------
 Center     Atomic      Atomic             Coordinates (Angstroms)
 Number     Number       Type             X           Y           Z
 ---------------------------------------------------------------------
      1          7           0        1.215213   -0.011432    0.146386
      2          8           0        2.297414    0.074077   -0.447185
      3          8           0        0.570749   -1.227907    0.051695
      4          6           0        0.584963    0.879349    0.843061
      5          1           0        1.033117    1.867162    0.885531
      6          1           0       -0.341520    0.591270    1.328818
      7          1           0        1.295344   -1.827700   -0.197980
 ---------------------------------------------------------------------
                    Distance matrix (angstroms):
                    1          2          3          4          5
     1  N    0.000000
     2  O    1.237254   0.000000
     3  O    1.379896   2.219328   0.000000
     4  C    1.294628   2.290346   2.250998   0.000000
     5  H    2.026970   2.567047   3.238598   1.085550   0.000000
     6  H    2.045682   3.222677   2.402641   1.085044   1.927182
     7  H    1.850362   2.164025   0.973205   2.986055   3.859373
                    6          7
     6  H    0.000000
     7  H    3.295732   0.000000
 Stoichiometry    CH3NO2
 Framework group  C1[X(CH3NO2)]
 Deg. of freedom    15
 Full point group                 C1      NOp   1
 Largest Abelian subgroup         C1      NOp   1
 Largest concise Abelian subgroup C1      NOp   1
                         Standard orientation:                         
 ---------------------------------------------------------------------
 Center     Atomic      Atomic             Coordinates (Angstroms)
 Number     Number       Type             X           Y           Z
 ---------------------------------------------------------------------
      1          7           0       -0.061504    0.094533   -0.004959
      2          8           0        0.418001    1.235090   -0.004978
      3          8           0        0.849044   -0.941687   -0.040511
      4          6           0       -1.301196   -0.278069    0.014897
      5          1           0       -2.044996    0.511813   -0.020714
      6          1           0       -1.518238   -1.340297    0.058320
      7          1           0        1.664585   -0.512055    0.271638
 ---------------------------------------------------------------------
 Rotational constants (GHZ):     12.0232128     11.4628908      5.8820538
 Standard basis: def2SVP (5D, 7F)
 There are    75 symmetry adapted cartesian basis functions of A   symmetry.
 There are    71 symmetry adapted basis functions of A   symmetry.
    71 basis functions,   121 primitive gaussians,    75 cartesian basis functions
    16 alpha electrons       16 beta electrons
       nuclear repulsion energy       125.6937490732 Hartrees.
 NAtoms=    7 NActive=    7 NUniq=    7 SFac= 1.00D+00 NAtFMM=   60 NAOKFM=F Big=F
 Integral buffers will be    131072 words long.
 Raffenetti 2 integral format.
 Two-electron integral symmetry is turned on.
 ------------------------------------------------------------------------------
 Polarizable Continuum Model (PCM)
 =================================
 Model                : C-PCM.
 Atomic radii         : UFF (Universal Force Field).
 Polarization charges : Total charges.
 Charge compensation  : None.
 Solution method      : On-the-fly selection.
 Cavity type          : Scaled VdW (van der Waals Surface) (Alpha=1.100).
 Cavity algorithm     : GePol (No added spheres)
                        Default sphere list used, NSphG=    7.
                        Lebedev-Laikov grids with approx.  5.0 points / Ang**2.
                        Smoothing algorithm: Karplus/York (Gamma=1.0000).
                        Polarization charges: spherical gaussians, with
                                              point-specific exponents (IZeta= 3).
                        Self-potential: point-specific (ISelfS= 7).
                        Self-field    : sphere-specific E.n sum rule (ISelfD= 2).
 1st derivatives      : Analytical E(r).r(x)/FMM algorithm (CHGder, D1EAlg=3).
                        Cavity 1st derivative terms included.
 Solvent              : Ethanol, Eps=  24.852000 Eps(inf)=   1.852593
 ------------------------------------------------------------------------------
 Spheres list:
 ISph  on   Nord     Re0    Alpha      Xe            Ye            Ze
    1   N      1    1.8300  1.100     -0.061504      0.094533     -0.004959
    2   O      2    1.7500  1.100      0.418001      1.235090     -0.004978
    3   O      3    1.7500  1.100      0.849044     -0.941687     -0.040511
    4   C      4    1.9255  1.100     -1.301196     -0.278069      0.014897
    5   H      5    1.4430  1.100     -2.044996      0.511813     -0.020714
    6   H      6    1.4430  1.100     -1.518238     -1.340297      0.058320
    7   H      7    1.4430  1.100      1.664585     -0.512055      0.271638
 ------------------------------------------------------------------------------
 One-electron integrals computed using PRISM.
   1 Symmetry operations used in ECPInt.
 ECPInt:  NShTT=     561 NPrTT=    2077 LenC2=     561 LenP2D=    1815.
 LDataN:  DoStor=T MaxTD1= 4 Len=   56
 NBasis=    71 RedAO= T EigKep=  6.31D-03  NBF=    71
 NBsUse=    71 1.00D-06 EigRej= -1.00D+00 NBFU=    71
 Initial guess from the checkpoint file:  "CH2NO2H_opt.chk"
 B after Tr=     0.000000    0.000000    0.000000
         Rot=    0.999999   -0.000060   -0.000246    0.001241 Ang=  -0.15 deg.
 ExpMin= 1.22D-01 ExpMax= 2.27D+03 ExpMxC= 3.41D+02 IAcc=1 IRadAn=         1 AccDes= 0.00D+00
 Harris functional with IExCor= 1009 and IRadAn=       1 diagonalized for initial guess.
 HarFok:  IExCor= 1009 AccDes= 0.00D+00 IRadAn=         1 IDoV= 1 UseB2=F ITyADJ=14
 ICtDFT=  3500011 ScaDFX=  1.000000  1.000000  1.000000  1.000000
 FoFCou: FMM=F IPFlag=           0 FMFlag=      100000 FMFlg1=           0
         NFxFlg=           0 DoJE=T BraDBF=F KetDBF=T FulRan=T
         wScrn=  0.000000 ICntrl=     500 IOpCl=  0 I1Cent=   200000004 NGrid=           0
         NMat0=    1 NMatS0=      1 NMatT0=    0 NMatD0=    1 NMtDS0=    0 NMtDT0=    0
 Petite list used in FoFCou.
 Keep R1 ints in memory in canonical form, NReq=6884273.
 Requested convergence on RMS density matrix=1.00D-08 within 128 cycles.
 Requested convergence on MAX density matrix=1.00D-06.
 Requested convergence on             energy=1.00D-06.
 No special actions if energy rises.
 Inv3:  Mode=1 IEnd=     1741932.
 Iteration    1 A*A^-1 deviation from unit magnitude is 3.77D-15 for    760.
 Iteration    1 A*A^-1 deviation from orthogonality  is 1.22D-15 for    387    172.
 Iteration    1 A^-1*A deviation from unit magnitude is 3.77D-15 for    760.
 Iteration    1 A^-1*A deviation from orthogonality  is 1.56D-15 for    641    249.
 Error on total polarization charges =  0.00333
 SCF Done:  E(RM062X) =  -244.697080730     A.U. after   12 cycles
            NFock= 12  Conv=0.43D-08     -V/T= 2.0071
   1 Symmetry operations used in ECPInt.
 ECPInt:  NShTT=     561 NPrTT=    2077 LenC2=     561 LenP2D=    1815.
 LDataN:  DoStor=T MaxTD1= 5 Len=  102
 D1PCM: C-PCM CHGder 1st derivatives, ID1Alg=3 FixD1E=F DoIter=F DoCFld=F I1PDM=0.
 Calling FoFJK, ICntrl=      2127 FMM=F ISym2X=0 I1Cent= 0 IOpClX= 0 NMat=1 NMatS=1 NMatT=0.
 ***** Axes restored to original set *****
 -------------------------------------------------------------------
 Center     Atomic                   Forces (Hartrees/Bohr)
 Number     Number              X              Y              Z
 -------------------------------------------------------------------
      1        7           0.001955384    0.000794098   -0.000199734
      2        8          -0.005178071   -0.001188652    0.002471735
      3        8           0.003455524    0.000579312    0.001294017
      4        6           0.000637104   -0.000002075   -0.001598228
      5        1           0.000075642   -0.000092359    0.000484617
      6        1          -0.000115326    0.000179978   -0.000601641
      7        1          -0.000830255   -0.000270303   -0.001850767
 -------------------------------------------------------------------
 Cartesian Forces:  Max     0.005178071 RMS     0.001698518

 GradGradGradGradGradGradGradGradGradGradGradGradGradGradGradGradGradGrad
 Berny optimization.
 Using GEDIIS/GDIIS optimizer.
 FormGI is forming the generalized inverse of G from B-inverse, IUseBI=4.
 Internal  Forces:  Max     0.005800774 RMS     0.001703093
 Search for a local minimum.
 Step number   5 out of a maximum of   29
 All quantities printed in internal units (Hartrees-Bohrs-Radians)
 Mixed Optimization -- RFO/linear search
 Update second derivatives using D2CorX and points    2    3    4    5
 DE= -1.12D-03 DEPred=-9.82D-04 R= 1.14D+00
 TightC=F SS=  1.41D+00  RLast= 1.74D-01 DXNew= 1.4270D+00 5.2164D-01
 Trust test= 1.14D+00 RLast= 1.74D-01 DXMaxT set to 8.49D-01
 The second derivative matrix:
[...]
     2   8     0.06   0.07   0.00     0.09   0.15   0.00     0.00  -0.03   0.00
     3   8     0.27  -0.25   0.00     0.01  -0.03   0.00     0.00  -0.07   0.00
     4   6    -0.23   0.07   0.00    -0.07  -0.19   0.00     0.09  -0.03   0.00
     5   1    -0.73  -0.37   0.00     0.36   0.21   0.00     0.57   0.40   0.00
     6   1     0.24  -0.04   0.00    -0.86  -0.03   0.00     0.32  -0.07   0.00
     7   1     0.10   0.09   0.00     0.03  -0.06   0.00    -0.31   0.52   0.00
                     10                     11                     12
                      A                      A                      A
 Frequencies --   1356.3854              1465.2556              1799.4655
 Red. masses --      1.9235                 1.6760                 5.1095
 Frc consts  --      2.0851                 2.1201                 9.7479
 IR Inten    --    193.6887                93.5376               484.3650
  Atom  AN      X      Y      Z        X      Y      Z        X      Y      Z
     1   7    -0.04   0.18   0.00    -0.01   0.12   0.00     0.41   0.21   0.00
     2   8    -0.03  -0.15   0.00    -0.04  -0.09   0.00    -0.07  -0.10   0.00
     3   8     0.04   0.06   0.00    -0.01  -0.03   0.00    -0.05  -0.05   0.00
     4   6    -0.02  -0.05   0.00     0.17   0.01   0.00    -0.28  -0.10   0.00
     5   1     0.28   0.23   0.00    -0.30  -0.44   0.00     0.01   0.23   0.00
     6   1    -0.01  -0.05   0.00    -0.72   0.22   0.00     0.03  -0.21   0.00
     7   1     0.47  -0.76   0.00    -0.16   0.26   0.00    -0.40   0.64   0.00
                     13                     14                     15
                      A                      A                      A
 Frequencies --   3224.2549              3377.0466              3773.4757
 Red. masses --      1.0523                 1.1312                 1.0663
 Frc consts  --      6.4451                 7.6006                 8.9456
 IR Inten    --     34.9339                15.1947               251.8729
  Atom  AN      X      Y      Z        X      Y      Z        X      Y      Z
     1   7    -0.01   0.00   0.00     0.00   0.00   0.00     0.00   0.00   0.00
     2   8     0.00   0.00   0.00     0.00   0.00   0.00     0.00   0.00   0.00
     3   8     0.00   0.00   0.00     0.00   0.00   0.00     0.06   0.03   0.00
     4   6     0.06   0.01   0.00    -0.03   0.10   0.00     0.00   0.00   0.00
     5   1    -0.49   0.53   0.00     0.46  -0.50   0.00     0.00   0.00   0.00
     6   1    -0.15  -0.67   0.00    -0.15  -0.71   0.00     0.00   0.00   0.00
     7   1     0.00   0.00   0.00     0.00   0.00   0.00    -0.88  -0.46   0.00

 -------------------
 - Thermochemistry -
 -------------------
 Temperature   298.150 Kelvin.  Pressure   1.00000 Atm.
 Atom     1 has atomic number  7 and mass  14.00307
 Atom     2 has atomic number  8 and mass  15.99491
 Atom     3 has atomic number  8 and mass  15.99491
 Atom     4 has atomic number  6 and mass  12.00000
 Atom     5 has atomic number  1 and mass   1.00783
 Atom     6 has atomic number  1 and mass   1.00783
 Atom     7 has atomic number  1 and mass   1.00783
 Molecular mass:    61.01638 amu.
 Principal axes and moments of inertia in atomic units:
                           1         2         3
     Eigenvalues --   148.11205 157.86550 305.97751
           X            0.99816   0.06056  -0.00008
           Y           -0.06056   0.99816   0.00005
           Z            0.00008  -0.00004   1.00000
 This molecule is an asymmetric top.
 Rotational symmetry number  1.
 Rotational temperatures (Kelvin)      0.58479     0.54866     0.28307
 Rotational constants (GHZ):          12.18497    11.43214     5.89828
 Zero-point vibrational energy     131621.7 (Joules/Mol)
                                   31.45834 (Kcal/Mol)
 Warning -- explicit consideration of   3 degrees of freedom as
           vibrations may cause significant error
 Vibrational temperatures:    469.05   756.37   885.82   963.17  1026.44
          (Kelvin)           1144.17  1327.31  1600.65  1912.17  1951.53
                             2108.17  2589.03  4638.98  4858.81  5429.18
 
 Zero-point correction=                           0.050132 (Hartree/Particle)
 Thermal correction to Energy=                    0.054123
 Thermal correction to Enthalpy=                  0.055067
 Thermal correction to Gibbs Free Energy=         0.024123
 Sum of electronic and zero-point Energies=           -244.647608
 Sum of electronic and thermal Energies=              -244.643617
 Sum of electronic and thermal Enthalpies=            -244.642673
 Sum of electronic and thermal Free Energies=         -244.673617
 
                     E (Thermal)             CV                S
                      KCal/Mol        Cal/Mol-Kelvin    Cal/Mol-Kelvin
 Total                   33.962             13.235             65.127
 Electronic               0.000              0.000              0.000
 Translational            0.889              2.981             38.245
 Rotational               0.889              2.981             23.485
 Vibrational             32.185              7.273              3.396
 Vibration     1          0.710              1.623              1.280
 Vibration     2          0.881              1.193              0.597
 Vibration     3          0.975              0.999              0.423
                       Q            Log10(Q)             Ln(Q)
 Total Bot       0.802109D-11        -11.095767        -25.548947
 Total V=0       0.919025D+12         11.963327         27.546579
 Vib (Bot)       0.141409D-22        -22.849522        -52.612968
 Vib (Bot)    1  0.574542D+00         -0.240678         -0.554183
 Vib (Bot)    2  0.305432D+00         -0.515086         -1.186029
 Vib (Bot)    3  0.238611D+00         -0.622309         -1.432920
 Vib (V=0)       0.162021D+01          0.209572          0.482558
 Vib (V=0)    1  0.126164D+01          0.100936          0.232414
 Vib (V=0)    2  0.108591D+01          0.035793          0.082417
 Vib (V=0)    3  0.105402D+01          0.022848          0.052609
 Electronic      0.100000D+01          0.000000          0.000000
 Translational   0.187338D+08          7.272625         16.745838
 Rotational      0.302782D+05          4.481130         10.318183
 ***** Axes restored to original set *****
 -------------------------------------------------------------------
 Center     Atomic                   Forces (Hartrees/Bohr)
 Number     Number              X              Y              Z
 -------------------------------------------------------------------
      1        7           0.000025749    0.000027134    0.000075979
      2        8          -0.000019577    0.000023179   -0.000000737
      3        8          -0.000039461    0.000015909   -0.000026504
      4        6          -0.000007922   -0.000039059    0.000000653
      5        1          -0.000060093   -0.000042717   -0.000010140
      6        1          -0.000029649   -0.000101569   -0.000003607
      7        1           0.000130953    0.000117123   -0.000035643
 -------------------------------------------------------------------
 Cartesian Forces:  Max     0.000130953 RMS     0.000053931
 FormGI is forming the generalized inverse of G from B-inverse, IUseBI=4.

 GradGradGradGradGradGradGradGradGradGradGradGradGradGradGradGradGradGrad
 Berny optimization.
 Internal  Forces:  Max     0.000203269 RMS     0.000063605
 Search for a local minimum.
 Step number   1 out of a maximum of    2
 All quantities printed in internal units (Hartrees-Bohrs-Radians)
 Second derivative matrix not updated -- analytic derivatives used.
 The second derivative matrix:
                          R1        R2        R3        R4        R5
           R1           0.64425
           R2           0.07576   0.33917
           R3           0.07576   0.04162   0.67634
           R4          -0.00466   0.00535  -0.00310   0.51161
           R5          -0.00382  -0.00246   0.00257  -0.00005   0.38234
           R6          -0.00512  -0.00241   0.00226  -0.00009  -0.00188
           A1           0.03595   0.00410  -0.03722  -0.00740   0.00020
           A2           0.02449  -0.05862   0.01471   0.00441  -0.00496
           A3          -0.06043   0.05452   0.02251   0.00299   0.00476
           A4           0.00756   0.05722   0.00167   0.02117   0.00123
           A5          -0.00419   0.00383   0.01242  -0.00028   0.00526
           A6           0.00363  -0.00244   0.01481  -0.00017  -0.00707
           A7           0.00056  -0.00138  -0.02722   0.00045   0.00182
           D1           0.00000   0.00003   0.00001  -0.00004   0.00000
           D2          -0.00002   0.00003  -0.00002  -0.00005   0.00000
           D3          -0.00002  -0.00003   0.00002   0.00000   0.00001
           D4          -0.00001  -0.00002   0.00000  -0.00002   0.00000
           D5          -0.00001   0.00001   0.00003   0.00002   0.00001
           D6           0.00001   0.00002   0.00001   0.00000   0.00000
                          R6        A1        A2        A3        A4
           R6           0.38400
           A1           0.00064   0.22880
           A2           0.00577  -0.10713   0.18537
           A3          -0.00641  -0.12167  -0.07824   0.19992
           A4           0.00030  -0.03709   0.00137   0.03572   0.22578
           A5          -0.00587  -0.00078  -0.00918   0.00996   0.00392
           A6           0.00338  -0.00361   0.01017  -0.00656  -0.00181
           A7           0.00249   0.00440  -0.00099  -0.00341  -0.00211
           D1           0.00000  -0.00004   0.00003   0.00002  -0.00003
           D2           0.00000   0.00003  -0.00005   0.00001  -0.00007
           D3           0.00000  -0.00002   0.00001   0.00000   0.00000
           D4           0.00000  -0.00002   0.00001   0.00000  -0.00003
           D5           0.00000   0.00003  -0.00002   0.00001   0.00003
           D6           0.00000   0.00002  -0.00002   0.00001   0.00000
                          A5        A6        A7        D1        D2
           A5           0.08509
           A6          -0.05301   0.08652
           A7          -0.03208  -0.03351   0.06558
           D1          -0.00001   0.00001   0.00000   0.01109
           D2          -0.00001   0.00001   0.00000  -0.00597   0.01456
           D3           0.00002  -0.00001  -0.00001  -0.00986   0.00774
           D4          -0.00002   0.00000   0.00001  -0.01221   0.01160
           D5           0.00004  -0.00001  -0.00001   0.01009  -0.01625
           D6          -0.00001   0.00000   0.00001   0.00774  -0.01240
                          D3        D4        D5        D6
           D3           0.02252
           D4           0.01071   0.02899
           D5           0.00194  -0.01712   0.03274
           D6          -0.00986   0.00116   0.01368   0.02469
 ITU=  0
     Eigenvalues ---    0.00568   0.02806   0.02844   0.07239   0.09621
     Eigenvalues ---    0.13551   0.18387   0.20769   0.33699   0.38085
     Eigenvalues ---    0.38426   0.40992   0.51466   0.60900   0.75579
 Angle between quadratic step and forces=  65.62 degrees.
 Linear search not attempted -- first point.
 Iteration  1 RMS(Cart)=  0.00071105 RMS(Int)=  0.00000095
 Iteration  2 RMS(Cart)=  0.00000089 RMS(Int)=  0.00000003
 Variable       Old X    -DE/DX   Delta X   Delta X   Delta X     New X
                                 (Linear)    (Quad)   (Total)
    R1        2.33189  -0.00002   0.00000   0.00003   0.00003   2.33192
    R2        2.59960  -0.00009   0.00000  -0.00010  -0.00010   2.59950
    R3        2.44531  -0.00011   0.00000  -0.00015  -0.00015   2.44516
    R4        1.83859  -0.00001   0.00000   0.00001   0.00001   1.83860
    R5        2.05085  -0.00003   0.00000  -0.00008  -0.00008   2.05077
    R6        2.04993   0.00001   0.00000   0.00002   0.00002   2.04995
    A1        2.01592  -0.00005   0.00000  -0.00027  -0.00027   2.01565
    A2        2.25933   0.00005   0.00000   0.00015   0.00015   2.25948
    A3        2.00793   0.00000   0.00000   0.00012   0.00012   2.00805
    A4        1.78869  -0.00020   0.00000  -0.00093  -0.00093   1.78775
    A5        2.03366  -0.00003   0.00000  -0.00027  -0.00027   2.03339
    A6        2.06483  -0.00002   0.00000  -0.00024  -0.00024   2.06459
    A7        2.18470   0.00005   0.00000   0.00051   0.00051   2.18521
    D1       -0.00251   0.00002   0.00000   0.00216   0.00216  -0.00034
    D2        3.13961  -0.00001   0.00000   0.00167   0.00167   3.14128
    D3       -0.00079   0.00001   0.00000   0.00073   0.00073  -0.00006
    D4        3.14133  -0.00001   0.00000   0.00023   0.00023   3.14156
    D5        3.14018   0.00005   0.00000   0.00132   0.00132   3.14150
    D6       -0.00088   0.00003   0.00000   0.00081   0.00081  -0.00007
         Item               Value     Threshold  Converged?
 Maximum Force            0.000203     0.000450     YES
 RMS     Force            0.000064     0.000300     YES
 Maximum Displacement     0.001372     0.001800     YES
 RMS     Displacement     0.000711     0.001200     YES
 Predicted change in Energy=-1.970551D-07
 Optimization completed.
    -- Stationary point found.
                           ----------------------------
                           !   Optimized Parameters   !
                           ! (Angstroms and Degrees)  !
 --------------------------                            --------------------------
 ! Name  Definition              Value          Derivative Info.                !
 --------------------------------------------------------------------------------
 ! R1    R(1,2)                  1.234          -DE/DX =    0.0                 !
 ! R2    R(1,3)                  1.3756         -DE/DX =   -0.0001              !
 ! R3    R(1,4)                  1.294          -DE/DX =   -0.0001              !
 ! R4    R(3,7)                  0.9729         -DE/DX =    0.0                 !
 ! R5    R(4,5)                  1.0853         -DE/DX =    0.0                 !
 ! R6    R(4,6)                  1.0848         -DE/DX =    0.0                 !
 ! A1    A(2,1,3)              115.5036         -DE/DX =    0.0                 !
 ! A2    A(2,1,4)              129.4503         -DE/DX =    0.0                 !
 ! A3    A(3,1,4)              115.046          -DE/DX =    0.0                 !
 ! A4    A(1,3,7)              102.4841         -DE/DX =   -0.0002              !
 ! A5    A(1,4,5)              116.52           -DE/DX =    0.0                 !
 ! A6    A(1,4,6)              118.3058         -DE/DX =    0.0                 !
 ! A7    A(5,4,6)              125.1741         -DE/DX =    0.0001              !
 ! D1    D(2,1,3,7)             -0.1436         -DE/DX =    0.0                 !
 ! D2    D(4,1,3,7)            179.8865         -DE/DX =    0.0                 !
 ! D3    D(2,1,4,5)             -0.0455         -DE/DX =    0.0                 !
 ! D4    D(2,1,4,6)            179.9849         -DE/DX =    0.0                 !
 ! D5    D(3,1,4,5)            179.9193         -DE/DX =    0.0                 !
 ! D6    D(3,1,4,6)             -0.0504         -DE/DX =    0.0                 !
 --------------------------------------------------------------------------------
 GradGradGradGradGradGradGradGradGradGradGradGradGradGradGradGradGradGrad

 1\1\GINC-DC1S1B1A\Freq\RM062X\def2SVP\C1H3N1O2\CHMBNN\01-Nov-2020\0\\#
 N Geom=AllCheck Guess=TCheck SCRF=Check GenChk RM062X/def2SVP Freq\\CH
 2NO2H\\0,1\N,1.2261566209,-0.0260102096,0.1889660859\O,2.2973841847,0.
 0542628562,-0.4182715828\O,0.6317178317,-1.2665629463,0.1799715852\C,0
 .5772678826,0.8876957388,0.8358990351\H,1.0256542577,1.8757167634,0.85
 94562337\H,-0.3604133669,0.6155668954,1.3085869464\H,1.2575141694,-1.7
 958495478,-0.3442825536\\Version=ES64L-G09RevD.01\State=1-A\HF=-244.69
 77399\RMSD=4.889e-10\RMSF=5.393e-05\ZeroPoint=0.0501321\Thermal=0.0541
 225\Dipole=-0.7224348,-0.0922016,0.3969377\DipoleDeriv=1.7691627,-0.20
 02425,-0.9308775,-0.0622993,1.6956169,0.4445737,-0.8903851,0.5254775,0
 .9626849,-1.5424565,0.3603981,0.7712361,-0.0531747,-0.6638155,-0.04226
 1,0.6508431,-0.2853904,-0.8758114,-0.4223736,-0.2611856,-0.0478274,-0.
 1228601,-1.3471971,-0.2095997,-0.0078328,-0.12773,-0.4064843,-0.363406
 5,0.2345137,0.0781085,0.4174575,-0.4026881,-0.2617346,0.1309454,-0.153
 9427,-0.4681833,0.0879612,-0.0346915,0.0638473,-0.0264403,0.1506526,-0
 .002715,0.0664158,0.0018524,0.1751277,0.1611041,-0.0334049,0.0289667,-
 0.0567031,0.0785289,-0.009731,0.0222364,-0.0233771,0.2069439,0.3100085
 ,-0.0653873,0.0365461,-0.0959801,0.4889022,0.0814676,0.0277772,0.06311
 03,0.4057225\Polar=34.5363611,-5.6715399,38.8036091,-13.6359455,10.486
 9403,25.2391411\PG=C01 [X(C1H3N1O2)]\NImag=0\\0.71737713,-0.13513056,0
 .73009020,-0.33853574,0.23072733,0.47510967,-0.39650059,-0.01560654,0.
 18413234,0.49510102,-0.01270910,-0.12987868,-0.00813853,0.04354834,0.1
 1364192,0.18495431,-0.00645618,-0.18673274,-0.25797043,-0.00298864,0.1
 8641648,-0.12008725,0.01006705,0.04083609,-0.04621998,-0.06912612,0.01
 730630,0.38664358,-0.02733813,-0.19643977,-0.02458824,-0.05070386,-0.0
 1201606,0.02141582,-0.07693988,0.43723107,0.02995148,-0.04671303,-0.08
 707074,0.02263111,0.03224343,0.01316120,-0.23717478,0.16593878,0.21179
 542,-0.21601977,0.14459566,0.12687846,-0.05261131,0.03410278,0.0528296
 5,0.02114276,-0.01847743,-0.01023222,0.64052287,0.12181383,-0.33977323
 ,-0.14946643,0.02457886,0.01955564,-0.01468314,0.01187532,-0.07010018,
 -0.03103728,0.05465032,0.78117679,0.12028771,-0.16293287,-0.18974386,0
 .05004903,-0.02029629,-0.01498985,-0.00142556,-0.01312977,0.00989622,-
 0.31299058,0.17107507,0.31525180,0.00848404,0.01893351,0.00096868,-0.0
 0119130,0.00119019,-0.00233157,0.00022196,0.00238242,0.00453047,-0.107
 03984,-0.13487051,0.01065227,0.09828225,-0.00877118,-0.02055125,-0.001
 03049,-0.00286981,0.00150604,0.00379575,0.00323964,0.00123037,-0.00352
 340,-0.12057512,-0.30913958,-0.01247034,0.12776950,0.32465566,-0.00708
 768,-0.01730417,-0.00006828,-0.00349853,0.00139984,-0.00327548,0.00476
 721,-0.00300964,0.00306513,0.01480071,-0.00410152,-0.03216381,-0.01066
 421,0.01428076,0.02739828,-0.01500063,-0.00387583,0.00583345,0.0065213
 2,0.00116395,0.00300319,-0.00014304,-0.00234397,-0.00212838,-0.2828219
 7,-0.07334940,0.13211018,-0.00009814,0.00233989,0.00125645,0.29188140,
 0.02569689,0.00782824,-0.01192968,0.00079624,-0.00225006,-0.00433031,0
 .00159583,-0.00073105,-0.00039418,-0.08815257,-0.07867105,0.03542523,-
 0.01572805,0.00299218,0.00987429,0.07583106,0.07082923,0.01442097,0.00
 546560,-0.01007891,0.00290034,-0.00454160,0.00803087,-0.00098471,0.001
 92464,-0.00146901,0.12781732,0.02672601,-0.08951914,-0.00399561,-0.000
 76372,0.00300952,-0.13934198,-0.02916442,0.09114453,0.02174706,-0.0189
 8328,-0.02011328,-0.00509916,0.00182996,0.00220855,-0.24155804,0.17342
 085,0.19242233,-0.00317275,-0.00469842,0.00131695,0.00134103,-0.001132
 91,0.00042605,-0.00033896,-0.00003940,-0.00081632,0.22708082,0.0364382
 6,-0.05127550,-0.03557397,0.00025678,0.00944120,0.00324669,0.11928817,
 -0.15917438,-0.11651432,-0.00614363,-0.00304840,0.00232896,0.00032293,
 -0.00069341,-0.00113957,0.00023430,0.00000251,0.00035349,-0.15039680,0
 .20474798,-0.00399104,-0.00278668,-0.00141513,0.00175616,0.00232179,-0
 .00261048,0.17667545,-0.14855159,-0.14937822,0.00089666,0.00148729,0.0
 0126864,0.00083997,-0.00028856,0.00203463,-0.00073291,0.00051906,-0.00
 111788,-0.17544428,0.14729870,0.15121844\\-0.00002575,-0.00002713,-0.0
 0007598,0.00001958,-0.00002318,0.00000074,0.00003946,-0.00001591,0.000
 02650,0.00000792,0.00003906,-0.00000065,0.00006009,0.00004272,0.000010
 14,0.00002965,0.00010157,0.00000361,-0.00013095,-0.00011712,0.00003564
 \\\@


 THE ONLY TROUBLE WITH A SURE THING IS THE UNCERTAINTY.
     -- FROM A TEABAG (BELONGING TO W.H.?)
 Job cpu time:       0 days  0 hours  1 minutes  5.9 seconds.
 File lengths (MBytes):  RWF=     13 Int=      0 D2E=      0 Chk=      4 Scr=      1
 Normal termination of Gaussian 09 at Sun Nov  1 21:57:24 2020.
