 Entering Gaussian System, Link 0=g09
 Input=EtOH_opt.com
 Output=EtOH_opt.log
 Initial command:
 /apps/applications/gaussian/G09.D01/2/default/g09/l1.exe "/nobackup/chmbnn/Gau-8830.inp" -scrdir="/nobackup/chmbnn/"
 Entering Link 1 = /apps/applications/gaussian/G09.D01/2/default/g09/l1.exe PID=      8831.
  
 Copyright (c) 1988,1990,1992,1993,1995,1998,2003,2009,2013,
            Gaussian, Inc.  All Rights Reserved.
  
 This is part of the Gaussian(R) 09 program.  It is based on
 the Gaussian(R) 03 system (copyright 2003, Gaussian, Inc.),
 the Gaussian(R) 98 system (copyright 1998, Gaussian, Inc.),
 the Gaussian(R) 94 system (copyright 1995, Gaussian, Inc.),
 the Gaussian 92(TM) system (copyright 1992, Gaussian, Inc.),
 the Gaussian 90(TM) system (copyright 1990, Gaussian, Inc.),
 the Gaussian 88(TM) system (copyright 1988, Gaussian, Inc.),
 the Gaussian 86(TM) system (copyright 1986, Carnegie Mellon
 University), and the Gaussian 82(TM) system (copyright 1983,
 Carnegie Mellon University). Gaussian is a federally registered
 trademark of Gaussian, Inc.
  
 This software contains proprietary and confidential information,
 including trade secrets, belonging to Gaussian, Inc.
  
 This software is provided under written license and may be
 used, copied, transmitted, or stored only in accord with that
 written license.
  
 The following legend is applicable only to US Government
 contracts under FAR:
  
                    RESTRICTED RIGHTS LEGEND
  
 Use, reproduction and disclosure by the US Government is
 subject to restrictions as set forth in subparagraphs (a)
 and (c) of the Commercial Computer Software - Restricted
 Rights clause in FAR 52.227-19.
  
 Gaussian, Inc.
 340 Quinnipiac St., Bldg. 40, Wallingford CT 06492
  
  
 ---------------------------------------------------------------
 Warning -- This program may not be used in any manner that
 competes with the business of Gaussian, Inc. or will provide
 assistance to any competitor of Gaussian, Inc.  The licensee
 of this program is prohibited from giving any competitor of
 Gaussian, Inc. access to this program.  By using this program,
 the user acknowledges that Gaussian, Inc. is engaged in the
 business of creating and licensing software in the field of
 computational chemistry and represents and warrants to the
 licensee that it is not a competitor of Gaussian, Inc. and that
 it will not use this program in any manner prohibited above.
 ---------------------------------------------------------------
  

 Cite this work as:
 Gaussian 09, Revision D.01,
 M. J. Frisch, G. W. Trucks, H. B. Schlegel, G. E. Scuseria, 
 M. A. Robb, J. R. Cheeseman, G. Scalmani, V. Barone, B. Mennucci, 
 G. A. Petersson, H. Nakatsuji, M. Caricato, X. Li, H. P. Hratchian, 
 A. F. Izmaylov, J. Bloino, G. Zheng, J. L. Sonnenberg, M. Hada, 
 M. Ehara, K. Toyota, R. Fukuda, J. Hasegawa, M. Ishida, T. Nakajima, 
 Y. Honda, O. Kitao, H. Nakai, T. Vreven, J. A. Montgomery, Jr., 
 J. E. Peralta, F. Ogliaro, M. Bearpark, J. J. Heyd, E. Brothers, 
 K. N. Kudin, V. N. Staroverov, T. Keith, R. Kobayashi, J. Normand, 
 K. Raghavachari, A. Rendell, J. C. Burant, S. S. Iyengar, J. Tomasi, 
 M. Cossi, N. Rega, J. M. Millam, M. Klene, J. E. Knox, J. B. Cross, 
 V. Bakken, C. Adamo, J. Jaramillo, R. Gomperts, R. E. Stratmann, 
 O. Yazyev, A. J. Austin, R. Cammi, C. Pomelli, J. W. Ochterski, 
 R. L. Martin, K. Morokuma, V. G. Zakrzewski, G. A. Voth, 
 P. Salvador, J. J. Dannenberg, S. Dapprich, A. D. Daniels, 
 O. Farkas, J. B. Foresman, J. V. Ortiz, J. Cioslowski, 
 and D. J. Fox, Gaussian, Inc., Wallingford CT, 2013.
 
 ******************************************
 Gaussian 09:  ES64L-G09RevD.01 24-Apr-2013
                 1-Nov-2020 
 ******************************************
 %nprocshared=4
 Will use up to    4 processors via shared memory.
 %chk=EtOH_opt.chk
 ----------------------------------------------------
 # opt freq scrf=(cpcm,solvent=ethanol) def2svp m062x
 ----------------------------------------------------
 1/14=-1,18=20,19=15,26=3,38=1/1,3;
 2/9=110,12=2,17=6,18=5,40=1/2;
 3/5=43,7=101,11=2,16=1,25=1,30=1,70=2101,71=1,72=4,74=-55/1,2,3;
 4//1;
 5/5=2,38=5,53=4/2;
 6/7=2,8=2,9=2,10=2,28=1/1;
 7//1,2,3,16;
 1/14=-1,18=20,19=15,26=3/3(2);
 2/9=110/2;
 99//99;
 2/9=110/2;
 3/5=43,7=101,11=2,16=1,25=1,30=1,70=2105,71=1,72=4,74=-55/1,2,3;
 4/5=5,16=3,69=1/1;
 5/5=2,38=5,53=4/2;
 7//1,2,3,16;
 1/14=-1,18=20,19=15,26=3/3(-5);
 2/9=110/2;
 6/7=2,8=2,9=2,10=2,19=2,28=1/1;
 99/9=1/99;
 -------------
 EtOH opt freq
 -------------
 Symbolic Z-matrix:
 Charge =  0 Multiplicity = 1
 O                     1.0845    1.3925   -0.02226 
 H                     2.0445    1.3925   -0.02402 
 C                     0.60716   2.74047  -0.02226 
 H                     0.96357   3.24505   0.85139 
 H                     0.96357   3.24506  -0.89591 
 C                    -0.93284   2.7397   -0.02226 
 H                    -1.28925   2.23342   0.85041 
 H                    -1.29002   3.74832  -0.02031 
 H                    -1.28926   2.23681  -0.89689 
 

 GradGradGradGradGradGradGradGradGradGradGradGradGradGradGradGradGradGrad
 Berny optimization.
 Initialization pass.
                           ----------------------------
                           !    Initial Parameters    !
                           ! (Angstroms and Degrees)  !
 --------------------------                            --------------------------
 ! Name  Definition              Value          Derivative Info.                !
 --------------------------------------------------------------------------------
 ! R1    R(1,2)                  0.96           estimate D2E/DX2                !
 ! R2    R(1,3)                  1.43           estimate D2E/DX2                !
 ! R3    R(3,4)                  1.07           estimate D2E/DX2                !
 ! R4    R(3,5)                  1.07           estimate D2E/DX2                !
 ! R5    R(3,6)                  1.54           estimate D2E/DX2                !
 ! R6    R(6,7)                  1.07           estimate D2E/DX2                !
 ! R7    R(6,8)                  1.07           estimate D2E/DX2                !
 ! R8    R(6,9)                  1.07           estimate D2E/DX2                !
 ! A1    A(2,1,3)              109.5            estimate D2E/DX2                !
 ! A2    A(1,3,4)              109.4712         estimate D2E/DX2                !
 ! A3    A(1,3,5)              109.4712         estimate D2E/DX2                !
 ! A4    A(1,3,6)              109.4712         estimate D2E/DX2                !
 ! A5    A(4,3,5)              109.4712         estimate D2E/DX2                !
 ! A6    A(4,3,6)              109.4713         estimate D2E/DX2                !
 ! A7    A(5,3,6)              109.4712         estimate D2E/DX2                !
 ! A8    A(3,6,7)              109.4712         estimate D2E/DX2                !
 ! A9    A(3,6,8)              109.4712         estimate D2E/DX2                !
 ! A10   A(3,6,9)              109.4712         estimate D2E/DX2                !
 ! A11   A(7,6,8)              109.4713         estimate D2E/DX2                !
 ! A12   A(7,6,9)              109.4712         estimate D2E/DX2                !
 ! A13   A(8,6,9)              109.4712         estimate D2E/DX2                !
 ! D1    D(2,1,3,4)            -60.1111         estimate D2E/DX2                !
 ! D2    D(2,1,3,5)             59.8889         estimate D2E/DX2                !
 ! D3    D(2,1,3,6)            179.8889         estimate D2E/DX2                !
 ! D4    D(1,3,6,7)             59.8889         estimate D2E/DX2                !
 ! D5    D(1,3,6,8)            179.8889         estimate D2E/DX2                !
 ! D6    D(1,3,6,9)            -60.1111         estimate D2E/DX2                !
 ! D7    D(4,3,6,7)            -60.1111         estimate D2E/DX2                !
 ! D8    D(4,3,6,8)             59.8889         estimate D2E/DX2                !
 ! D9    D(4,3,6,9)            179.8889         estimate D2E/DX2                !
 ! D10   D(5,3,6,7)            179.8889         estimate D2E/DX2                !
 ! D11   D(5,3,6,8)            -60.1111         estimate D2E/DX2                !
 ! D12   D(5,3,6,9)             59.8889         estimate D2E/DX2                !
 --------------------------------------------------------------------------------
 Trust Radius=3.00D-01 FncErr=1.00D-07 GrdErr=1.00D-06
 Number of steps in this run=     43 maximum allowed number of steps=    100.
 GradGradGradGradGradGradGradGradGradGradGradGradGradGradGradGradGradGrad

                          Input orientation:                          
 ---------------------------------------------------------------------
 Center     Atomic      Atomic             Coordinates (Angstroms)
 Number     Number       Type             X           Y           Z
 ---------------------------------------------------------------------
      1          8           0        1.084501    1.392496   -0.022263
      2          1           0        2.044500    1.392495   -0.024018
      3          6           0        0.607157    2.740473   -0.022263
      4          1           0        0.963571    3.245055    0.851388
      5          1           0        0.963571    3.245055   -0.895915
      6          6           0       -0.932842    2.739699   -0.022264
      7          1           0       -1.289254    2.233424    0.850408
      8          1           0       -1.290016    3.748323   -0.020308
      9          1           0       -1.289256    2.236812   -0.896891
 ---------------------------------------------------------------------
                    Distance matrix (angstroms):
                    1          2          3          4          5
     1  O    0.000000
     2  H    0.960000   0.000000
     3  C    1.430000   1.970533   0.000000
     4  H    2.051796   2.316618   1.070000   0.000000
     5  H    2.051796   2.315295   1.070000   1.747303   0.000000
     6  C    2.425826   3.267955   1.540000   2.148263   2.148263
     7  H    2.665226   3.547633   2.148263   2.469538   3.024609
     8  H    3.344886   4.082761   2.148263   2.468154   2.469538
     9  H    2.666940   3.548057   2.148263   3.024610   2.468154
                    6          7          8          9
     6  C    0.000000
     7  H    1.070000   0.000000
     8  H    1.070000   1.747303   0.000000
     9  H    1.070000   1.747303   1.747303   0.000000
 Stoichiometry    C2H6O
 Framework group  C1[X(C2H6O)]
 Deg. of freedom    21
 Full point group                 C1      NOp   1
 Largest Abelian subgroup         C1      NOp   1
 Largest concise Abelian subgroup C1      NOp   1
                         Standard orientation:                         
 ---------------------------------------------------------------------
 Center     Atomic      Atomic             Coordinates (Angstroms)
 Number     Number       Type             X           Y           Z
 ---------------------------------------------------------------------
      1          8           0       -1.169969   -0.391235   -0.000068
      2          1           0       -2.003631    0.084795    0.001687
      3          6           0       -0.087029    0.542650   -0.000068
      4          1           0       -0.146334    1.157561   -0.873719
      5          1           0       -0.146333    1.157561    0.873584
      6          6           0        1.249922   -0.221655   -0.000067
      7          1           0        1.308386   -0.838036   -0.872739
      8          1           0        2.060233    0.477124   -0.002023
      9          1           0        1.310068   -0.835095    0.874560
 ---------------------------------------------------------------------
 Rotational constants (GHZ):     36.3552720      9.0935551      7.9810065
 Standard basis: def2SVP (5D, 7F)
 There are    75 symmetry adapted cartesian basis functions of A   symmetry.
 There are    72 symmetry adapted basis functions of A   symmetry.
    72 basis functions,   117 primitive gaussians,    75 cartesian basis functions
    13 alpha electrons       13 beta electrons
       nuclear repulsion energy        81.6946246295 Hartrees.
 NAtoms=    9 NActive=    9 NUniq=    9 SFac= 1.00D+00 NAtFMM=   60 NAOKFM=F Big=F
 Integral buffers will be    131072 words long.
 Raffenetti 2 integral format.
 Two-electron integral symmetry is turned on.
 ------------------------------------------------------------------------------
 Polarizable Continuum Model (PCM)
 =================================
 Model                : C-PCM.
 Atomic radii         : UFF (Universal Force Field).
 Polarization charges : Total charges.
 Charge compensation  : None.
 Solution method      : On-the-fly selection.
 Cavity type          : Scaled VdW (van der Waals Surface) (Alpha=1.100).
 Cavity algorithm     : GePol (No added spheres)
                        Default sphere list used, NSphG=    9.
                        Lebedev-Laikov grids with approx.  5.0 points / Ang**2.
                        Smoothing algorithm: Karplus/York (Gamma=1.0000).
                        Polarization charges: spherical gaussians, with
                                              point-specific exponents (IZeta= 3).
                        Self-potential: point-specific (ISelfS= 7).
                        Self-field    : sphere-specific E.n sum rule (ISelfD= 2).
 1st derivatives      : Analytical E(r).r(x)/FMM algorithm (CHGder, D1EAlg=3).
                        Cavity 1st derivative terms included.
 Solvent              : Ethanol, Eps=  24.852000 Eps(inf)=   1.852593
 ------------------------------------------------------------------------------
 Spheres list:
 ISph  on   Nord     Re0    Alpha      Xe            Ye            Ze
    1   O      1    1.7500  1.100     -1.169969     -0.391235     -0.000068
    2   H      2    1.4430  1.100     -2.003631      0.084795      0.001687
    3   C      3    1.9255  1.100     -0.087029      0.542650     -0.000068
    4   H      4    1.4430  1.100     -0.146334      1.157561     -0.873719
    5   H      5    1.4430  1.100     -0.146333      1.157561      0.873584
    6   C      6    1.9255  1.100      1.249922     -0.221655     -0.000067
    7   H      7    1.4430  1.100      1.308386     -0.838036     -0.872739
    8   H      8    1.4430  1.100      2.060233      0.477124     -0.002023
    9   H      9    1.4430  1.100      1.310068     -0.835095      0.874560
 ------------------------------------------------------------------------------
 One-electron integrals computed using PRISM.
   1 Symmetry operations used in ECPInt.
 ECPInt:  NShTT=     666 NPrTT=    2268 LenC2=     667 LenP2D=    2072.
 LDataN:  DoStor=T MaxTD1= 4 Len=   56
 NBasis=    72 RedAO= T EigKep=  3.79D-03  NBF=    72
 NBsUse=    72 1.00D-06 EigRej= -1.00D+00 NBFU=    72
 ExpMin= 1.22D-01 ExpMax= 2.27D+03 ExpMxC= 3.41D+02 IAcc=1 IRadAn=         1 AccDes= 0.00D+00
 Harris functional with IExCor= 1009 and IRadAn=       1 diagonalized for initial guess.
 HarFok:  IExCor= 1009 AccDes= 0.00D+00 IRadAn=         1 IDoV= 1 UseB2=F ITyADJ=14
 ICtDFT=  3500011 ScaDFX=  1.000000  1.000000  1.000000  1.000000
 FoFCou: FMM=F IPFlag=           0 FMFlag=      100000 FMFlg1=           0
         NFxFlg=           0 DoJE=T BraDBF=F KetDBF=T FulRan=T
         wScrn=  0.000000 ICntrl=     500 IOpCl=  0 I1Cent=   200000004 NGrid=           0
         NMat0=    1 NMatS0=      1 NMatT0=    0 NMatD0=    1 NMtDS0=    0 NMtDT0=    0
 Petite list used in FoFCou.
 Keep R1 ints in memory in canonical form, NReq=7186365.
 Requested convergence on RMS density matrix=1.00D-08 within 128 cycles.
 Requested convergence on MAX density matrix=1.00D-06.
 Requested convergence on             energy=1.00D-06.
 No special actions if energy rises.
 Inv3:  Mode=1 IEnd=     2027052.
 Iteration    1 A*A^-1 deviation from unit magnitude is 2.66D-15 for    440.
 Iteration    1 A*A^-1 deviation from orthogonality  is 2.25D-15 for    735    267.
 Iteration    1 A^-1*A deviation from unit magnitude is 2.66D-15 for    631.
 Iteration    1 A^-1*A deviation from orthogonality  is 1.38D-15 for    772    729.
 Error on total polarization charges =  0.00566
 SCF Done:  E(RM062X) =  -154.840151531     A.U. after   11 cycles
            NFock= 11  Conv=0.18D-08     -V/T= 2.0088

 **********************************************************************

            Population analysis using the SCF density.

 **********************************************************************

 Orbital symmetries:
       Occupied  (A) (A) (A) (A) (A) (A) (A) (A) (A) (A) (A) (A)
                 (A)
       Virtual   (A) (A) (A) (A) (A) (A) (A) (A) (A) (A) (A) (A)
                 (A) (A) (A) (A) (A) (A) (A) (A) (A) (A) (A) (A)
                 (A) (A) (A) (A) (A) (A) (A) (A) (A) (A) (A) (A)
                 (A) (A) (A) (A) (A) (A) (A) (A) (A) (A) (A) (A)
                 (A) (A) (A) (A) (A) (A) (A) (A) (A) (A) (A)
 The electronic state is 1-A.
 Alpha  occ. eigenvalues --  -19.61592 -10.58614 -10.53351  -1.11111  -0.83340
 Alpha  occ. eigenvalues --   -0.69168  -0.58404  -0.53981  -0.46807  -0.44859
 Alpha  occ. eigenvalues --   -0.43666  -0.38912  -0.34173
 Alpha virt. eigenvalues --    0.10122   0.13291   0.17124   0.17463   0.18892
 Alpha virt. eigenvalues --    0.20892   0.25329   0.27083   0.48048   0.49281
 Alpha virt. eigenvalues --    0.51705   0.55985   0.62034   0.65258   0.69843
 Alpha virt. eigenvalues --    0.73262   0.74012   0.74564   0.76503   0.76763
 Alpha virt. eigenvalues --    0.78831   0.94217   1.05973   1.06850   1.13517
 Alpha virt. eigenvalues --    1.26994   1.33067   1.42439   1.46314   1.53134
 Alpha virt. eigenvalues --    1.57918   1.60259   1.76098   1.78312   1.80119
 Alpha virt. eigenvalues --    1.84418   1.87920   1.92230   1.92569   1.94361
 Alpha virt. eigenvalues --    1.98834   2.11040   2.23898   2.24587   2.30539
 Alpha virt. eigenvalues --    2.44039   2.45699   2.55945   2.62280   2.77865
 Alpha virt. eigenvalues --    2.86696   2.92631   2.99548   3.01063   3.05804
 Alpha virt. eigenvalues --    3.15465   3.19399   3.38673   3.80836
          Condensed to atoms (all electrons):
               1          2          3          4          5          6
     1  O    7.881707   0.327492   0.316218  -0.031833  -0.031800  -0.066227
     2  H    0.327492   0.496195  -0.021707  -0.004074  -0.004132   0.008161
     3  C    0.316218  -0.021707   4.422629   0.397622   0.397607   0.415681
     4  H   -0.031833  -0.004074   0.397622   0.692880  -0.043930  -0.030754
     5  H   -0.031800  -0.004132   0.397607  -0.043930   0.692823  -0.030679
     6  C   -0.066227   0.008161   0.415681  -0.030754  -0.030679   4.640583
     7  H    0.004911  -0.000204  -0.020202  -0.012849   0.009723   0.387072
     8  H    0.003593  -0.000498  -0.010565  -0.002290  -0.002262   0.378952
     9  H    0.004902  -0.000202  -0.020181   0.009720  -0.012907   0.387113
               7          8          9
     1  O    0.004911   0.003593   0.004902
     2  H   -0.000204  -0.000498  -0.000202
     3  C   -0.020202  -0.010565  -0.020181
     4  H   -0.012849  -0.002290   0.009720
     5  H    0.009723  -0.002262  -0.012907
     6  C    0.387072   0.378952   0.387113
     7  H    0.635398  -0.016606  -0.027652
     8  H   -0.016606   0.621188  -0.016618
     9  H   -0.027652  -0.016618   0.635408
 Mulliken charges:
               1
     1  O   -0.408965
     2  H    0.198969
     3  C    0.122899
     4  H    0.025508
     5  H    0.025558
     6  C   -0.089902
     7  H    0.040409
     8  H    0.045107
     9  H    0.040417
 Sum of Mulliken charges =   0.00000
 Mulliken charges with hydrogens summed into heavy atoms:
               1
     1  O   -0.209996
     3  C    0.173965
     6  C    0.036031
 Electronic spatial extent (au):  <R**2>=            194.6581
 Charge=              0.0000 electrons
 Dipole moment (field-independent basis, Debye):
    X=             -0.1958    Y=              1.9520    Z=              0.0035  Tot=              1.9618
 Quadrupole moment (field-independent basis, Debye-Ang):
   XX=            -16.4472   YY=            -20.3279   ZZ=            -19.6925
   XY=             -1.9719   XZ=             -0.0078   YZ=              0.0008
 Traceless Quadrupole moment (field-independent basis, Debye-Ang):
   XX=              2.3753   YY=             -1.5054   ZZ=             -0.8700
   XY=             -1.9719   XZ=             -0.0078   YZ=              0.0008
 Octapole moment (field-independent basis, Debye-Ang**2):
  XXX=            -16.3140  YYY=             -0.0366  ZZZ=              0.0053  XYY=             -0.8110
  XXY=              3.3176  XXZ=              0.0147  XZZ=             -1.4754  YZZ=             -0.0689
  YYZ=             -0.0013  XYZ=             -0.0017
 Hexadecapole moment (field-independent basis, Debye-Ang**3):
 XXXX=           -131.4416 YYYY=            -54.3558 ZZZZ=            -31.0312 XXXY=             -0.0062
 XXXZ=             -0.0311 YYYX=              1.0222 YYYZ=              0.0039 ZZZX=              0.0087
 ZZZY=             -0.0008 XXYY=            -35.7629 XXZZ=            -32.3686 YYZZ=            -13.1396
 XXYZ=             -0.0027 YYXZ=             -0.0014 ZZXY=             -0.6308
 N-N= 8.169462462952D+01 E-N=-5.249359015298D+02  KE= 1.534884943093D+02
   1 Symmetry operations used in ECPInt.
 ECPInt:  NShTT=     666 NPrTT=    2268 LenC2=     667 LenP2D=    2072.
 LDataN:  DoStor=T MaxTD1= 5 Len=  102
 D1PCM: C-PCM CHGder 1st derivatives, ID1Alg=3 FixD1E=F DoIter=F DoCFld=F I1PDM=0.
 Calling FoFJK, ICntrl=      2127 FMM=F ISym2X=0 I1Cent= 0 IOpClX= 0 NMat=1 NMatS=1 NMatT=0.
 ***** Axes restored to original set *****
 -------------------------------------------------------------------
 Center     Atomic                   Forces (Hartrees/Bohr)
 Number     Number              X              Y              Z
 -------------------------------------------------------------------
      1        8          -0.013325523    0.003945380    0.000002306
      2        1           0.003242503    0.003186200   -0.000006462
      3        6          -0.018332786   -0.031101245    0.000004120
      4        1           0.007564685    0.013663773    0.017430211
      5        1           0.007558761    0.013671718   -0.017419424
      6        6           0.036663673   -0.002608690   -0.000020475
      7        1          -0.007937380   -0.009616230    0.016111364
      8        1          -0.007484311    0.018424389    0.000031648
      9        1          -0.007949622   -0.009565295   -0.016133288
 -------------------------------------------------------------------
 Cartesian Forces:  Max     0.036663673 RMS     0.013862995

 GradGradGradGradGradGradGradGradGradGradGradGradGradGradGradGradGradGrad
 Berny optimization.
 FormGI is forming the generalized inverse of G from B-inverse, IUseBI=4.
 Internal  Forces:  Max     0.023195284 RMS     0.009129166
 Search for a local minimum.
 Step number   1 out of a maximum of   43
 All quantities printed in internal units (Hartrees-Bohrs-Radians)
 Mixed Optimization -- RFO/linear search
 Second derivative matrix not updated -- first step.
 ITU=  0
     Eigenvalues ---    0.00237   0.01295   0.05139   0.05720   0.05720
     Eigenvalues ---    0.05816   0.11239   0.13704   0.16000   0.16000
     Eigenvalues ---    0.16000   0.16000   0.22071   0.28519   0.37230
     Eigenvalues ---    0.37230   0.37230   0.37230   0.37230   0.40989
     Eigenvalues ---    0.55473
 RFO step:  Lambda=-7.75103355D-03 EMin= 2.36824061D-03
 Linear search not attempted -- first point.
 Iteration  1 RMS(Cart)=  0.03129699 RMS(Int)=  0.00034755
 Iteration  2 RMS(Cart)=  0.00025565 RMS(Int)=  0.00010165
 Iteration  3 RMS(Cart)=  0.00000010 RMS(Int)=  0.00010165
 Variable       Old X    -DE/DX   Delta X   Delta X   Delta X     New X
                                 (Linear)    (Quad)   (Total)
    R1        1.81414   0.00324   0.00000   0.00577   0.00577   1.81991
    R2        2.70231  -0.01009   0.00000  -0.02416  -0.02416   2.67814
    R3        2.02201   0.02320   0.00000   0.06103   0.06103   2.08304
    R4        2.02201   0.02319   0.00000   0.06101   0.06101   2.08302
    R5        2.91018  -0.01329   0.00000  -0.04537  -0.04537   2.86481
    R6        2.02201   0.02033   0.00000   0.05351   0.05351   2.07551
    R7        2.02201   0.01986   0.00000   0.05227   0.05227   2.07427
    R8        2.02201   0.02033   0.00000   0.05350   0.05350   2.07551
    A1        1.91114  -0.00579   0.00000  -0.03450  -0.03450   1.87664
    A2        1.91063   0.00401   0.00000   0.02454   0.02444   1.93507
    A3        1.91063   0.00401   0.00000   0.02451   0.02441   1.93505
    A4        1.91063  -0.00878   0.00000  -0.03599  -0.03588   1.87475
    A5        1.91063  -0.00226   0.00000  -0.01721  -0.01742   1.89321
    A6        1.91063   0.00151   0.00000   0.00210   0.00225   1.91289
    A7        1.91063   0.00151   0.00000   0.00206   0.00221   1.91284
    A8        1.91063   0.00129   0.00000   0.00752   0.00750   1.91813
    A9        1.91063   0.00082   0.00000   0.00520   0.00518   1.91581
   A10        1.91063   0.00132   0.00000   0.00770   0.00768   1.91831
   A11        1.91063  -0.00102   0.00000  -0.00576  -0.00578   1.90486
   A12        1.91063  -0.00139   0.00000  -0.00895  -0.00897   1.90166
   A13        1.91063  -0.00102   0.00000  -0.00572  -0.00575   1.90488
    D1       -1.04914  -0.00107   0.00000  -0.00441  -0.00474  -1.05388
    D2        1.04526   0.00107   0.00000   0.00454   0.00487   1.05013
    D3        3.13965   0.00000   0.00000   0.00003   0.00003   3.13968
    D4        1.04526  -0.00005   0.00000  -0.00031  -0.00031   1.04495
    D5        3.13965   0.00000   0.00000   0.00043   0.00043   3.14009
    D6       -1.04914   0.00006   0.00000   0.00133   0.00132  -1.04781
    D7       -1.04914  -0.00050   0.00000  -0.00961  -0.00963  -1.05877
    D8        1.04526  -0.00046   0.00000  -0.00886  -0.00889   1.03637
    D9        3.13965  -0.00040   0.00000  -0.00797  -0.00800   3.13166
   D10        3.13965   0.00041   0.00000   0.00893   0.00896  -3.13457
   D11       -1.04914   0.00046   0.00000   0.00968   0.00970  -1.03944
   D12        1.04526   0.00052   0.00000   0.01057   0.01059   1.05585
         Item               Value     Threshold  Converged?
 Maximum Force            0.023195     0.000450     NO 
 RMS     Force            0.009129     0.000300     NO 
 Maximum Displacement     0.078859     0.001800     NO 
 RMS     Displacement     0.031192     0.001200     NO 
 Predicted change in Energy=-3.967277D-03
 GradGradGradGradGradGradGradGradGradGradGradGradGradGradGradGradGradGrad

                          Input orientation:                          
 ---------------------------------------------------------------------
 Center     Atomic      Atomic             Coordinates (Angstroms)
 Number     Number       Type             X           Y           Z
 ---------------------------------------------------------------------
      1          8           0        1.042771    1.390586   -0.022450
      2          1           0        2.005809    1.395496   -0.024136
      3          6           0        0.609168    2.739838   -0.022203
      4          1           0        0.975187    3.269797    0.872354
      5          1           0        0.975260    3.270117   -0.916528
      6          6           0       -0.906789    2.729248   -0.022306
      7          1           0       -1.277077    2.208094    0.870767
      8          1           0       -1.285236    3.759602   -0.020566
      9          1           0       -1.277161    2.211053   -0.917059
 ---------------------------------------------------------------------
                    Distance matrix (angstroms):
                    1          2          3          4          5
     1  O    0.000000
     2  H    0.963053   0.000000
     3  C    1.417213   1.938522   0.000000
     4  H    2.082469   2.319242   1.102297   0.000000
     5  H    2.082443   2.317887   1.102287   1.788881   0.000000
     6  C    2.364910   3.203456   1.515994   2.152775   2.152737
     7  H    2.616839   3.498358   2.153617   2.489961   3.065181
     8  H    3.321424   4.052159   2.151438   2.479259   2.480359
     9  H    2.618315   3.498619   2.153745   3.065291   2.488979
                    6          7          8          9
     6  C    0.000000
     7  H    1.098314   0.000000
     8  H    1.097659   1.789334   0.000000
     9  H    1.098310   1.787828   1.789349   0.000000
 Stoichiometry    C2H6O
 Framework group  C1[X(C2H6O)]
 Deg. of freedom    21
 Full point group                 C1      NOp   1
 Largest Abelian subgroup         C1      NOp   1
 Largest concise Abelian subgroup C1      NOp   1
                         Standard orientation:                         
 ---------------------------------------------------------------------
 Center     Atomic      Atomic             Coordinates (Angstroms)
 Number     Number       Type             X           Y           Z
 ---------------------------------------------------------------------
      1          8           0       -1.142088   -0.398064   -0.000201
      2          1           0       -1.971557    0.091270    0.001435
      3          6           0       -0.087877    0.549107   -0.000086
      4          1           0       -0.136969    1.191461   -0.894529
      5          1           0       -0.137180    1.191435    0.894353
      6          6           0        1.216382   -0.223646    0.000096
      7          1           0        1.273907   -0.860205   -0.893088
      8          1           0        2.062312    0.475821   -0.001365
      9          1           0        1.275160   -0.858031    0.894739
 ---------------------------------------------------------------------
 Rotational constants (GHZ):     34.9490772      9.4640150      8.2290496
 Standard basis: def2SVP (5D, 7F)
 There are    75 symmetry adapted cartesian basis functions of A   symmetry.
 There are    72 symmetry adapted basis functions of A   symmetry.
    72 basis functions,   117 primitive gaussians,    75 cartesian basis functions
    13 alpha electrons       13 beta electrons
       nuclear repulsion energy        81.9087724987 Hartrees.
 NAtoms=    9 NActive=    9 NUniq=    9 SFac= 1.00D+00 NAtFMM=   60 NAOKFM=F Big=F
 Integral buffers will be    131072 words long.
 Raffenetti 2 integral format.
 Two-electron integral symmetry is turned on.
 ------------------------------------------------------------------------------
 Polarizable Continuum Model (PCM)
 =================================
 Model                : C-PCM.
 Atomic radii         : UFF (Universal Force Field).
 Polarization charges : Total charges.
 Charge compensation  : None.
 Solution method      : On-the-fly selection.
 Cavity type          : Scaled VdW (van der Waals Surface) (Alpha=1.100).
 Cavity algorithm     : GePol (No added spheres)
                        Default sphere list used, NSphG=    9.
                        Lebedev-Laikov grids with approx.  5.0 points / Ang**2.
                        Smoothing algorithm: Karplus/York (Gamma=1.0000).
                        Polarization charges: spherical gaussians, with
                                              point-specific exponents (IZeta= 3).
                        Self-potential: point-specific (ISelfS= 7).
                        Self-field    : sphere-specific E.n sum rule (ISelfD= 2).
 1st derivatives      : Analytical E(r).r(x)/FMM algorithm (CHGder, D1EAlg=3).
                        Cavity 1st derivative terms included.
 Solvent              : Ethanol, Eps=  24.852000 Eps(inf)=   1.852593
 ------------------------------------------------------------------------------
 Spheres list:
 ISph  on   Nord     Re0    Alpha      Xe            Ye            Ze
    1   O      1    1.7500  1.100     -1.142088     -0.398064     -0.000201
    2   H      2    1.4430  1.100     -1.971557      0.091270      0.001435
    3   C      3    1.9255  1.100     -0.087877      0.549107     -0.000086
    4   H      4    1.4430  1.100     -0.136969      1.191461     -0.894529
    5   H      5    1.4430  1.100     -0.137180      1.191435      0.894353
    6   C      6    1.9255  1.100      1.216382     -0.223646      0.000096
    7   H      7    1.4430  1.100      1.273907     -0.860205     -0.893088
    8   H      8    1.4430  1.100      2.062312      0.475821     -0.001365
    9   H      9    1.4430  1.100      1.275160     -0.858031      0.894739
 ------------------------------------------------------------------------------
 One-electron integrals computed using PRISM.
   1 Symmetry operations used in ECPInt.
 ECPInt:  NShTT=     666 NPrTT=    2268 LenC2=     667 LenP2D=    2070.
 LDataN:  DoStor=T MaxTD1= 4 Len=   56
 NBasis=    72 RedAO= T EigKep=  3.66D-03  NBF=    72
 NBsUse=    72 1.00D-06 EigRej= -1.00D+00 NBFU=    72
 Initial guess from the checkpoint file:  "EtOH_opt.chk"
 B after Tr=     0.000000    0.000000    0.000000
         Rot=    1.000000   -0.000060    0.000069    0.000980 Ang=  -0.11 deg.
 ExpMin= 1.22D-01 ExpMax= 2.27D+03 ExpMxC= 3.41D+02 IAcc=1 IRadAn=         1 AccDes= 0.00D+00
 Harris functional with IExCor= 1009 and IRadAn=       1 diagonalized for initial guess.
 HarFok:  IExCor= 1009 AccDes= 0.00D+00 IRadAn=         1 IDoV= 1 UseB2=F ITyADJ=14
 ICtDFT=  3500011 ScaDFX=  1.000000  1.000000  1.000000  1.000000
 FoFCou: FMM=F IPFlag=           0 FMFlag=      100000 FMFlg1=           0
         NFxFlg=           0 DoJE=T BraDBF=F KetDBF=T FulRan=T
         wScrn=  0.000000 ICntrl=     500 IOpCl=  0 I1Cent=   200000004 NGrid=           0
         NMat0=    1 NMatS0=      1 NMatT0=    0 NMatD0=    1 NMtDS0=    0 NMtDT0=    0
 Petite list used in FoFCou.
 Keep R1 ints in memory in canonical form, NReq=7166431.
 Requested convergence on RMS density matrix=1.00D-08 within 128 cycles.
 Requested convergence on MAX density matrix=1.00D-06.
 Requested convergence on             energy=1.00D-06.
 No special actions if energy rises.
 Inv3:  Mode=1 IEnd=     1973163.
 Iteration    1 A*A^-1 deviation from unit magnitude is 3.33D-15 for    448.
 Iteration    1 A*A^-1 deviation from orthogonality  is 2.10D-15 for    810    351.
 Iteration    1 A^-1*A deviation from unit magnitude is 3.11D-15 for    448.
 Iteration    1 A^-1*A deviation from orthogonality  is 2.44D-15 for    787      3.
 Error on total polarization charges =  0.00593
 SCF Done:  E(RM062X) =  -154.844032289     A.U. after    9 cycles
            NFock=  9  Conv=0.86D-08     -V/T= 2.0097
   1 Symmetry operations used in ECPInt.
 ECPInt:  NShTT=     666 NPrTT=    2268 LenC2=     667 LenP2D=    2070.
 LDataN:  DoStor=T MaxTD1= 5 Len=  102
 D1PCM: C-PCM CHGder 1st derivatives, ID1Alg=3 FixD1E=F DoIter=F DoCFld=F I1PDM=0.
 Calling FoFJK, ICntrl=      2127 FMM=F ISym2X=0 I1Cent= 0 IOpClX= 0 NMat=1 NMatS=1 NMatT=0.
 ***** Axes restored to original set *****
 -------------------------------------------------------------------
 Center     Atomic                   Forces (Hartrees/Bohr)
 Number     Number              X              Y              Z
 -------------------------------------------------------------------
      1        8           0.000819159    0.003843390   -0.000009640
      2        1           0.000952955   -0.001343367    0.000002270
      3        6          -0.004369253   -0.008124901   -0.000006513
      4        1           0.001354834    0.001660477    0.000095086
      5        1           0.001355601    0.001669386   -0.000088483
      6        6           0.003778559    0.002851079    0.000006330
      7        1          -0.000893896   -0.000153214   -0.000063343
      8        1          -0.002105315   -0.000237830   -0.000005584
      9        1          -0.000892644   -0.000165020    0.000069877
 -------------------------------------------------------------------
 Cartesian Forces:  Max     0.008124901 RMS     0.002285580

 GradGradGradGradGradGradGradGradGradGradGradGradGradGradGradGradGradGrad
 Berny optimization.
 Using GEDIIS/GDIIS optimizer.
 FormGI is forming the generalized inverse of G from B-inverse, IUseBI=4.
 Internal  Forces:  Max     0.002791365 RMS     0.001135100
 Search for a local minimum.
 Step number   2 out of a maximum of   43
 All quantities printed in internal units (Hartrees-Bohrs-Radians)
 Mixed Optimization -- RFO/linear search
 Update second derivatives using D2CorX and points    1    2
 DE= -3.88D-03 DEPred=-3.97D-03 R= 9.78D-01
 TightC=F SS=  1.41D+00  RLast= 1.53D-01 DXNew= 5.0454D-01 4.5913D-01
 Trust test= 9.78D-01 RLast= 1.53D-01 DXMaxT set to 4.59D-01
 ITU=  1  0
 Use linear search instead of GDIIS.
     Eigenvalues ---    0.00237   0.01295   0.05316   0.05636   0.05651
     Eigenvalues ---    0.05785   0.11029   0.13558   0.15663   0.16000
     Eigenvalues ---    0.16000   0.16326   0.22691   0.28765   0.36206
     Eigenvalues ---    0.37230   0.37230   0.37230   0.37588   0.40877
     Eigenvalues ---    0.55428
 RFO step:  Lambda=-2.93372545D-04 EMin= 2.36823951D-03
 Quartic linear search produced a step of  0.02003.
 Iteration  1 RMS(Cart)=  0.00882332 RMS(Int)=  0.00006530
 Iteration  2 RMS(Cart)=  0.00008130 RMS(Int)=  0.00003673
 Iteration  3 RMS(Cart)=  0.00000000 RMS(Int)=  0.00003673
 Variable       Old X    -DE/DX   Delta X   Delta X   Delta X     New X
                                 (Linear)    (Quad)   (Total)
    R1        1.81991   0.00095   0.00012   0.00185   0.00197   1.82187
    R2        2.67814  -0.00185  -0.00048  -0.00503  -0.00551   2.67263
    R3        2.08304   0.00133   0.00122   0.00474   0.00596   2.08900
    R4        2.08302   0.00133   0.00122   0.00474   0.00596   2.08898
    R5        2.86481   0.00010  -0.00091  -0.00047  -0.00138   2.86343
    R6        2.07551   0.00032   0.00107   0.00186   0.00293   2.07844
    R7        2.07427   0.00050   0.00105   0.00232   0.00336   2.07764
    R8        2.07551   0.00032   0.00107   0.00186   0.00293   2.07844
    A1        1.87664   0.00244  -0.00069   0.01487   0.01418   1.89082
    A2        1.93507  -0.00077   0.00049   0.00037   0.00078   1.93585
    A3        1.93505  -0.00077   0.00049   0.00037   0.00078   1.93582
    A4        1.87475   0.00261  -0.00072   0.01579   0.01499   1.88974
    A5        1.89321  -0.00106  -0.00035  -0.02026  -0.02061   1.87260
    A6        1.91289   0.00002   0.00005   0.00208   0.00208   1.91496
    A7        1.91284   0.00002   0.00004   0.00212   0.00212   1.91496
    A8        1.91813   0.00051   0.00015   0.00243   0.00254   1.92067
    A9        1.91581   0.00279   0.00010   0.01980   0.01983   1.93564
   A10        1.91831   0.00051   0.00015   0.00241   0.00253   1.92084
   A11        1.90486  -0.00147  -0.00012  -0.00754  -0.00773   1.89713
   A12        1.90166  -0.00093  -0.00018  -0.00993  -0.01011   1.89155
   A13        1.90488  -0.00147  -0.00012  -0.00753  -0.00772   1.89717
    D1       -1.05388   0.00119  -0.00009   0.01270   0.01261  -1.04127
    D2        1.05013  -0.00119   0.00010  -0.01236  -0.01227   1.03785
    D3        3.13968   0.00000   0.00000   0.00019   0.00019   3.13988
    D4        1.04495  -0.00025  -0.00001  -0.00304  -0.00307   1.04188
    D5        3.14009   0.00000   0.00001   0.00156   0.00157  -3.14153
    D6       -1.04781   0.00026   0.00003   0.00618   0.00623  -1.04158
    D7       -1.05877  -0.00089  -0.00019  -0.01413  -0.01437  -1.07313
    D8        1.03637  -0.00063  -0.00018  -0.00953  -0.00972   1.02665
    D9        3.13166  -0.00038  -0.00016  -0.00491  -0.00506   3.12659
   D10       -3.13457   0.00039   0.00018   0.00806   0.00824  -3.12633
   D11       -1.03944   0.00064   0.00019   0.01267   0.01289  -1.02655
   D12        1.05585   0.00090   0.00021   0.01729   0.01754   1.07339
         Item               Value     Threshold  Converged?
 Maximum Force            0.002791     0.000450     NO 
 RMS     Force            0.001135     0.000300     NO 
 Maximum Displacement     0.026624     0.001800     NO 
 RMS     Displacement     0.008782     0.001200     NO 
 Predicted change in Energy=-1.484666D-04
 GradGradGradGradGradGradGradGradGradGradGradGradGradGradGradGradGradGrad

                          Input orientation:                          
 ---------------------------------------------------------------------
 Center     Atomic      Atomic             Coordinates (Angstroms)
 Number     Number       Type             X           Y           Z
 ---------------------------------------------------------------------
      1          8           0        1.051356    1.390135   -0.023127
      2          1           0        2.015447    1.388955   -0.024554
      3          6           0        0.608076    2.733168   -0.022071
      4          1           0        0.981014    3.271149    0.868724
      5          1           0        0.981278    3.272599   -0.911865
      6          6           0       -0.907187    2.733388   -0.022298
      7          1           0       -1.284411    2.211331    0.869252
      8          1           0       -1.299325    3.760516   -0.021568
      9          1           0       -1.284318    2.212591   -0.914619
 ---------------------------------------------------------------------
                    Distance matrix (angstroms):
                    1          2          3          4          5
     1  O    0.000000
     2  H    0.964093   0.000000
     3  C    1.414296   1.946178   0.000000
     4  H    2.082920   2.326080   1.105451   0.000000
     5  H    2.082891   2.324853   1.105440   1.780589   0.000000
     6  C    2.374915   3.217032   1.515263   2.156017   2.156009
     7  H    2.631827   3.516284   2.155986   2.501072   3.071158
     8  H    3.338324   4.075785   2.166477   2.496406   2.496366
     9  H    2.631837   3.515543   2.156107   3.071252   2.501310
                    6          7          8          9
     6  C    0.000000
     7  H    1.099865   0.000000
     8  H    1.099438   1.787108   0.000000
     9  H    1.099861   1.783872   1.787131   0.000000
 Stoichiometry    C2H6O
 Framework group  C1[X(C2H6O)]
 Deg. of freedom    21
 Full point group                 C1      NOp   1
 Largest Abelian subgroup         C1      NOp   1
 Largest concise Abelian subgroup C1      NOp   1
                         Standard orientation:                         
 ---------------------------------------------------------------------
 Center     Atomic      Atomic             Coordinates (Angstroms)
 Number     Number       Type             X           Y           Z
 ---------------------------------------------------------------------
      1          8           0       -1.147172   -0.396086   -0.000181
      2          1           0       -1.981236    0.087455    0.001285
      3          6           0       -0.088929    0.542187   -0.000075
      4          1           0       -0.140582    1.195416   -0.890381
      5          1           0       -0.140805    1.195412    0.890208
      6          6           0        1.221147   -0.219209    0.000090
      7          1           0        1.285232   -0.859435   -0.891935
      8          1           0        2.076400    0.471664    0.000246
      9          1           0        1.285061   -0.859693    0.891936
 ---------------------------------------------------------------------
 Rotational constants (GHZ):     35.3062397      9.3833733      8.1815280
 Standard basis: def2SVP (5D, 7F)
 There are    75 symmetry adapted cartesian basis functions of A   symmetry.
 There are    72 symmetry adapted basis functions of A   symmetry.
    72 basis functions,   117 primitive gaussians,    75 cartesian basis functions
    13 alpha electrons       13 beta electrons
       nuclear repulsion energy        81.8127837967 Hartrees.
 NAtoms=    9 NActive=    9 NUniq=    9 SFac= 1.00D+00 NAtFMM=   60 NAOKFM=F Big=F
 Integral buffers will be    131072 words long.
 Raffenetti 2 integral format.
 Two-electron integral symmetry is turned on.
 ------------------------------------------------------------------------------
 Polarizable Continuum Model (PCM)
 =================================
 Model                : C-PCM.
 Atomic radii         : UFF (Universal Force Field).
 Polarization charges : Total charges.
 Charge compensation  : None.
 Solution method      : On-the-fly selection.
 Cavity type          : Scaled VdW (van der Waals Surface) (Alpha=1.100).
 Cavity algorithm     : GePol (No added spheres)
                        Default sphere list used, NSphG=    9.
                        Lebedev-Laikov grids with approx.  5.0 points / Ang**2.
                        Smoothing algorithm: Karplus/York (Gamma=1.0000).
                        Polarization charges: spherical gaussians, with
                                              point-specific exponents (IZeta= 3).
                        Self-potential: point-specific (ISelfS= 7).
                        Self-field    : sphere-specific E.n sum rule (ISelfD= 2).
 1st derivatives      : Analytical E(r).r(x)/FMM algorithm (CHGder, D1EAlg=3).
                        Cavity 1st derivative terms included.
 Solvent              : Ethanol, Eps=  24.852000 Eps(inf)=   1.852593
 ------------------------------------------------------------------------------
 Spheres list:
 ISph  on   Nord     Re0    Alpha      Xe            Ye            Ze
    1   O      1    1.7500  1.100     -1.147172     -0.396086     -0.000181
    2   H      2    1.4430  1.100     -1.981236      0.087455      0.001285
    3   C      3    1.9255  1.100     -0.088929      0.542187     -0.000075
    4   H      4    1.4430  1.100     -0.140582      1.195416     -0.890381
    5   H      5    1.4430  1.100     -0.140805      1.195412      0.890208
    6   C      6    1.9255  1.100      1.221147     -0.219209      0.000090
    7   H      7    1.4430  1.100      1.285232     -0.859435     -0.891935
    8   H      8    1.4430  1.100      2.076400      0.471664      0.000246
    9   H      9    1.4430  1.100      1.285061     -0.859693      0.891936
 ------------------------------------------------------------------------------
 One-electron integrals computed using PRISM.
   1 Symmetry operations used in ECPInt.
 ECPInt:  NShTT=     666 NPrTT=    2268 LenC2=     667 LenP2D=    2070.
 LDataN:  DoStor=T MaxTD1= 4 Len=   56
 NBasis=    72 RedAO= T EigKep=  3.71D-03  NBF=    72
 NBsUse=    72 1.00D-06 EigRej= -1.00D+00 NBFU=    72
 Initial guess from the checkpoint file:  "EtOH_opt.chk"
 B after Tr=     0.000000    0.000000    0.000000
         Rot=    1.000000   -0.000194    0.000038   -0.000378 Ang=  -0.05 deg.
 ExpMin= 1.22D-01 ExpMax= 2.27D+03 ExpMxC= 3.41D+02 IAcc=1 IRadAn=         1 AccDes= 0.00D+00
 Harris functional with IExCor= 1009 and IRadAn=       1 diagonalized for initial guess.
 HarFok:  IExCor= 1009 AccDes= 0.00D+00 IRadAn=         1 IDoV= 1 UseB2=F ITyADJ=14
 ICtDFT=  3500011 ScaDFX=  1.000000  1.000000  1.000000  1.000000
 FoFCou: FMM=F IPFlag=           0 FMFlag=      100000 FMFlg1=           0
         NFxFlg=           0 DoJE=T BraDBF=F KetDBF=T FulRan=T
         wScrn=  0.000000 ICntrl=     500 IOpCl=  0 I1Cent=   200000004 NGrid=           0
         NMat0=    1 NMatS0=      1 NMatT0=    0 NMatD0=    1 NMtDS0=    0 NMtDT0=    0
 Petite list used in FoFCou.
 Keep R1 ints in memory in canonical form, NReq=7155721.
 Requested convergence on RMS density matrix=1.00D-08 within 128 cycles.
 Requested convergence on MAX density matrix=1.00D-06.
 Requested convergence on             energy=1.00D-06.
 No special actions if energy rises.
 Inv3:  Mode=1 IEnd=     1944075.
 Iteration    1 A*A^-1 deviation from unit magnitude is 4.00D-15 for    770.
 Iteration    1 A*A^-1 deviation from orthogonality  is 4.00D-15 for    805    432.
 Iteration    1 A^-1*A deviation from unit magnitude is 3.33D-15 for    770.
 Iteration    1 A^-1*A deviation from orthogonality  is 1.94D-15 for    668    349.
 Error on total polarization charges =  0.00596
 SCF Done:  E(RM062X) =  -154.844180182     A.U. after    8 cycles
            NFock=  8  Conv=0.71D-08     -V/T= 2.0098
   1 Symmetry operations used in ECPInt.
 ECPInt:  NShTT=     666 NPrTT=    2268 LenC2=     667 LenP2D=    2070.
 LDataN:  DoStor=T MaxTD1= 5 Len=  102
 D1PCM: C-PCM CHGder 1st derivatives, ID1Alg=3 FixD1E=F DoIter=F DoCFld=F I1PDM=0.
 Calling FoFJK, ICntrl=      2127 FMM=F ISym2X=0 I1Cent= 0 IOpClX= 0 NMat=1 NMatS=1 NMatT=0.
 ***** Axes restored to original set *****
 -------------------------------------------------------------------
 Center     Atomic                   Forces (Hartrees/Bohr)
 Number     Number              X              Y              Z
 -------------------------------------------------------------------
      1        8          -0.000692400    0.001382251   -0.000001795
      2        1          -0.000463216    0.000164572    0.000005704
      3        6           0.000290971   -0.001386158   -0.000016568
      4        1          -0.000016239    0.000173964   -0.000439049
      5        1          -0.000016952    0.000173876    0.000437416
      6        6           0.000905344   -0.000092301    0.000018671
      7        1          -0.000163563    0.000203997   -0.000445844
      8        1           0.000306016   -0.000825086    0.000000132
      9        1          -0.000149960    0.000204884    0.000441333
 -------------------------------------------------------------------
 Cartesian Forces:  Max     0.001386158 RMS     0.000516848

 GradGradGradGradGradGradGradGradGradGradGradGradGradGradGradGradGradGrad
 Berny optimization.
 Using GEDIIS/GDIIS optimizer.
 FormGI is forming the generalized inverse of G from B-inverse, IUseBI=4.
 Internal  Forces:  Max     0.001841663 RMS     0.000477129
 Search for a local minimum.
 Step number   3 out of a maximum of   43
 All quantities printed in internal units (Hartrees-Bohrs-Radians)
 Mixed Optimization -- En-DIIS/RFO-DIIS
 Update second derivatives using D2CorX and points    1    2    3
 DE= -1.48D-04 DEPred=-1.48D-04 R= 9.96D-01
 TightC=F SS=  1.41D+00  RLast= 5.34D-02 DXNew= 7.7217D-01 1.6023D-01
 Trust test= 9.96D-01 RLast= 5.34D-02 DXMaxT set to 4.59D-01
 ITU=  1  1  0
 Use linear search instead of GDIIS.
     Eigenvalues ---    0.00237   0.01295   0.05170   0.05185   0.05503
     Eigenvalues ---    0.05649   0.11064   0.13643   0.14398   0.16000
     Eigenvalues ---    0.16026   0.16782   0.24566   0.29787   0.35773
     Eigenvalues ---    0.37230   0.37230   0.37336   0.37813   0.42384
     Eigenvalues ---    0.55925
 RFO step:  Lambda=-2.56871488D-05 EMin= 2.36848884D-03
 Quartic linear search produced a step of  0.00292.
 Iteration  1 RMS(Cart)=  0.00238925 RMS(Int)=  0.00000338
 Iteration  2 RMS(Cart)=  0.00000351 RMS(Int)=  0.00000113
 Iteration  3 RMS(Cart)=  0.00000000 RMS(Int)=  0.00000113
 Variable       Old X    -DE/DX   Delta X   Delta X   Delta X     New X
                                 (Linear)    (Quad)   (Total)
    R1        1.82187  -0.00046   0.00001  -0.00064  -0.00064   1.82123
    R2        2.67263  -0.00184  -0.00002  -0.00507  -0.00509   2.66754
    R3        2.08900  -0.00027   0.00002  -0.00007  -0.00005   2.08895
    R4        2.08898  -0.00027   0.00002  -0.00006  -0.00005   2.08893
    R5        2.86343  -0.00089   0.00000  -0.00339  -0.00340   2.86004
    R6        2.07844  -0.00040   0.00001  -0.00069  -0.00068   2.07776
    R7        2.07764  -0.00088   0.00001  -0.00197  -0.00196   2.07568
    R8        2.07844  -0.00040   0.00001  -0.00070  -0.00069   2.07775
    A1        1.89082  -0.00032   0.00004  -0.00083  -0.00079   1.89003
    A2        1.93585   0.00038   0.00000   0.00265   0.00265   1.93851
    A3        1.93582   0.00038   0.00000   0.00271   0.00271   1.93854
    A4        1.88974  -0.00086   0.00004  -0.00226  -0.00222   1.88753
    A5        1.87260  -0.00033  -0.00006  -0.00493  -0.00499   1.86762
    A6        1.91496   0.00022   0.00001   0.00091   0.00092   1.91588
    A7        1.91496   0.00023   0.00001   0.00097   0.00097   1.91594
    A8        1.92067   0.00040   0.00001   0.00284   0.00284   1.92352
    A9        1.93564  -0.00012   0.00006   0.00081   0.00087   1.93651
   A10        1.92084   0.00037   0.00001   0.00264   0.00264   1.92349
   A11        1.89713  -0.00016  -0.00002  -0.00181  -0.00183   1.89529
   A12        1.89155  -0.00036  -0.00003  -0.00285  -0.00289   1.88867
   A13        1.89717  -0.00015  -0.00002  -0.00182  -0.00185   1.89532
    D1       -1.04127  -0.00004   0.00004   0.00158   0.00162  -1.03965
    D2        1.03785   0.00004  -0.00004  -0.00110  -0.00114   1.03672
    D3        3.13988   0.00001   0.00000   0.00029   0.00029   3.14017
    D4        1.04188   0.00002  -0.00001  -0.00038  -0.00039   1.04149
    D5       -3.14153   0.00000   0.00000  -0.00026  -0.00026   3.14140
    D6       -1.04158  -0.00002   0.00002  -0.00028  -0.00026  -1.04184
    D7       -1.07313  -0.00004  -0.00004  -0.00277  -0.00281  -1.07594
    D8        1.02665  -0.00006  -0.00003  -0.00265  -0.00267   1.02397
    D9        3.12659  -0.00009  -0.00001  -0.00267  -0.00268   3.12391
   D10       -3.12633   0.00008   0.00002   0.00211   0.00214  -3.12419
   D11       -1.02655   0.00007   0.00004   0.00224   0.00227  -1.02428
   D12        1.07339   0.00004   0.00005   0.00221   0.00226   1.07566
         Item               Value     Threshold  Converged?
 Maximum Force            0.001842     0.000450     NO 
 RMS     Force            0.000477     0.000300     NO 
 Maximum Displacement     0.005954     0.001800     NO 
 RMS     Displacement     0.002389     0.001200     NO 
 Predicted change in Energy=-1.284418D-05
 GradGradGradGradGradGradGradGradGradGradGradGradGradGradGradGradGradGrad

                          Input orientation:                          
 ---------------------------------------------------------------------
 Center     Atomic      Atomic             Coordinates (Angstroms)
 Number     Number       Type             X           Y           Z
 ---------------------------------------------------------------------
      1          8           0        1.048545    1.391464   -0.023093
      2          1           0        2.012297    1.389304   -0.024331
      3          6           0        0.608533    2.732738   -0.022157
      4          1           0        0.982267    3.272937    0.866928
      5          1           0        0.982446    3.274266   -0.910347
      6          6           0       -0.904933    2.732338   -0.022260
      7          1           0       -1.284680    2.210595    0.867956
      8          1           0       -1.298013    3.757995   -0.021355
      9          1           0       -1.284529    2.212195   -0.913469
 ---------------------------------------------------------------------
                    Distance matrix (angstroms):
                    1          2          3          4          5
     1  O    0.000000
     2  H    0.963755   0.000000
     3  C    1.411604   1.943032   0.000000
     4  H    2.082420   2.324517   1.105425   0.000000
     5  H    2.082434   2.323510   1.105416   1.777276   0.000000
     6  C    2.369392   3.211538   1.513466   2.155093   2.155129
     7  H    2.628475   3.512940   2.156198   2.503521   3.071419
     8  H    3.332687   4.070486   2.164733   2.494795   2.494953
     9  H    2.628612   3.512375   2.156174   3.071376   2.503434
                    6          7          8          9
     6  C    0.000000
     7  H    1.099504   0.000000
     8  H    1.098401   1.784796   0.000000
     9  H    1.099498   1.781425   1.784810   0.000000
 Stoichiometry    C2H6O
 Framework group  C1[X(C2H6O)]
 Deg. of freedom    21
 Full point group                 C1      NOp   1
 Largest Abelian subgroup         C1      NOp   1
 Largest concise Abelian subgroup C1      NOp   1
                         Standard orientation:                         
 ---------------------------------------------------------------------
 Center     Atomic      Atomic             Coordinates (Angstroms)
 Number     Number       Type             X           Y           Z
 ---------------------------------------------------------------------
      1          8           0       -1.144171   -0.396709   -0.000147
      2          1           0       -1.978608    0.085513    0.001065
      3          6           0       -0.089976    0.542067   -0.000067
      4          1           0       -0.141448    1.197466   -0.888756
      5          1           0       -0.141642    1.197575    0.888519
      6          6           0        1.218509   -0.218488    0.000072
      7          1           0        1.285158   -0.859817   -0.890526
      8          1           0        2.073588    0.470948   -0.000055
      9          1           0        1.285123   -0.859491    0.890900
 ---------------------------------------------------------------------
 Rotational constants (GHZ):     35.3035659      9.4212267      8.2073900
 Standard basis: def2SVP (5D, 7F)
 There are    75 symmetry adapted cartesian basis functions of A   symmetry.
 There are    72 symmetry adapted basis functions of A   symmetry.
    72 basis functions,   117 primitive gaussians,    75 cartesian basis functions
    13 alpha electrons       13 beta electrons
       nuclear repulsion energy        81.9091646045 Hartrees.
 NAtoms=    9 NActive=    9 NUniq=    9 SFac= 1.00D+00 NAtFMM=   60 NAOKFM=F Big=F
 Integral buffers will be    131072 words long.
 Raffenetti 2 integral format.
 Two-electron integral symmetry is turned on.
 ------------------------------------------------------------------------------
 Polarizable Continuum Model (PCM)
 =================================
 Model                : C-PCM.
 Atomic radii         : UFF (Universal Force Field).
 Polarization charges : Total charges.
 Charge compensation  : None.
 Solution method      : On-the-fly selection.
 Cavity type          : Scaled VdW (van der Waals Surface) (Alpha=1.100).
 Cavity algorithm     : GePol (No added spheres)
                        Default sphere list used, NSphG=    9.
                        Lebedev-Laikov grids with approx.  5.0 points / Ang**2.
                        Smoothing algorithm: Karplus/York (Gamma=1.0000).
                        Polarization charges: spherical gaussians, with
                                              point-specific exponents (IZeta= 3).
                        Self-potential: point-specific (ISelfS= 7).
                        Self-field    : sphere-specific E.n sum rule (ISelfD= 2).
 1st derivatives      : Analytical E(r).r(x)/FMM algorithm (CHGder, D1EAlg=3).
                        Cavity 1st derivative terms included.
 Solvent              : Ethanol, Eps=  24.852000 Eps(inf)=   1.852593
 ------------------------------------------------------------------------------
 Spheres list:
 ISph  on   Nord     Re0    Alpha      Xe            Ye            Ze
    1   O      1    1.7500  1.100     -1.144171     -0.396709     -0.000147
    2   H      2    1.4430  1.100     -1.978608      0.085513      0.001065
    3   C      3    1.9255  1.100     -0.089976      0.542067     -0.000067
    4   H      4    1.4430  1.100     -0.141448      1.197466     -0.888756
    5   H      5    1.4430  1.100     -0.141642      1.197575      0.888519
    6   C      6    1.9255  1.100      1.218509     -0.218488      0.000072
    7   H      7    1.4430  1.100      1.285158     -0.859817     -0.890526
    8   H      8    1.4430  1.100      2.073588      0.470948     -0.000055
    9   H      9    1.4430  1.100      1.285123     -0.859491      0.890900
 ------------------------------------------------------------------------------
 One-electron integrals computed using PRISM.
   1 Symmetry operations used in ECPInt.
 ECPInt:  NShTT=     666 NPrTT=    2268 LenC2=     667 LenP2D=    2070.
 LDataN:  DoStor=T MaxTD1= 4 Len=   56
 NBasis=    72 RedAO= T EigKep=  3.69D-03  NBF=    72
 NBsUse=    72 1.00D-06 EigRej= -1.00D+00 NBFU=    72
 Initial guess from the checkpoint file:  "EtOH_opt.chk"
 B after Tr=     0.000000    0.000000    0.000000
         Rot=    1.000000    0.000056   -0.000004   -0.000323 Ang=   0.04 deg.
 Keep R1 ints in memory in canonical form, NReq=7159283.
 Requested convergence on RMS density matrix=1.00D-08 within 128 cycles.
 Requested convergence on MAX density matrix=1.00D-06.
 Requested convergence on             energy=1.00D-06.
 No special actions if energy rises.
 Inv3:  Mode=1 IEnd=     1953747.
 Iteration    1 A*A^-1 deviation from unit magnitude is 2.89D-15 for    579.
 Iteration    1 A*A^-1 deviation from orthogonality  is 4.00D-15 for    807    432.
 Iteration    1 A^-1*A deviation from unit magnitude is 2.89D-15 for    579.
 Iteration    1 A^-1*A deviation from orthogonality  is 2.39D-15 for    790     49.
 Error on total polarization charges =  0.00596
 SCF Done:  E(RM062X) =  -154.844192750     A.U. after    8 cycles
            NFock=  8  Conv=0.25D-08     -V/T= 2.0097
   1 Symmetry operations used in ECPInt.
 ECPInt:  NShTT=     666 NPrTT=    2268 LenC2=     667 LenP2D=    2070.
 LDataN:  DoStor=T MaxTD1= 5 Len=  102
 D1PCM: C-PCM CHGder 1st derivatives, ID1Alg=3 FixD1E=F DoIter=F DoCFld=F I1PDM=0.
 Calling FoFJK, ICntrl=      2127 FMM=F ISym2X=0 I1Cent= 0 IOpClX= 0 NMat=1 NMatS=1 NMatT=0.
 ***** Axes restored to original set *****
 -------------------------------------------------------------------
 Center     Atomic                   Forces (Hartrees/Bohr)
 Number     Number              X              Y              Z
 -------------------------------------------------------------------
      1        8           0.000167992    0.000074274   -0.000008175
      2        1          -0.000081670   -0.000099911    0.000004199
      3        6           0.000226926   -0.000010015    0.000009862
      4        1          -0.000089227   -0.000033792   -0.000086230
      5        1          -0.000095490   -0.000036715    0.000083647
      6        6          -0.000313989    0.000093527   -0.000001572
      7        1           0.000054332    0.000060261   -0.000097531
      8        1           0.000081531   -0.000106290   -0.000000506
      9        1           0.000049595    0.000058663    0.000096306
 -------------------------------------------------------------------
 Cartesian Forces:  Max     0.000313989 RMS     0.000104123

 GradGradGradGradGradGradGradGradGradGradGradGradGradGradGradGradGradGrad
 Berny optimization.
 Using GEDIIS/GDIIS optimizer.
 FormGI is forming the generalized inverse of G from B-inverse, IUseBI=4.
 Internal  Forces:  Max     0.000161320 RMS     0.000069538
 Search for a local minimum.
 Step number   4 out of a maximum of   43
 All quantities printed in internal units (Hartrees-Bohrs-Radians)
 Mixed Optimization -- En-DIIS/RFO-DIIS
 Swapping is turned off.
 Update second derivatives using D2CorX and points    1    2    3    4
 DE= -1.26D-05 DEPred=-1.28D-05 R= 9.78D-01
 TightC=F SS=  1.41D+00  RLast= 1.27D-02 DXNew= 7.7217D-01 3.8128D-02
 Trust test= 9.78D-01 RLast= 1.27D-02 DXMaxT set to 4.59D-01
 ITU=  1  1  1  0
     Eigenvalues ---    0.00237   0.01295   0.05019   0.05172   0.05485
     Eigenvalues ---    0.05619   0.11342   0.13637   0.14640   0.16000
     Eigenvalues ---    0.16054   0.16825   0.24672   0.30972   0.36167
     Eigenvalues ---    0.37166   0.37230   0.37231   0.37364   0.40998
     Eigenvalues ---    0.55672
 En-DIIS/RFO-DIIS IScMMF=        0 using points:     4    3
 RFO step:  Lambda=-3.07812194D-07.
 DidBck=F Rises=F RFO-DIIS coefs:    0.97205    0.02795
 Iteration  1 RMS(Cart)=  0.00042158 RMS(Int)=  0.00000016
 Iteration  2 RMS(Cart)=  0.00000013 RMS(Int)=  0.00000010
 Variable       Old X    -DE/DX   Delta X   Delta X   Delta X     New X
                                 (Linear)    (Quad)   (Total)
    R1        1.82123  -0.00007   0.00002  -0.00017  -0.00015   1.82108
    R2        2.66754   0.00004   0.00014  -0.00010   0.00004   2.66758
    R3        2.08895  -0.00011   0.00000  -0.00032  -0.00032   2.08863
    R4        2.08893  -0.00012   0.00000  -0.00033  -0.00033   2.08861
    R5        2.86004   0.00013   0.00009   0.00029   0.00039   2.86042
    R6        2.07776  -0.00012   0.00002  -0.00035  -0.00034   2.07743
    R7        2.07568  -0.00013   0.00005  -0.00044  -0.00039   2.07529
    R8        2.07775  -0.00012   0.00002  -0.00035  -0.00033   2.07742
    A1        1.89003   0.00016   0.00002   0.00082   0.00085   1.89088
    A2        1.93851   0.00001  -0.00007   0.00044   0.00037   1.93888
    A3        1.93854   0.00001  -0.00008   0.00041   0.00033   1.93887
    A4        1.88753   0.00011   0.00006   0.00032   0.00038   1.88790
    A5        1.86762   0.00004   0.00014  -0.00006   0.00008   1.86770
    A6        1.91588  -0.00008  -0.00003  -0.00054  -0.00057   1.91531
    A7        1.91594  -0.00008  -0.00003  -0.00060  -0.00062   1.91531
    A8        1.92352  -0.00001  -0.00008   0.00004  -0.00004   1.92347
    A9        1.93651  -0.00004  -0.00002  -0.00031  -0.00033   1.93618
   A10        1.92349  -0.00001  -0.00007   0.00007  -0.00001   1.92348
   A11        1.89529   0.00002   0.00005   0.00011   0.00016   1.89545
   A12        1.88867   0.00001   0.00008   0.00000   0.00008   1.88875
   A13        1.89532   0.00002   0.00005   0.00010   0.00015   1.89548
    D1       -1.03965  -0.00002  -0.00005  -0.00002  -0.00007  -1.03972
    D2        1.03672   0.00003   0.00003   0.00046   0.00049   1.03720
    D3        3.14017   0.00000  -0.00001   0.00017   0.00016   3.14033
    D4        1.04149   0.00000   0.00001   0.00013   0.00014   1.04163
    D5        3.14140   0.00000   0.00001   0.00009   0.00010   3.14150
    D6       -1.04184   0.00000   0.00001   0.00006   0.00007  -1.04178
    D7       -1.07594  -0.00003   0.00008  -0.00028  -0.00020  -1.07615
    D8        1.02397  -0.00003   0.00007  -0.00032  -0.00025   1.02373
    D9        3.12391  -0.00003   0.00007  -0.00035  -0.00027   3.12364
   D10       -3.12419   0.00003  -0.00006   0.00046   0.00040  -3.12379
   D11       -1.02428   0.00002  -0.00006   0.00042   0.00036  -1.02392
   D12        1.07566   0.00002  -0.00006   0.00039   0.00033   1.07599
         Item               Value     Threshold  Converged?
 Maximum Force            0.000161     0.000450     YES
 RMS     Force            0.000070     0.000300     YES
 Maximum Displacement     0.001074     0.001800     YES
 RMS     Displacement     0.000422     0.001200     YES
 Predicted change in Energy=-3.184075D-07
 Optimization completed.
    -- Stationary point found.
                           ----------------------------
                           !   Optimized Parameters   !
                           ! (Angstroms and Degrees)  !
 --------------------------                            --------------------------
 ! Name  Definition              Value          Derivative Info.                !
 --------------------------------------------------------------------------------
 ! R1    R(1,2)                  0.9638         -DE/DX =   -0.0001              !
 ! R2    R(1,3)                  1.4116         -DE/DX =    0.0                 !
 ! R3    R(3,4)                  1.1054         -DE/DX =   -0.0001              !
 ! R4    R(3,5)                  1.1054         -DE/DX =   -0.0001              !
 ! R5    R(3,6)                  1.5135         -DE/DX =    0.0001              !
 ! R6    R(6,7)                  1.0995         -DE/DX =   -0.0001              !
 ! R7    R(6,8)                  1.0984         -DE/DX =   -0.0001              !
 ! R8    R(6,9)                  1.0995         -DE/DX =   -0.0001              !
 ! A1    A(2,1,3)              108.2908         -DE/DX =    0.0002              !
 ! A2    A(1,3,4)              111.0683         -DE/DX =    0.0                 !
 ! A3    A(1,3,5)              111.07           -DE/DX =    0.0                 !
 ! A4    A(1,3,6)              108.1472         -DE/DX =    0.0001              !
 ! A5    A(4,3,5)              107.0066         -DE/DX =    0.0                 !
 ! A6    A(4,3,6)              109.7718         -DE/DX =   -0.0001              !
 ! A7    A(5,3,6)              109.7751         -DE/DX =   -0.0001              !
 ! A8    A(3,6,7)              110.2093         -DE/DX =    0.0                 !
 ! A9    A(3,6,8)              110.9541         -DE/DX =    0.0                 !
 ! A10   A(3,6,9)              110.2078         -DE/DX =    0.0                 !
 ! A11   A(7,6,8)              108.5923         -DE/DX =    0.0                 !
 ! A12   A(7,6,9)              108.2127         -DE/DX =    0.0                 !
 ! A13   A(8,6,9)              108.594          -DE/DX =    0.0                 !
 ! D1    D(2,1,3,4)            -59.5676         -DE/DX =    0.0                 !
 ! D2    D(2,1,3,5)             59.3995         -DE/DX =    0.0                 !
 ! D3    D(2,1,3,6)            179.9185         -DE/DX =    0.0                 !
 ! D4    D(1,3,6,7)             59.6728         -DE/DX =    0.0                 !
 ! D5    D(1,3,6,8)            179.9892         -DE/DX =    0.0                 !
 ! D6    D(1,3,6,9)            -59.6933         -DE/DX =    0.0                 !
 ! D7    D(4,3,6,7)            -61.647          -DE/DX =    0.0                 !
 ! D8    D(4,3,6,8)             58.6694         -DE/DX =    0.0                 !
 ! D9    D(4,3,6,9)            178.9869         -DE/DX =    0.0                 !
 ! D10   D(5,3,6,7)           -179.0032         -DE/DX =    0.0                 !
 ! D11   D(5,3,6,8)            -58.6868         -DE/DX =    0.0                 !
 ! D12   D(5,3,6,9)             61.6307         -DE/DX =    0.0                 !
 --------------------------------------------------------------------------------
 GradGradGradGradGradGradGradGradGradGradGradGradGradGradGradGradGradGrad

                          Input orientation:                          
 ---------------------------------------------------------------------
 Center     Atomic      Atomic             Coordinates (Angstroms)
 Number     Number       Type             X           Y           Z
 ---------------------------------------------------------------------
      1          8           0        1.048545    1.391464   -0.023093
      2          1           0        2.012297    1.389304   -0.024331
      3          6           0        0.608533    2.732738   -0.022157
      4          1           0        0.982267    3.272937    0.866928
      5          1           0        0.982446    3.274266   -0.910347
      6          6           0       -0.904933    2.732338   -0.022260
      7          1           0       -1.284680    2.210595    0.867956
      8          1           0       -1.298013    3.757995   -0.021355
      9          1           0       -1.284529    2.212195   -0.913469
 ---------------------------------------------------------------------
                    Distance matrix (angstroms):
                    1          2          3          4          5
     1  O    0.000000
     2  H    0.963755   0.000000
     3  C    1.411604   1.943032   0.000000
     4  H    2.082420   2.324517   1.105425   0.000000
     5  H    2.082434   2.323510   1.105416   1.777276   0.000000
     6  C    2.369392   3.211538   1.513466   2.155093   2.155129
     7  H    2.628475   3.512940   2.156198   2.503521   3.071419
     8  H    3.332687   4.070486   2.164733   2.494795   2.494953
     9  H    2.628612   3.512375   2.156174   3.071376   2.503434
                    6          7          8          9
     6  C    0.000000
     7  H    1.099504   0.000000
     8  H    1.098401   1.784796   0.000000
     9  H    1.099498   1.781425   1.784810   0.000000
 Stoichiometry    C2H6O
 Framework group  C1[X(C2H6O)]
 Deg. of freedom    21
 Full point group                 C1      NOp   1
 Largest Abelian subgroup         C1      NOp   1
 Largest concise Abelian subgroup C1      NOp   1
                         Standard orientation:                         
 ---------------------------------------------------------------------
 Center     Atomic      Atomic             Coordinates (Angstroms)
 Number     Number       Type             X           Y           Z
 ---------------------------------------------------------------------
      1          8           0       -1.144171   -0.396709   -0.000147
      2          1           0       -1.978608    0.085513    0.001065
      3          6           0       -0.089976    0.542067   -0.000067
      4          1           0       -0.141448    1.197466   -0.888756
      5          1           0       -0.141642    1.197575    0.888519
      6          6           0        1.218509   -0.218488    0.000072
      7          1           0        1.285158   -0.859817   -0.890526
      8          1           0        2.073588    0.470948   -0.000055
      9          1           0        1.285123   -0.859491    0.890900
 ---------------------------------------------------------------------
 Rotational constants (GHZ):     35.3035659      9.4212267      8.2073900

 **********************************************************************

            Population analysis using the SCF density.

 **********************************************************************

 Orbital symmetries:
       Occupied  (A) (A) (A) (A) (A) (A) (A) (A) (A) (A) (A) (A)
                 (A)
       Virtual   (A) (A) (A) (A) (A) (A) (A) (A) (A) (A) (A) (A)
                 (A) (A) (A) (A) (A) (A) (A) (A) (A) (A) (A) (A)
                 (A) (A) (A) (A) (A) (A) (A) (A) (A) (A) (A) (A)
                 (A) (A) (A) (A) (A) (A) (A) (A) (A) (A) (A) (A)
                 (A) (A) (A) (A) (A) (A) (A) (A) (A) (A) (A)
 The electronic state is 1-A.
 Alpha  occ. eigenvalues --  -19.62001 -10.59135 -10.53969  -1.11974  -0.83178
 Alpha  occ. eigenvalues --   -0.68235  -0.58889  -0.53493  -0.47245  -0.44251
 Alpha  occ. eigenvalues --   -0.42820  -0.39424  -0.33960
 Alpha virt. eigenvalues --    0.09908   0.13052   0.16367   0.16947   0.18464
 Alpha virt. eigenvalues --    0.20660   0.25665   0.28073   0.47739   0.48669
 Alpha virt. eigenvalues --    0.51858   0.56369   0.62040   0.65106   0.69675
 Alpha virt. eigenvalues --    0.71945   0.72430   0.73736   0.75051   0.75323
 Alpha virt. eigenvalues --    0.77570   0.93113   1.05681   1.07466   1.13813
 Alpha virt. eigenvalues --    1.26427   1.33841   1.42333   1.45982   1.52048
 Alpha virt. eigenvalues --    1.56264   1.58832   1.76075   1.77240   1.80408
 Alpha virt. eigenvalues --    1.82703   1.86705   1.87357   1.91692   1.93385
 Alpha virt. eigenvalues --    1.93406   2.07868   2.19882   2.23480   2.29067
 Alpha virt. eigenvalues --    2.40339   2.43273   2.51537   2.58259   2.70436
 Alpha virt. eigenvalues --    2.81403   2.89208   2.95243   2.96698   3.05357
 Alpha virt. eigenvalues --    3.14784   3.21171   3.38484   3.80809
          Condensed to atoms (all electrons):
               1          2          3          4          5          6
     1  O    7.865757   0.326425   0.321184  -0.032230  -0.032201  -0.072680
     2  H    0.326425   0.496075  -0.022118  -0.004524  -0.004566   0.008727
     3  C    0.321184  -0.022118   4.449431   0.393212   0.393226   0.418174
     4  H   -0.032230  -0.004524   0.393212   0.698766  -0.048877  -0.031282
     5  H   -0.032201  -0.004566   0.393226  -0.048877   0.698675  -0.031224
     6  C   -0.072680   0.008727   0.418174  -0.031282  -0.031224   4.682803
     7  H    0.004835  -0.000174  -0.021686  -0.013067   0.009678   0.385108
     8  H    0.003872  -0.000537  -0.011189  -0.002314  -0.002320   0.375507
     9  H    0.004847  -0.000172  -0.021685   0.009681  -0.013070   0.385080
               7          8          9
     1  O    0.004835   0.003872   0.004847
     2  H   -0.000174  -0.000537  -0.000172
     3  C   -0.021686  -0.011189  -0.021685
     4  H   -0.013067  -0.002314   0.009681
     5  H    0.009678  -0.002320  -0.013070
     6  C    0.385108   0.375507   0.385080
     7  H    0.635073  -0.017996  -0.029087
     8  H   -0.017996   0.621199  -0.017986
     9  H   -0.029087  -0.017986   0.635086
 Mulliken charges:
               1
     1  O   -0.389808
     2  H    0.200865
     3  C    0.101450
     4  H    0.030636
     5  H    0.030681
     6  C   -0.120213
     7  H    0.047316
     8  H    0.051765
     9  H    0.047307
 Sum of Mulliken charges =   0.00000
 Mulliken charges with hydrogens summed into heavy atoms:
               1
     1  O   -0.188943
     3  C    0.162767
     6  C    0.026176
 Electronic spatial extent (au):  <R**2>=            192.4232
 Charge=              0.0000 electrons
 Dipole moment (field-independent basis, Debye):
    X=             -0.3139    Y=              1.8841    Z=              0.0025  Tot=              1.9101
 Quadrupole moment (field-independent basis, Debye-Ang):
   XX=            -16.5233   YY=            -20.4614   ZZ=            -19.9147
   XY=             -1.9142   XZ=             -0.0053   YZ=              0.0005
 Traceless Quadrupole moment (field-independent basis, Debye-Ang):
   XX=              2.4432   YY=             -1.4950   ZZ=             -0.9482
   XY=             -1.9142   XZ=             -0.0053   YZ=              0.0005
 Octapole moment (field-independent basis, Debye-Ang**2):
  XXX=            -16.3805  YYY=             -0.2221  ZZZ=              0.0016  XYY=             -0.9034
  XXY=              3.1066  XXZ=              0.0100  XZZ=             -1.5982  YZZ=             -0.2163
  YYZ=              0.0005  XYZ=             -0.0002
 Hexadecapole moment (field-independent basis, Debye-Ang**3):
 XXXX=           -128.2156 YYYY=            -56.4938 ZZZZ=            -32.4882 XXXY=              0.3176
 XXXZ=             -0.0225 YYYX=              1.1551 YYYZ=              0.0020 ZZZX=             -0.0025
 ZZZY=              0.0004 XXYY=            -35.4507 XXZZ=            -32.0173 YYZZ=            -13.6663
 XXYZ=              0.0009 YYXZ=             -0.0015 ZZXY=             -0.5925
 N-N= 8.190916460454D+01 E-N=-5.252408885125D+02  KE= 1.533530621846D+02
 1\1\GINC-DC1S1B3C\FOpt\RM062X\def2SVP\C2H6O1\CHMBNN\01-Nov-2020\0\\# o
 pt freq scrf=(cpcm,solvent=ethanol) def2svp m062x\\EtOH opt freq\\0,1\
 O,1.0485445739,1.391464149,-0.0230933972\H,2.0122968013,1.3893041389,-
 0.0243305073\C,0.6085328549,2.732737612,-0.0221570104\H,0.9822665065,3
 .2729370923,0.8669283596\H,0.9824457006,3.2742662255,-0.9103468497\C,-
 0.904932735,2.7323382906,-0.0222599884\H,-1.2846798421,2.2105951107,0.
 867956112\H,-1.2980132521,3.7579945225,-0.0213548097\H,-1.284529148,2.
 2121945484,-0.9134685088\\Version=ES64L-G09RevD.01\State=1-A\HF=-154.8
 441927\RMSD=2.532e-09\RMSF=1.041e-04\Dipole=0.4791087,0.5789382,-0.000
 5711\Quadrupole=2.3139687,-1.6089975,-0.7049712,-0.5666807,-0.004075,0
 .0009698\PG=C01 [X(C2H6O1)]\\@


 A successful marriage requires falling in love
 many times, always with the same person.
                           -- Mignon McLaughlin
 Job cpu time:       0 days  0 hours  1 minutes 33.5 seconds.
 File lengths (MBytes):  RWF=     12 Int=      0 D2E=      0 Chk=      2 Scr=      1
 Normal termination of Gaussian 09 at Sun Nov  1 21:56:34 2020.
 Link1:  Proceeding to internal job step number  2.
 -------------------------------------------------------------------
 #N Geom=AllCheck Guess=TCheck SCRF=Check GenChk RM062X/def2SVP Freq
 -------------------------------------------------------------------
 1/10=4,29=7,30=1,38=1,40=1/1,3;
 2/12=2,40=1/2;
 3/5=43,7=101,11=2,14=-4,16=1,25=1,30=1,70=2,71=2,72=4,74=-55,116=1,140=1/1,2,3;
 4/5=101/1;
 5/5=2,53=4,98=1/2;
 8/6=4,10=90,11=11/1;
 11/6=1,8=1,9=11,15=111,16=1/1,2,10;
 10/6=1/2;
 6/7=2,8=2,9=2,10=2,18=1,28=1/1;
 7/8=1,10=1,25=1/1,2,3,16;
 1/10=4,30=1/3;
 99//99;
 Structure from the checkpoint file:  "EtOH_opt.chk"
 -------------
 EtOH opt freq
 -------------
 Charge =  0 Multiplicity = 1
 Redundant internal coordinates found in file.
[...]
 IR Inten    --     38.3088                24.3700                82.1346
  Atom  AN      X      Y      Z        X      Y      Z        X      Y      Z
     1   8     0.00   0.00   0.00     0.00   0.00   0.00    -0.06   0.03   0.00
     2   1     0.00   0.00   0.00     0.00   0.00   0.00     0.87  -0.49   0.00
     3   6     0.00   0.00   0.01     0.00   0.00   0.00     0.00   0.00   0.00
     4   1    -0.01   0.05  -0.07     0.00  -0.02   0.02     0.00   0.00   0.00
     5   1     0.01  -0.05  -0.07     0.00  -0.02  -0.02     0.00   0.00   0.00
     6   6     0.00   0.00   0.09     0.05   0.08   0.00     0.00   0.00   0.00
     7   1     0.04  -0.41  -0.56     0.03  -0.21  -0.30     0.00   0.00   0.00
     8   1     0.00   0.00   0.01    -0.66  -0.53   0.00     0.00   0.00   0.00
     9   1    -0.04   0.41  -0.56     0.03  -0.21   0.31     0.00   0.00   0.00

 -------------------
 - Thermochemistry -
 -------------------
 Temperature   298.150 Kelvin.  Pressure   1.00000 Atm.
 Atom     1 has atomic number  8 and mass  15.99491
 Atom     2 has atomic number  1 and mass   1.00783
 Atom     3 has atomic number  6 and mass  12.00000
 Atom     4 has atomic number  1 and mass   1.00783
 Atom     5 has atomic number  1 and mass   1.00783
 Atom     6 has atomic number  6 and mass  12.00000
 Atom     7 has atomic number  1 and mass   1.00783
 Atom     8 has atomic number  1 and mass   1.00783
 Atom     9 has atomic number  1 and mass   1.00783
 Molecular mass:    46.04186 amu.
 Principal axes and moments of inertia in atomic units:
                           1         2         3
     Eigenvalues --    51.12065 191.56117 219.89222
           X            0.99910  -0.04232  -0.00004
           Y            0.04232   0.99910  -0.00001
           Z            0.00004   0.00001   1.00000
 This molecule is an asymmetric top.
 Rotational symmetry number  1.
 Rotational temperatures (Kelvin)      1.69430     0.45215     0.39389
 Rotational constants (GHZ):          35.30357     9.42123     8.20739
 Zero-point vibrational energy     210922.2 (Joules/Mol)
                                   50.41163 (Kcal/Mol)
 Warning -- explicit consideration of   3 degrees of freedom as
           vibrations may cause significant error
 Vibrational temperatures:    352.90   401.92   606.56  1164.40  1332.21
          (Kelvin)           1518.36  1664.24  1698.82  1823.08  1872.89
                             1979.02  2084.09  2099.51  2119.53  2183.39
                             4351.60  4401.06  4407.57  4534.04  4548.06
                             5592.92
 
 Zero-point correction=                           0.080336 (Hartree/Particle)
 Thermal correction to Energy=                    0.084644
 Thermal correction to Enthalpy=                  0.085588
 Thermal correction to Gibbs Free Energy=         0.054936
 Sum of electronic and zero-point Energies=           -154.763857
 Sum of electronic and thermal Energies=              -154.759549
 Sum of electronic and thermal Enthalpies=            -154.758605
 Sum of electronic and thermal Free Energies=         -154.789257
 
                     E (Thermal)             CV                S
                      KCal/Mol        Cal/Mol-Kelvin    Cal/Mol-Kelvin
 Total                   53.115             13.498             64.513
 Electronic               0.000              0.000              0.000
 Translational            0.889              2.981             37.406
 Rotational               0.889              2.981             22.292
 Vibrational             51.337              7.537              4.814
 Vibration     1          0.660              1.771              1.764
 Vibration     2          0.680              1.712              1.538
 Vibration     3          0.784              1.423              0.887
                       Q            Log10(Q)             Ln(Q)
 Total Bot       0.538591D-25        -25.268741        -58.183427
 Total V=0       0.482163D+12         11.683194         26.901549
 Vib (Bot)       0.264041D-36        -36.578329        -84.224715
 Vib (Bot)    1  0.797494D+00         -0.098272         -0.226281
 Vib (Bot)    2  0.688484D+00         -0.162106         -0.373263
 Vib (Bot)    3  0.416002D+00         -0.380904         -0.877065
 Vib (V=0)       0.236378D+01          0.373606          0.860260
 Vib (V=0)    1  0.144127D+01          0.158747          0.365528
 Vib (V=0)    2  0.135089D+01          0.130619          0.300762
 Vib (V=0)    3  0.115043D+01          0.060860          0.140135
 Electronic      0.100000D+01          0.000000          0.000000
 Translational   0.122796D+08          7.089185         16.323451
 Rotational      0.166113D+05          4.220403          9.717838
 ***** Axes restored to original set *****
 -------------------------------------------------------------------
 Center     Atomic                   Forces (Hartrees/Bohr)
 Number     Number              X              Y              Z
 -------------------------------------------------------------------
      1        8           0.000167996    0.000074270   -0.000008176
      2        1          -0.000081669   -0.000099911    0.000004200
      3        6           0.000226911   -0.000010018    0.000009862
      4        1          -0.000089223   -0.000033789   -0.000086226
      5        1          -0.000095487   -0.000036712    0.000083643
      6        6          -0.000313995    0.000093529   -0.000001572
      7        1           0.000054336    0.000060265   -0.000097537
      8        1           0.000081534   -0.000106299   -0.000000507
      9        1           0.000049599    0.000058667    0.000096312
 -------------------------------------------------------------------
 Cartesian Forces:  Max     0.000313995 RMS     0.000104124
 FormGI is forming the generalized inverse of G from B-inverse, IUseBI=4.

 GradGradGradGradGradGradGradGradGradGradGradGradGradGradGradGradGradGrad
 Berny optimization.
 Internal  Forces:  Max     0.000161320 RMS     0.000069539
 Search for a local minimum.
 Step number   1 out of a maximum of    2
 All quantities printed in internal units (Hartrees-Bohrs-Radians)
 Second derivative matrix not updated -- analytic derivatives used.
 ITU=  0
     Eigenvalues ---    0.00222   0.00317   0.04243   0.04275   0.05056
     Eigenvalues ---    0.06338   0.10176   0.12014   0.12019   0.13028
     Eigenvalues ---    0.16254   0.16392   0.24889   0.32464   0.32504
     Eigenvalues ---    0.32736   0.34396   0.34658   0.34884   0.41396
     Eigenvalues ---    0.54348
 Angle between quadratic step and forces=  51.38 degrees.
 Linear search not attempted -- first point.
 Iteration  1 RMS(Cart)=  0.00054130 RMS(Int)=  0.00000033
 Iteration  2 RMS(Cart)=  0.00000026 RMS(Int)=  0.00000012
 Variable       Old X    -DE/DX   Delta X   Delta X   Delta X     New X
                                 (Linear)    (Quad)   (Total)
    R1        1.82123  -0.00007   0.00000  -0.00016  -0.00016   1.82107
    R2        2.66754   0.00004   0.00000  -0.00018  -0.00018   2.66736
    R3        2.08895  -0.00011   0.00000  -0.00035  -0.00035   2.08860
    R4        2.08893  -0.00012   0.00000  -0.00034  -0.00034   2.08860
    R5        2.86004   0.00013   0.00000   0.00056   0.00056   2.86060
    R6        2.07776  -0.00012   0.00000  -0.00036  -0.00036   2.07740
    R7        2.07568  -0.00013   0.00000  -0.00040  -0.00040   2.07528
    R8        2.07775  -0.00012   0.00000  -0.00035  -0.00035   2.07740
    A1        1.89003   0.00016   0.00000   0.00092   0.00092   1.89095
    A2        1.93851   0.00001   0.00000   0.00036   0.00036   1.93887
    A3        1.93854   0.00001   0.00000   0.00033   0.00033   1.93887
    A4        1.88753   0.00011   0.00000   0.00050   0.00050   1.88802
    A5        1.86762   0.00004   0.00000   0.00017   0.00017   1.86779
    A6        1.91588  -0.00008   0.00000  -0.00067  -0.00067   1.91521
    A7        1.91594  -0.00008   0.00000  -0.00073  -0.00073   1.91521
    A8        1.92352  -0.00001   0.00000  -0.00003  -0.00003   1.92348
    A9        1.93651  -0.00004   0.00000  -0.00055  -0.00055   1.93596
   A10        1.92349  -0.00001   0.00000  -0.00001  -0.00001   1.92348
   A11        1.89529   0.00002   0.00000   0.00025   0.00025   1.89555
   A12        1.88867   0.00001   0.00000   0.00014   0.00014   1.88880
   A13        1.89532   0.00002   0.00000   0.00023   0.00023   1.89555
    D1       -1.03965  -0.00002   0.00000   0.00082   0.00082  -1.03883
    D2        1.03672   0.00003   0.00000   0.00149   0.00149   1.03820
    D3        3.14017   0.00000   0.00000   0.00111   0.00111   3.14128
    D4        1.04149   0.00000   0.00000   0.00021   0.00021   1.04169
    D5        3.14140   0.00000   0.00000   0.00014   0.00014   3.14155
    D6       -1.04184   0.00000   0.00000   0.00006   0.00006  -1.04178
    D7       -1.07594  -0.00003   0.00000  -0.00014  -0.00014  -1.07608
    D8        1.02397  -0.00003   0.00000  -0.00020  -0.00020   1.02377
    D9        3.12391  -0.00003   0.00000  -0.00028  -0.00028   3.12363
   D10       -3.12419   0.00003   0.00000   0.00048   0.00048  -3.12372
   D11       -1.02428   0.00002   0.00000   0.00042   0.00042  -1.02386
   D12        1.07566   0.00002   0.00000   0.00034   0.00034   1.07599
         Item               Value     Threshold  Converged?
 Maximum Force            0.000161     0.000450     YES
 RMS     Force            0.000070     0.000300     YES
 Maximum Displacement     0.001362     0.001800     YES
 RMS     Displacement     0.000541     0.001200     YES
 Predicted change in Energy=-3.661471D-07
 Optimization completed.
    -- Stationary point found.
                           ----------------------------
                           !   Optimized Parameters   !
                           ! (Angstroms and Degrees)  !
 --------------------------                            --------------------------
 ! Name  Definition              Value          Derivative Info.                !
 --------------------------------------------------------------------------------
 ! R1    R(1,2)                  0.9638         -DE/DX =   -0.0001              !
 ! R2    R(1,3)                  1.4116         -DE/DX =    0.0                 !
 ! R3    R(3,4)                  1.1054         -DE/DX =   -0.0001              !
 ! R4    R(3,5)                  1.1054         -DE/DX =   -0.0001              !
 ! R5    R(3,6)                  1.5135         -DE/DX =    0.0001              !
 ! R6    R(6,7)                  1.0995         -DE/DX =   -0.0001              !
 ! R7    R(6,8)                  1.0984         -DE/DX =   -0.0001              !
 ! R8    R(6,9)                  1.0995         -DE/DX =   -0.0001              !
 ! A1    A(2,1,3)              108.2908         -DE/DX =    0.0002              !
 ! A2    A(1,3,4)              111.0683         -DE/DX =    0.0                 !
 ! A3    A(1,3,5)              111.07           -DE/DX =    0.0                 !
 ! A4    A(1,3,6)              108.1472         -DE/DX =    0.0001              !
 ! A5    A(4,3,5)              107.0066         -DE/DX =    0.0                 !
 ! A6    A(4,3,6)              109.7718         -DE/DX =   -0.0001              !
 ! A7    A(5,3,6)              109.7751         -DE/DX =   -0.0001              !
 ! A8    A(3,6,7)              110.2093         -DE/DX =    0.0                 !
 ! A9    A(3,6,8)              110.9541         -DE/DX =    0.0                 !
 ! A10   A(3,6,9)              110.2078         -DE/DX =    0.0                 !
 ! A11   A(7,6,8)              108.5923         -DE/DX =    0.0                 !
 ! A12   A(7,6,9)              108.2127         -DE/DX =    0.0                 !
 ! A13   A(8,6,9)              108.594          -DE/DX =    0.0                 !
 ! D1    D(2,1,3,4)            -59.5676         -DE/DX =    0.0                 !
 ! D2    D(2,1,3,5)             59.3995         -DE/DX =    0.0                 !
 ! D3    D(2,1,3,6)            179.9185         -DE/DX =    0.0                 !
 ! D4    D(1,3,6,7)             59.6728         -DE/DX =    0.0                 !
 ! D5    D(1,3,6,8)            179.9892         -DE/DX =    0.0                 !
 ! D6    D(1,3,6,9)            -59.6933         -DE/DX =    0.0                 !
 ! D7    D(4,3,6,7)            -61.647          -DE/DX =    0.0                 !
 ! D8    D(4,3,6,8)             58.6694         -DE/DX =    0.0                 !
 ! D9    D(4,3,6,9)            178.9869         -DE/DX =    0.0                 !
 ! D10   D(5,3,6,7)           -179.0032         -DE/DX =    0.0                 !
 ! D11   D(5,3,6,8)            -58.6868         -DE/DX =    0.0                 !
 ! D12   D(5,3,6,9)             61.6307         -DE/DX =    0.0                 !
 --------------------------------------------------------------------------------
 GradGradGradGradGradGradGradGradGradGradGradGradGradGradGradGradGradGrad

 1\1\GINC-DC1S1B3C\Freq\RM062X\def2SVP\C2H6O1\CHMBNN\01-Nov-2020\0\\#N 
 Geom=AllCheck Guess=TCheck SCRF=Check GenChk RM062X/def2SVP Freq\\EtOH
  opt freq\\0,1\O,1.0485445739,1.391464149,-0.0230933972\H,2.0122968013
 ,1.3893041389,-0.0243305073\C,0.6085328549,2.732737612,-0.0221570104\H
 ,0.9822665065,3.2729370923,0.8669283596\H,0.9824457006,3.2742662255,-0
 .9103468497\C,-0.904932735,2.7323382906,-0.0222599884\H,-1.2846798421,
 2.2105951107,0.867956112\H,-1.2980132521,3.7579945225,-0.0213548097\H,
 -1.284529148,2.2121945484,-0.9134685088\\Version=ES64L-G09RevD.01\Stat
 e=1-A\HF=-154.8441927\RMSD=9.711e-10\RMSF=1.041e-04\ZeroPoint=0.080336
 \Thermal=0.0846439\Dipole=0.4791086,0.5789382,-0.0005711\DipoleDeriv=-
 0.6382326,0.3255464,0.0000253,0.328265,-1.072814,-0.0006415,0.0001143,
 -0.0004612,-0.6521847,0.2526906,-0.0363808,0.0001221,-0.0540953,0.3075
 127,0.0000586,0.0000481,0.0000047,0.4146358,0.5563603,-0.268012,-0.000
 1702,-0.2156323,0.9374238,0.0006332,-0.0000664,0.0004839,0.5298074,-0.
 057683,-0.0340222,-0.0862494,-0.0009616,-0.090228,-0.0898038,-0.094933
 3,-0.1311448,-0.1549161,-0.0576561,-0.0341584,0.0862095,-0.0010544,-0.
 0904585,0.0897962,0.0949401,0.1311304,-0.154448,-0.0966663,0.0592967,0
 .0000664,-0.0007083,0.0526979,-0.0000309,-0.0000486,-0.0000096,0.06277
 57,0.0067418,-0.0277784,0.0378263,-0.0703413,0.0319959,0.0990441,0.071
 204,0.0898635,-0.069833,0.0277044,0.0432056,0.0000365,0.0847371,-0.108
 4474,-0.0001793,0.0000709,-0.0001897,0.0943539,0.006741,-0.0276968,-0.
 0378665,-0.0702089,0.0323175,-0.0988765,-0.0713291,-0.0896773,-0.07019
 11\Polar=34.3699485,-0.8148285,31.6779564,-0.0047478,0.0029837,30.1006
 869\PG=C01 [X(C2H6O1)]\NImag=0\\0.65285237,-0.06781449,0.37521588,-0.0
 0081434,0.00024162,0.04896696,-0.53406583,0.01364698,0.00069843,0.5426
 0330,-0.03929218,-0.04293852,-0.00000199,-0.00855625,0.05318170,0.0006
 9946,-0.00007442,-0.00240525,-0.00070651,0.00006215,0.00232092,-0.1087
 3571,0.02128341,0.00007907,-0.01133948,0.04513265,0.00001634,0.5471689
 4,0.06186416,-0.25466762,-0.00015870,-0.00463281,-0.00586166,0.0000107
 5,0.03565408,0.53797831,0.00007459,-0.00008058,-0.06777820,0.00001009,
 -0.00005585,-0.00231313,-0.00003791,-0.00006168,0.60638644,0.00601407,
 0.01165035,0.01028400,0.00102599,-0.00005792,0.00083545,-0.08238352,-0
 .04117815,-0.07106443,0.08611413,-0.00322534,-0.03536188,-0.02813557,-
 0.00187958,0.00101611,0.00081697,-0.03905582,-0.09877871,-0.08807727,0
 .04003905,0.12198336,0.00435903,-0.00378602,0.00816740,0.00007258,-0.0
 0058724,0.00057490,-0.07267911,-0.09175750,-0.22591155,0.07762732,0.10
 473765,0.23407247,0.00600433,0.01167054,-0.01026635,0.00103354,-0.0000
 5699,-0.00083631,-0.08240576,-0.04131206,0.07104124,0.00528463,0.00413
 682,-0.00982999,0.08613746,-0.00322896,-0.03539794,0.02807585,-0.00188
 580,0.00102396,-0.00081887,-0.03917733,-0.09907351,0.08826835,0.004124
 37,0.00842906,-0.01033218,0.04018097,0.12230453,-0.00436177,0.00371049
 ,0.00820268,-0.00007723,0.00058910,0.00058130,0.07265707,0.09196256,-0
 .22562202,0.00984120,0.01037711,-0.02070347,-0.07760371,-0.10490696,0.
 23373685,-0.01959236,0.00938837,0.00001425,0.00061037,0.00141052,-0.00
 000658,-0.23494978,-0.00591512,-0.00001737,-0.01187856,-0.00029743,0.0
 0120927,-0.01187748,-0.00029471,-0.00121318,0.51048959,0.05198972,-0.0
 1048296,-0.00002242,0.00376207,-0.00660413,0.00000279,-0.02210897,-0.0
 7805025,0.00000944,-0.01486740,0.00162830,0.00138055,-0.01491212,0.001
 63132,-0.00138477,-0.00782388,0.60085366,0.00004287,-0.00001375,0.0040
 8697,0.00000304,-0.00000577,0.00030929,-0.00003361,0.00000748,-0.08471
 659,-0.02854730,0.00102439,0.00125238,0.02851947,-0.00102764,0.0012559
 7,-0.00001076,0.00002461,0.58499093,0.00357945,-0.00033239,-0.00125045
 ,0.00035990,-0.00017999,-0.00035306,-0.01229363,-0.01770551,0.02963858
 ,0.00169749,0.00005891,-0.00030263,-0.00679096,0.00070352,-0.00016387,
 -0.07572588,-0.04257476,0.07292944,0.08280436,-0.00040197,0.00143288,-
 0.00067922,-0.00001064,-0.00002492,-0.00000074,0.00070972,-0.00184215,
 0.00024073,-0.00003557,-0.00017933,0.00010847,-0.00015660,0.00100772,-
 0.00022200,-0.04462470,-0.10889169,0.10591831,0.04927256,0.11127742,0.
 00025164,-0.00057603,-0.00007373,-0.00015207,-0.00022896,0.00010288,-0
 .00139685,-0.00072428,0.00137394,0.00053227,-0.00048673,0.00099976,-0.
 00022584,0.00032731,0.00149464,0.07484344,0.10645421,-0.23074947,-0.08
 124327,-0.11553620,0.24254940,-0.00963587,0.00084225,0.00000496,-0.000
 58726,0.00178067,-0.00000162,-0.00276879,0.03087951,0.00002710,0.00091
 715,-0.00047951,-0.00061946,0.00091645,-0.00048019,0.00061870,-0.08137
 280,0.08896119,0.00007783,0.00339947,-0.01086279,-0.00123182,0.0857340
 2,0.00050966,0.00076865,-0.00000160,-0.00043264,0.00023261,0.00000128,
 -0.00314367,0.00214036,0.00000377,0.00048361,0.00025486,0.00001527,0.0
 0048401,0.00025475,-0.00001496,0.09263070,-0.29157542,-0.00021626,0.00
 463389,-0.01066927,-0.00179319,-0.09977981,0.30922374,-0.00000004,-0.0
 0000075,0.00090396,-0.00000024,0.00000022,0.00072644,-0.00000245,0.000
 00665,-0.00278988,0.00026733,0.00007130,0.00005340,-0.00026660,-0.0000
 7093,0.00005332,0.00008165,-0.00021669,-0.04526312,-0.01064592,0.02268
 791,0.00159519,-0.00008814,0.00023317,0.04316081,0.00357955,-0.0003350
 1,0.00125043,0.00035947,-0.00018051,0.00035282,-0.01229227,-0.01765409
 ,-0.02967188,-0.00679138,0.00070290,0.00016299,0.00169780,0.00005814,0
 .00030278,-0.07570310,-0.04242586,-0.07298097,0.00296980,0.00611000,0.
 00862250,0.00339763,0.00461425,0.01065441,0.08278251,-0.00040060,0.001
 43151,0.00068203,-0.00001134,-0.00002515,0.00000010,0.00070594,-0.0018
 4477,-0.00024691,-0.00015832,0.00100824,0.00022100,-0.00003456,-0.0001
 7990,-0.00011058,-0.04447375,-0.10850884,-0.10571136,0.00612376,0.0078
 8935,0.01256387,-0.01086132,-0.01063027,-0.02271087,0.04911019,0.11085
 983,-0.00025143,0.00057944,-0.00007079,0.00015191,0.00022835,0.0001026
 4,0.00139745,0.00071471,0.00137099,0.00022415,-0.00032785,0.00149472,-
 0.00053191,0.00048508,0.00100073,-0.07490073,-0.10624772,-0.23116638,-
 0.00860881,-0.01251724,-0.01729261,0.00121245,0.00177252,0.00155988,0.
 08130690,0.11531271,0.24300082\\-0.00016800,-0.00007427,0.00000818,0.0
 0008167,0.00009991,-0.00000420,-0.00022691,0.00001002,-0.00000986,0.00
 008922,0.00003379,0.00008623,0.00009549,0.00003671,-0.00008364,0.00031
 400,-0.00009353,0.00000157,-0.00005434,-0.00006026,0.00009754,-0.00008
 153,0.00010630,0.00000051,-0.00004960,-0.00005867,-0.00009631\\\@


 IT IS THE GODS' CUSTOM TO BRING LOW ALL THINGS OF SURPASSING GREATNESS.
     -- HERODOTUS
 IT IS THE LOFTY PINE THAT BY THE STORM IS OFTENER TOSSED;
 TOWERS FALL WITH HEAVIER CRASH WHICH HIGHER SOAR.
     -- HORACE
 THE BIGGER THEY COME, THE HARDER THEY FALL.
     -- BOB FITZSIMONS HEAVYWEIGHT CHAMPION, 1897-1899
 Job cpu time:       0 days  0 hours  1 minutes 33.0 seconds.
 File lengths (MBytes):  RWF=     15 Int=      0 D2E=      0 Chk=      5 Scr=      1
 Normal termination of Gaussian 09 at Sun Nov  1 21:56:58 2020.
