 Entering Gaussian System, Link 0=g09
 Input=Isatin_opt.com
 Output=Isatin_opt.log
 Initial command:
 /apps/applications/gaussian/G09.D01/2/default/g09/l1.exe "/nobackup/chmbnn/Gau-102513.inp" -scrdir="/nobackup/chmbnn/"
 Entering Link 1 = /apps/applications/gaussian/G09.D01/2/default/g09/l1.exe PID=    102514.
  
 Copyright (c) 1988,1990,1992,1993,1995,1998,2003,2009,2013,
            Gaussian, Inc.  All Rights Reserved.
  
 This is part of the Gaussian(R) 09 program.  It is based on
 the Gaussian(R) 03 system (copyright 2003, Gaussian, Inc.),
 the Gaussian(R) 98 system (copyright 1998, Gaussian, Inc.),
 the Gaussian(R) 94 system (copyright 1995, Gaussian, Inc.),
 the Gaussian 92(TM) system (copyright 1992, Gaussian, Inc.),
 the Gaussian 90(TM) system (copyright 1990, Gaussian, Inc.),
 the Gaussian 88(TM) system (copyright 1988, Gaussian, Inc.),
 the Gaussian 86(TM) system (copyright 1986, Carnegie Mellon
 University), and the Gaussian 82(TM) system (copyright 1983,
 Carnegie Mellon University). Gaussian is a federally registered
 trademark of Gaussian, Inc.
  
 This software contains proprietary and confidential information,
 including trade secrets, belonging to Gaussian, Inc.
  
 This software is provided under written license and may be
 used, copied, transmitted, or stored only in accord with that
 written license.
  
 The following legend is applicable only to US Government
 contracts under FAR:
  
                    RESTRICTED RIGHTS LEGEND
  
 Use, reproduction and disclosure by the US Government is
 subject to restrictions as set forth in subparagraphs (a)
 and (c) of the Commercial Computer Software - Restricted
 Rights clause in FAR 52.227-19.
  
 Gaussian, Inc.
 340 Quinnipiac St., Bldg. 40, Wallingford CT 06492
  
  
 ---------------------------------------------------------------
 Warning -- This program may not be used in any manner that
 competes with the business of Gaussian, Inc. or will provide
 assistance to any competitor of Gaussian, Inc.  The licensee
 of this program is prohibited from giving any competitor of
 Gaussian, Inc. access to this program.  By using this program,
 the user acknowledges that Gaussian, Inc. is engaged in the
 business of creating and licensing software in the field of
 computational chemistry and represents and warrants to the
 licensee that it is not a competitor of Gaussian, Inc. and that
 it will not use this program in any manner prohibited above.
 ---------------------------------------------------------------
  

 Cite this work as:
 Gaussian 09, Revision D.01,
 M. J. Frisch, G. W. Trucks, H. B. Schlegel, G. E. Scuseria, 
 M. A. Robb, J. R. Cheeseman, G. Scalmani, V. Barone, B. Mennucci, 
 G. A. Petersson, H. Nakatsuji, M. Caricato, X. Li, H. P. Hratchian, 
 A. F. Izmaylov, J. Bloino, G. Zheng, J. L. Sonnenberg, M. Hada, 
 M. Ehara, K. Toyota, R. Fukuda, J. Hasegawa, M. Ishida, T. Nakajima, 
 Y. Honda, O. Kitao, H. Nakai, T. Vreven, J. A. Montgomery, Jr., 
 J. E. Peralta, F. Ogliaro, M. Bearpark, J. J. Heyd, E. Brothers, 
 K. N. Kudin, V. N. Staroverov, T. Keith, R. Kobayashi, J. Normand, 
 K. Raghavachari, A. Rendell, J. C. Burant, S. S. Iyengar, J. Tomasi, 
 M. Cossi, N. Rega, J. M. Millam, M. Klene, J. E. Knox, J. B. Cross, 
 V. Bakken, C. Adamo, J. Jaramillo, R. Gomperts, R. E. Stratmann, 
 O. Yazyev, A. J. Austin, R. Cammi, C. Pomelli, J. W. Ochterski, 
 R. L. Martin, K. Morokuma, V. G. Zakrzewski, G. A. Voth, 
 P. Salvador, J. J. Dannenberg, S. Dapprich, A. D. Daniels, 
 O. Farkas, J. B. Foresman, J. V. Ortiz, J. Cioslowski, 
 and D. J. Fox, Gaussian, Inc., Wallingford CT, 2013.
 
 ******************************************
 Gaussian 09:  ES64L-G09RevD.01 24-Apr-2013
                 1-Nov-2020 
 ******************************************
 %nprocshared=4
 Will use up to    4 processors via shared memory.
 %chk=Isatin_opt.chk
 ------------------------------------------------------------
 # opt freq scrf=(cpcm,solvent=ethanol) pop=nbo def2svp m062x
 ------------------------------------------------------------
 1/14=-1,18=20,19=15,26=3,38=1/1,3;
 2/9=110,12=2,17=6,18=5,40=1/2;
 3/5=43,7=101,11=2,16=1,25=1,30=1,70=2101,71=1,72=4,74=-55/1,2,3;
 4//1;
 5/5=2,38=5,53=4/2;
 6/7=2,8=2,9=2,10=2,28=1,40=1/1,7;
 7//1,2,3,16;
 1/14=-1,18=20,19=15,26=3/3(2);
 2/9=110/2;
 99//99;
 2/9=110/2;
 3/5=43,7=101,11=2,16=1,25=1,30=1,70=2105,71=1,72=4,74=-55/1,2,3;
 4/5=5,16=3,69=1/1;
 5/5=2,38=5,53=4/2;
 7//1,2,3,16;
 1/14=-1,18=20,19=15,26=3/3(-5);
 2/9=110/2;
 6/7=2,8=2,9=2,10=2,19=2,28=1,40=1/1,7;
 99/9=1/99;
 ----------
 Isatin opt
 ----------
 Symbolic Z-matrix:
 Charge =  0 Multiplicity = 1
 C                    -1.97489   0.        0. 
 C                    -0.57973   0.        0. 
 C                     0.11781   1.20775   0. 
 C                    -0.57984   2.41626  -0.0012 
 C                    -1.97467   2.41618  -0.00168 
 C                    -2.67227   1.20798  -0.00068 
 H                    -2.52464  -0.95232   0.00045 
 H                    -0.03022  -0.95251   0.00132 
 H                    -2.52479   3.36846  -0.00263 
 H                    -3.77187   1.20816  -0.00086 
 C                     0.50916   3.50515  -0.0009 
 C                     1.99587   3.10355   0.00051 
 N                     1.53774   1.58815   0.00057 
 O                     2.89101   3.98803   0.00077 
 O                     0.18833   4.72197  -0.0018 
 C                     2.56052   0.53229   0.0012 
 H                     2.44613  -0.07455   0.87503 
 H                     2.44662  -0.07513  -0.87228 
 H                     3.53327   0.978     0.00133 
 

 GradGradGradGradGradGradGradGradGradGradGradGradGradGradGradGradGradGrad
 Berny optimization.
 Initialization pass.
                           ----------------------------
                           !    Initial Parameters    !
                           ! (Angstroms and Degrees)  !
 --------------------------                            --------------------------
 ! Name  Definition              Value          Derivative Info.                !
 --------------------------------------------------------------------------------
 ! R1    R(1,2)                  1.3952         estimate D2E/DX2                !
 ! R2    R(1,6)                  1.3948         estimate D2E/DX2                !
 ! R3    R(1,7)                  1.0996         estimate D2E/DX2                !
 ! R4    R(2,3)                  1.3947         estimate D2E/DX2                !
 ! R5    R(2,8)                  1.0997         estimate D2E/DX2                !
 ! R6    R(3,4)                  1.3954         estimate D2E/DX2                !
 ! R7    R(3,13)                 1.47           estimate D2E/DX2                !
 ! R8    R(4,5)                  1.3948         estimate D2E/DX2                !
 ! R9    R(4,11)                 1.54           estimate D2E/DX2                !
 ! R10   R(5,6)                  1.3951         estimate D2E/DX2                !
 ! R11   R(5,9)                  1.0998         estimate D2E/DX2                !
 ! R12   R(6,10)                 1.0996         estimate D2E/DX2                !
 ! R13   R(11,12)                1.54           estimate D2E/DX2                !
 ! R14   R(11,15)                1.2584         estimate D2E/DX2                !
 ! R15   R(12,13)                1.5831         estimate D2E/DX2                !
 ! R16   R(12,14)                1.2584         estimate D2E/DX2                !
 ! R17   R(13,16)                1.47           estimate D2E/DX2                !
 ! R18   R(16,17)                1.07           estimate D2E/DX2                !
 ! R19   R(16,18)                1.07           estimate D2E/DX2                !
 ! R20   R(16,19)                1.07           estimate D2E/DX2                !
 ! A1    A(2,1,6)              119.9985         estimate D2E/DX2                !
 ! A2    A(2,1,7)              119.9972         estimate D2E/DX2                !
 ! A3    A(6,1,7)              120.0043         estimate D2E/DX2                !
 ! A4    A(1,2,3)              120.0086         estimate D2E/DX2                !
 ! A5    A(1,2,8)              119.9808         estimate D2E/DX2                !
 ! A6    A(3,2,8)              120.0106         estimate D2E/DX2                !
 ! A7    A(2,3,4)              119.9942         estimate D2E/DX2                !
 ! A8    A(2,3,13)             135.0058         estimate D2E/DX2                !
 ! A9    A(4,3,13)             105.0            estimate D2E/DX2                !
 ! A10   A(3,4,5)              119.994          estimate D2E/DX2                !
 ! A11   A(3,4,11)             105.0            estimate D2E/DX2                !
 ! A12   A(5,4,11)             135.006          estimate D2E/DX2                !
 ! A13   A(4,5,6)              120.0047         estimate D2E/DX2                !
 ! A14   A(4,5,9)              120.0113         estimate D2E/DX2                !
 ! A15   A(6,5,9)              119.984          estimate D2E/DX2                !
 ! A16   A(1,6,5)              120.0            estimate D2E/DX2                !
 ! A17   A(1,6,10)             120.008          estimate D2E/DX2                !
 ! A18   A(5,6,10)             119.992          estimate D2E/DX2                !
 ! A19   A(4,11,12)            119.8865         estimate D2E/DX2                !
 ! A20   A(4,11,15)            120.2269         estimate D2E/DX2                !
 ! A21   A(12,11,15)           119.8865         estimate D2E/DX2                !
 ! A22   A(11,12,13)            88.2955         estimate D2E/DX2                !
 ! A23   A(11,12,14)           120.2269         estimate D2E/DX2                !
 ! A24   A(13,12,14)           151.4775         estimate D2E/DX2                !
 ! A25   A(3,13,12)            121.818          estimate D2E/DX2                !
 ! A26   A(3,13,16)            119.091          estimate D2E/DX2                !
 ! A27   A(12,13,16)           119.091          estimate D2E/DX2                !
 ! A28   A(13,16,17)           109.4712         estimate D2E/DX2                !
 ! A29   A(13,16,18)           109.4712         estimate D2E/DX2                !
 ! A30   A(13,16,19)           109.4712         estimate D2E/DX2                !
 ! A31   A(17,16,18)           109.4713         estimate D2E/DX2                !
 ! A32   A(17,16,19)           109.4712         estimate D2E/DX2                !
 ! A33   A(18,16,19)           109.4712         estimate D2E/DX2                !
 ! D1    D(6,1,2,3)              0.0323         estimate D2E/DX2                !
 ! D2    D(6,1,2,8)            179.9532         estimate D2E/DX2                !
 ! D3    D(7,1,2,3)           -179.9729         estimate D2E/DX2                !
 ! D4    D(7,1,2,8)             -0.052          estimate D2E/DX2                !
 ! D5    D(2,1,6,5)              0.0149         estimate D2E/DX2                !
 ! D6    D(2,1,6,10)           179.9892         estimate D2E/DX2                !
 ! D7    D(7,1,6,5)           -179.9798         estimate D2E/DX2                !
 ! D8    D(7,1,6,10)            -0.0056         estimate D2E/DX2                !
 ! D9    D(1,2,3,4)             -0.0568         estimate D2E/DX2                !
 ! D10   D(1,2,3,13)           179.9687         estimate D2E/DX2                !
 ! D11   D(8,2,3,4)           -179.9777         estimate D2E/DX2                !
 ! D12   D(8,2,3,13)             0.0478         estimate D2E/DX2                !
 ! D13   D(2,3,4,5)              0.0341         estimate D2E/DX2                !
 ! D14   D(2,3,4,11)          -179.9964         estimate D2E/DX2                !
 ! D15   D(13,3,4,5)          -179.9846         estimate D2E/DX2                !
 ! D16   D(13,3,4,11)           -0.0151         estimate D2E/DX2                !
 ! D17   D(2,3,13,12)         -179.9939         estimate D2E/DX2                !
 ! D18   D(2,3,13,16)            0.0061         estimate D2E/DX2                !
 ! D19   D(4,3,13,12)            0.0289         estimate D2E/DX2                !
 ! D20   D(4,3,13,16)         -179.9711         estimate D2E/DX2                !
 ! D21   D(3,4,5,6)              0.0131         estimate D2E/DX2                !
 ! D22   D(3,4,5,9)           -179.9995         estimate D2E/DX2                !
 ! D23   D(11,4,5,6)          -179.9452         estimate D2E/DX2                !
 ! D24   D(11,4,5,9)             0.0422         estimate D2E/DX2                !
 ! D25   D(3,4,11,12)            0.0            estimate D2E/DX2                !
 ! D26   D(3,4,11,15)          180.0            estimate D2E/DX2                !
 ! D27   D(5,4,11,12)          179.9626         estimate D2E/DX2                !
 ! D28   D(5,4,11,15)           -0.0374         estimate D2E/DX2                !
 ! D29   D(4,5,6,1)             -0.0376         estimate D2E/DX2                !
 ! D30   D(4,5,6,10)           179.9881         estimate D2E/DX2                !
 ! D31   D(9,5,6,1)            179.975          estimate D2E/DX2                !
 ! D32   D(9,5,6,10)             0.0007         estimate D2E/DX2                !
 ! D33   D(4,11,12,13)           0.0136         estimate D2E/DX2                !
 ! D34   D(4,11,12,14)         180.0            estimate D2E/DX2                !
 ! D35   D(15,11,12,13)       -179.9864         estimate D2E/DX2                !
 ! D36   D(15,11,12,14)          0.0            estimate D2E/DX2                !
 ! D37   D(11,12,13,3)          -0.0252         estimate D2E/DX2                !
 ! D38   D(11,12,13,16)        179.9748         estimate D2E/DX2                !
 ! D39   D(14,12,13,3)         179.9994         estimate D2E/DX2                !
 ! D40   D(14,12,13,16)         -0.0006         estimate D2E/DX2                !
 ! D41   D(3,13,16,17)         -60.0133         estimate D2E/DX2                !
 ! D42   D(3,13,16,18)          59.9867         estimate D2E/DX2                !
 ! D43   D(3,13,16,19)         179.9867         estimate D2E/DX2                !
 ! D44   D(12,13,16,17)        119.9867         estimate D2E/DX2                !
 ! D45   D(12,13,16,18)       -120.0133         estimate D2E/DX2                !
 ! D46   D(12,13,16,19)         -0.0133         estimate D2E/DX2                !
 --------------------------------------------------------------------------------
 Trust Radius=3.00D-01 FncErr=1.00D-07 GrdErr=1.00D-06
 Number of steps in this run=    109 maximum allowed number of steps=    114.
 GradGradGradGradGradGradGradGradGradGradGradGradGradGradGradGradGradGrad

                          Input orientation:                          
 ---------------------------------------------------------------------
 Center     Atomic      Atomic             Coordinates (Angstroms)
 Number     Number       Type             X           Y           Z
 ---------------------------------------------------------------------
      1          6           0       -1.974886    0.000000    0.000000
      2          6           0       -0.579726    0.000000    0.000000
      3          6           0        0.117812    1.207751    0.000000
      4          6           0       -0.579842    2.416260   -0.001199
      5          6           0       -1.974667    2.416182   -0.001678
      6          6           0       -2.672268    1.207976   -0.000682
      7          1           0       -2.524645   -0.952317    0.000450
      8          1           0       -0.030218   -0.952513    0.001315
      9          1           0       -2.524789    3.368463   -0.002631
     10          1           0       -3.771872    1.208159   -0.000862
     11          6           0        0.509156    3.505151   -0.000896
     12          6           0        1.995869    3.103553    0.000513
     13          7           0        1.537742    1.588146    0.000568
     14          8           0        2.891006    3.988030    0.000767
     15          8           0        0.188335    4.721968   -0.001796
     16          6           0        2.560516    0.532290    0.001205
     17          1           0        2.446131   -0.074548    0.875026
     18          1           0        2.446619   -0.075129   -0.872277
     19          1           0        3.533267    0.977999    0.001328
 ---------------------------------------------------------------------
                    Distance matrix (angstroms):
                    1          2          3          4          5
     1  C    0.000000
     2  C    1.395160   0.000000
     3  C    2.416205   1.394712   0.000000
     4  C    2.790065   2.416260   1.395427   0.000000
     5  C    2.416183   2.789946   2.416356   1.394825   0.000000
     6  C    1.394829   2.416183   2.790080   2.416236   1.395138
     7  H    1.099610   2.165553   3.412986   3.889675   3.413102
     8  H    2.165414   1.099655   2.165330   3.413316   3.889601
     9  H    3.413055   3.889707   3.413506   2.165528   1.099761
    10  H    2.165365   3.413128   3.889684   3.412999   2.165471
    11  C    4.296109   3.670388   2.330493   1.540000   2.712053
    12  C    5.039735   4.033079   2.668550   2.665832   4.029595
    13  N    3.854965   2.646861   1.470000   2.273749   3.608693
    14  O    6.291366   5.286810   3.926901   3.810151   5.113266
    15  O    5.193892   4.784026   3.514925   2.430306   3.161523
    16  C    4.566531   3.185036   2.534374   3.662130   4.910900
    17  H    4.507396   3.150720   2.798398   4.016019   5.149350
    18  H    4.507352   3.150441   2.798212   4.015627   5.149014
    19  H    5.594303   4.227670   3.423174   4.357323   5.692602
                    6          7          8          9         10
     6  C    0.000000
     7  H    2.165331   0.000000
     8  H    3.412938   2.494427   0.000000
     9  H    2.165516   4.320781   4.989362   0.000000
    10  H    1.099604   2.494641   4.320704   2.494420   0.000000
    11  C    3.924088   5.391936   4.490178   3.037023   4.858330
    12  C    5.038324   6.073312   4.533949   4.528414   6.071190
    13  N    4.227140   4.791339   2.985539   4.435504   5.323193
    14  O    6.219222   7.330505   5.739557   5.451120   7.219531
    15  O    4.531136   6.289497   5.678689   3.031999   5.294345
    16  C    5.276228   5.297445   2.986058   5.822733   6.368355
    17  H    5.348807   5.122887   2.768844   6.110209   6.409062
    18  H    5.348742   5.122946   2.769059   6.109788   6.409042
    19  H    6.209795   6.358020   4.052814   6.512632   7.308764
                   11         12         13         14         15
    11  C    0.000000
    12  C    1.540000   0.000000
    13  N    2.175523   1.583142   0.000000
    14  O    2.430306   1.258400   2.755135   0.000000
    15  O    1.258400   2.426202   3.412001   2.800555   0.000000
    16  C    3.611923   2.632531   1.470000   3.471507   4.814630
    17  H    4.163335   3.326835   2.086720   4.179328   5.373363
    18  H    4.163109   3.327004   2.086720   4.179586   5.373056
    19  H    3.941035   2.623275   2.086720   3.077789   5.020547
                   16         17         18         19
    16  C    0.000000
    17  H    1.070000   0.000000
    18  H    1.070000   1.747303   0.000000
    19  H    1.070000   1.747303   1.747303   0.000000
 Stoichiometry    C9H7NO2
 Framework group  C1[X(C9H7NO2)]
 Deg. of freedom    51
 Full point group                 C1      NOp   1
 Largest Abelian subgroup         C1      NOp   1
 Largest concise Abelian subgroup C1      NOp   1
                         Standard orientation:                         
 ---------------------------------------------------------------------
 Center     Atomic      Atomic             Coordinates (Angstroms)
 Number     Number       Type             X           Y           Z
 ---------------------------------------------------------------------
      1          6           0       -2.933921    0.619173   -0.000334
      2          6           0       -1.734627    1.332030    0.000313
      3          6           0       -0.517915    0.650242    0.000097
      4          6           0       -0.500138   -0.745072    0.000434
      5          6           0       -1.699184   -1.457691    0.000267
      6          6           0       -2.916182   -0.775543   -0.000513
      7          1           0       -3.893085    1.156895   -0.000613
      8          1           0       -1.748950    2.431592   -0.000323
      9          1           0       -1.685506   -2.557367    0.000540
     10          1           0       -3.861319   -1.337543   -0.000843
     11          6           0        0.992345   -1.124671    0.000149
     12          6           0        2.065142   -0.019815   -0.000392
     13          7           0        0.897034    1.048764    0.000017
     14          8           0        3.286535   -0.322750   -0.000626
     15          8           0        1.338296   -2.334583    0.000358
     16          6           0        1.236732    2.478976    0.000325
     17          1           0        0.828490    2.942716   -0.873279
     18          1           0        0.828315    2.942382    0.874024
     19          1           0        2.300653    2.592867    0.000453
 ---------------------------------------------------------------------
 Rotational constants (GHZ):      1.6613952      0.8139164      0.5481126
 Standard basis: def2SVP (5D, 7F)
 There are   215 symmetry adapted cartesian basis functions of A   symmetry.
 There are   203 symmetry adapted basis functions of A   symmetry.
   203 basis functions,   349 primitive gaussians,   215 cartesian basis functions
    42 alpha electrons       42 beta electrons
       nuclear repulsion energy       640.5255471446 Hartrees.
 NAtoms=   19 NActive=   19 NUniq=   19 SFac= 1.00D+00 NAtFMM=   60 NAOKFM=F Big=F
 Integral buffers will be    131072 words long.
 Raffenetti 2 integral format.
 Two-electron integral symmetry is turned on.
 ------------------------------------------------------------------------------
 Polarizable Continuum Model (PCM)
 =================================
 Model                : C-PCM.
 Atomic radii         : UFF (Universal Force Field).
 Polarization charges : Total charges.
 Charge compensation  : None.
 Solution method      : On-the-fly selection.
 Cavity type          : Scaled VdW (van der Waals Surface) (Alpha=1.100).
 Cavity algorithm     : GePol (No added spheres)
                        Default sphere list used, NSphG=   19.
                        Lebedev-Laikov grids with approx.  5.0 points / Ang**2.
                        Smoothing algorithm: Karplus/York (Gamma=1.0000).
                        Polarization charges: spherical gaussians, with
                                              point-specific exponents (IZeta= 3).
                        Self-potential: point-specific (ISelfS= 7).
                        Self-field    : sphere-specific E.n sum rule (ISelfD= 2).
 1st derivatives      : Analytical E(r).r(x)/FMM algorithm (CHGder, D1EAlg=3).
                        Cavity 1st derivative terms included.
 Solvent              : Ethanol, Eps=  24.852000 Eps(inf)=   1.852593
 ------------------------------------------------------------------------------
 Spheres list:
 ISph  on   Nord     Re0    Alpha      Xe            Ye            Ze
    1   C      1    1.9255  1.100     -2.933921      0.619173     -0.000334
    2   C      2    1.9255  1.100     -1.734627      1.332030      0.000313
    3   C      3    1.9255  1.100     -0.517915      0.650242      0.000097
    4   C      4    1.9255  1.100     -0.500138     -0.745072      0.000434
    5   C      5    1.9255  1.100     -1.699184     -1.457691      0.000267
    6   C      6    1.9255  1.100     -2.916182     -0.775543     -0.000513
    7   H      7    1.4430  1.100     -3.893085      1.156895     -0.000613
    8   H      8    1.4430  1.100     -1.748950      2.431592     -0.000323
    9   H      9    1.4430  1.100     -1.685506     -2.557367      0.000540
   10   H     10    1.4430  1.100     -3.861319     -1.337543     -0.000843
   11   C     11    1.9255  1.100      0.992345     -1.124671      0.000149
   12   C     12    1.9255  1.100      2.065142     -0.019815     -0.000392
   13   N     13    1.8300  1.100      0.897034      1.048764      0.000017
   14   O     14    1.7500  1.100      3.286535     -0.322750     -0.000626
   15   O     15    1.7500  1.100      1.338296     -2.334583      0.000358
   16   C     16    1.9255  1.100      1.236732      2.478976      0.000325
   17   H     17    1.4430  1.100      0.828490      2.942716     -0.873279
   18   H     18    1.4430  1.100      0.828315      2.942382      0.874024
   19   H     19    1.4430  1.100      2.300653      2.592867      0.000453
 ------------------------------------------------------------------------------
 One-electron integrals computed using PRISM.
   1 Symmetry operations used in ECPInt.
 ECPInt:  NShTT=    4371 NPrTT=   16287 LenC2=    4256 LenP2D=   12005.
 LDataN:  DoStor=T MaxTD1= 4 Len=   56
 NBasis=   203 RedAO= T EigKep=  2.52D-04  NBF=   203
 NBsUse=   203 1.00D-06 EigRej= -1.00D+00 NBFU=   203
 ExpMin= 1.22D-01 ExpMax= 2.27D+03 ExpMxC= 3.41D+02 IAcc=1 IRadAn=         1 AccDes= 0.00D+00
 Harris functional with IExCor= 1009 and IRadAn=       1 diagonalized for initial guess.
 HarFok:  IExCor= 1009 AccDes= 0.00D+00 IRadAn=         1 IDoV= 1 UseB2=F ITyADJ=14
 ICtDFT=  3500011 ScaDFX=  1.000000  1.000000  1.000000  1.000000
 FoFCou: FMM=F IPFlag=           0 FMFlag=      100000 FMFlg1=           0
         NFxFlg=           0 DoJE=T BraDBF=F KetDBF=T FulRan=T
         wScrn=  0.000000 ICntrl=     500 IOpCl=  0 I1Cent=   200000004 NGrid=           0
         NMat0=    1 NMatS0=      1 NMatT0=    0 NMatD0=    1 NMtDS0=    0 NMtDT0=    0
 Petite list used in FoFCou.
 Requested convergence on RMS density matrix=1.00D-08 within 128 cycles.
 Requested convergence on MAX density matrix=1.00D-06.
 Requested convergence on             energy=1.00D-06.
 No special actions if energy rises.
 Inv3:  Mode=1 IEnd=     8386752.
 Iteration    1 A*A^-1 deviation from unit magnitude is 5.77D-15 for   1657.
 Iteration    1 A*A^-1 deviation from orthogonality  is 2.09D-15 for   1643   1544.
 Iteration    1 A^-1*A deviation from unit magnitude is 5.77D-15 for   1657.
 Iteration    1 A^-1*A deviation from orthogonality  is 1.40D-15 for   1586    369.
 Error on total polarization charges =  0.00772
 SCF Done:  E(RM062X) =  -551.655884121     A.U. after   15 cycles
            NFock= 15  Conv=0.57D-08     -V/T= 2.0109

 **********************************************************************

            Population analysis using the SCF density.

 **********************************************************************

 Orbital symmetries:
       Occupied  (A) (A) (A) (A) (A) (A) (A) (A) (A) (A) (A) (A)
                 (A) (A) (A) (A) (A) (A) (A) (A) (A) (A) (A) (A)
                 (A) (A) (A) (A) (A) (A) (A) (A) (A) (A) (A) (A)
                 (A) (A) (A) (A) (A) (A)
       Virtual   (A) (A) (A) (A) (A) (A) (A) (A) (A) (A) (A) (A)
                 (A) (A) (A) (A) (A) (A) (A) (A) (A) (A) (A) (A)
                 (A) (A) (A) (A) (A) (A) (A) (A) (A) (A) (A) (A)
                 (A) (A) (A) (A) (A) (A) (A) (A) (A) (A) (A) (A)
                 (A) (A) (A) (A) (A) (A) (A) (A) (A) (A) (A) (A)
                 (A) (A) (A) (A) (A) (A) (A) (A) (A) (A) (A) (A)
                 (A) (A) (A) (A) (A) (A) (A) (A) (A) (A) (A) (A)
                 (A) (A) (A) (A) (A) (A) (A) (A) (A) (A) (A) (A)
                 (A) (A) (A) (A) (A) (A) (A) (A) (A) (A) (A) (A)
                 (A) (A) (A) (A) (A) (A) (A) (A) (A) (A) (A) (A)
                 (A) (A) (A) (A) (A) (A) (A) (A) (A) (A) (A) (A)
                 (A) (A) (A) (A) (A) (A) (A) (A) (A) (A) (A) (A)
                 (A) (A) (A) (A) (A) (A) (A) (A) (A) (A) (A) (A)
                 (A) (A) (A) (A) (A)
 The electronic state is 1-A.
 Alpha  occ. eigenvalues --  -19.67972 -19.65580 -14.83217 -10.72611 -10.67011
 Alpha  occ. eigenvalues --  -10.63048 -10.58556 -10.58505 -10.58336 -10.58262
 Alpha  occ. eigenvalues --  -10.58247 -10.57231  -1.17679  -1.14212  -1.05777
 Alpha  occ. eigenvalues --   -0.96365  -0.87877  -0.85187  -0.81604  -0.74616
 Alpha  occ. eigenvalues --   -0.70817  -0.67490  -0.64509  -0.59154  -0.57993
 Alpha  occ. eigenvalues --   -0.57070  -0.55110  -0.53770  -0.52042  -0.51467
 Alpha  occ. eigenvalues --   -0.50207  -0.50025  -0.47282  -0.47113  -0.44975
 Alpha  occ. eigenvalues --   -0.44204  -0.42303  -0.39941  -0.38004  -0.33249
 Alpha  occ. eigenvalues --   -0.33040  -0.28812
 Alpha virt. eigenvalues --   -0.07671  -0.00043   0.02989   0.05621   0.10203
 Alpha virt. eigenvalues --    0.10227   0.12318   0.15111   0.17004   0.17247
 Alpha virt. eigenvalues --    0.18219   0.19201   0.20494   0.20718   0.22100
 Alpha virt. eigenvalues --    0.24946   0.26708   0.29739   0.31811   0.33679
 Alpha virt. eigenvalues --    0.34345   0.35693   0.36494   0.38950   0.42502
 Alpha virt. eigenvalues --    0.44825   0.45483   0.45765   0.48700   0.49706
 Alpha virt. eigenvalues --    0.50628   0.51518   0.52595   0.54564   0.55470
 Alpha virt. eigenvalues --    0.57816   0.58680   0.58752   0.62732   0.63828
 Alpha virt. eigenvalues --    0.64059   0.65991   0.66116   0.67686   0.68264
 Alpha virt. eigenvalues --    0.69163   0.70071   0.70916   0.72505   0.73189
 Alpha virt. eigenvalues --    0.74885   0.75023   0.75244   0.75653   0.77205
 Alpha virt. eigenvalues --    0.79435   0.79964   0.83320   0.87251   0.89592
 Alpha virt. eigenvalues --    0.91034   0.92495   0.96590   0.98418   1.06001
 Alpha virt. eigenvalues --    1.07563   1.08257   1.11138   1.11946   1.15834
 Alpha virt. eigenvalues --    1.18742   1.19739   1.21558   1.22458   1.25374
 Alpha virt. eigenvalues --    1.27268   1.29229   1.29687   1.30873   1.33634
 Alpha virt. eigenvalues --    1.34557   1.35567   1.38947   1.43101   1.50269
 Alpha virt. eigenvalues --    1.52958   1.57274   1.58284   1.60900   1.64414
 Alpha virt. eigenvalues --    1.66281   1.68028   1.71247   1.71756   1.73111
 Alpha virt. eigenvalues --    1.74520   1.75004   1.78520   1.78997   1.80417
 Alpha virt. eigenvalues --    1.81913   1.82846   1.84588   1.84780   1.87473
 Alpha virt. eigenvalues --    1.89707   1.93427   1.94773   1.96533   1.97104
 Alpha virt. eigenvalues --    1.99475   2.02033   2.04413   2.06170   2.09346
 Alpha virt. eigenvalues --    2.12687   2.14853   2.16667   2.18099   2.19115
 Alpha virt. eigenvalues --    2.20131   2.22905   2.26702   2.31026   2.31723
 Alpha virt. eigenvalues --    2.34462   2.34562   2.37198   2.45197   2.45887
 Alpha virt. eigenvalues --    2.50661   2.54900   2.57546   2.59711   2.61661
 Alpha virt. eigenvalues --    2.62019   2.67215   2.70038   2.70665   2.71854
 Alpha virt. eigenvalues --    2.72606   2.74413   2.75151   2.77873   2.78221
 Alpha virt. eigenvalues --    2.83717   2.86356   2.93391   2.97413   2.99818
 Alpha virt. eigenvalues --    3.02441   3.06728   3.07405   3.10007   3.15890
 Alpha virt. eigenvalues --    3.18763   3.24645   3.48298   3.55553   3.59407
 Alpha virt. eigenvalues --    3.64317
          Condensed to atoms (all electrons):
               1          2          3          4          5          6
     1  C    5.119783   0.237698   0.133319  -0.158277   0.100380   0.242783
     2  C    0.237698   5.187242   0.275866   0.078927  -0.129016   0.090147
     3  C    0.133319   0.275866   5.125888   0.191314   0.034588  -0.150737
     4  C   -0.158277   0.078927   0.191314   5.628948   0.330140   0.096720
     5  C    0.100380  -0.129016   0.034588   0.330140   5.109971   0.258305
     6  C    0.242783   0.090147  -0.150737   0.096720   0.258305   5.141534
     7  H    0.455959  -0.066378   0.013942  -0.001808   0.013135  -0.067338
     8  H   -0.069682   0.469852  -0.082821   0.016123  -0.002436   0.013889
     9  H    0.012669  -0.002007   0.016306  -0.072232   0.445383  -0.059680
    10  H   -0.068950   0.013186  -0.001467   0.014374  -0.067292   0.456107
    11  C   -0.000046   0.004421  -0.030432   0.161021  -0.059059   0.011670
    12  C   -0.000299   0.000695  -0.042578  -0.111291   0.005380   0.000270
    13  N    0.005233  -0.063550   0.288651  -0.041777   0.007465  -0.000174
    14  O    0.000000   0.000003   0.000349   0.004839   0.000026   0.000000
    15  O   -0.000021  -0.000082   0.006055  -0.108026   0.000863   0.000532
    16  C   -0.000275  -0.001244  -0.041695   0.006345  -0.000289   0.000067
    17  H    0.000095   0.000859  -0.003215   0.001118   0.000003  -0.000019
    18  H    0.000096   0.000882  -0.003223   0.001115   0.000002  -0.000019
    19  H    0.000007   0.000348   0.004324  -0.001445   0.000008   0.000001
               7          8          9         10         11         12
     1  C    0.455959  -0.069682   0.012669  -0.068950  -0.000046  -0.000299
     2  C   -0.066378   0.469852  -0.002007   0.013186   0.004421   0.000695
     3  C    0.013942  -0.082821   0.016306  -0.001467  -0.030432  -0.042578
     4  C   -0.001808   0.016123  -0.072232   0.014374   0.161021  -0.111291
     5  C    0.013135  -0.002436   0.445383  -0.067292  -0.059059   0.005380
     6  C   -0.067338   0.013889  -0.059680   0.456107   0.011670   0.000270
     7  H    0.610530  -0.010938  -0.000200  -0.010390   0.000003   0.000002
     8  H   -0.010938   0.625971   0.000022  -0.000180  -0.000368   0.000049
     9  H   -0.000200   0.000022   0.629380  -0.010501  -0.010491   0.000364
    10  H   -0.010390  -0.000180  -0.010501   0.620321  -0.000157   0.000002
    11  C    0.000003  -0.000368  -0.010491  -0.000157   5.214045   0.181986
    12  C    0.000002   0.000049   0.000364   0.000002   0.181986   4.679882
    13  N   -0.000050  -0.008243  -0.000245   0.000009  -0.168489   0.275113
    14  O    0.000000   0.000000  -0.000002   0.000000  -0.092171   0.692645
    15  O    0.000000   0.000001   0.006352   0.000000   0.683621  -0.066918
    16  C   -0.000015   0.005340   0.000013   0.000000   0.012987  -0.031644
    17  H    0.000003   0.000409  -0.000001   0.000000  -0.000932   0.001563
    18  H    0.000003   0.000410  -0.000001   0.000000  -0.000934   0.001573
    19  H    0.000000  -0.000150   0.000000   0.000000   0.003986  -0.005868
              13         14         15         16         17         18
     1  C    0.005233   0.000000  -0.000021  -0.000275   0.000095   0.000096
     2  C   -0.063550   0.000003  -0.000082  -0.001244   0.000859   0.000882
     3  C    0.288651   0.000349   0.006055  -0.041695  -0.003215  -0.003223
     4  C   -0.041777   0.004839  -0.108026   0.006345   0.001118   0.001115
     5  C    0.007465   0.000026   0.000863  -0.000289   0.000003   0.000002
     6  C   -0.000174   0.000000   0.000532   0.000067  -0.000019  -0.000019
     7  H   -0.000050   0.000000   0.000000  -0.000015   0.000003   0.000003
     8  H   -0.008243   0.000000   0.000001   0.005340   0.000409   0.000410
     9  H   -0.000245  -0.000002   0.006352   0.000013  -0.000001  -0.000001
    10  H    0.000009   0.000000   0.000000   0.000000   0.000000   0.000000
    11  C   -0.168489  -0.092171   0.683621   0.012987  -0.000932  -0.000934
    12  C    0.275113   0.692645  -0.066918  -0.031644   0.001563   0.001573
    13  N    7.081479  -0.025196   0.002570   0.270177  -0.028854  -0.028865
    14  O   -0.025196   7.663823  -0.001236  -0.000986   0.000015   0.000015
    15  O    0.002570  -0.001236   7.739303  -0.000084   0.000003   0.000003
    16  C    0.270177  -0.000986  -0.000084   4.446882   0.411875   0.411875
    17  H   -0.028854   0.000015   0.000003   0.411875   0.599187  -0.027850
    18  H   -0.028865   0.000015   0.000003   0.411875  -0.027850   0.599174
    19  H   -0.021298   0.003577  -0.000009   0.406743  -0.018068  -0.018065
              19
     1  C    0.000007
     2  C    0.000348
     3  C    0.004324
     4  C   -0.001445
     5  C    0.000008
     6  C    0.000001
     7  H    0.000000
     8  H   -0.000150
     9  H    0.000000
    10  H    0.000000
    11  C    0.003986
    12  C   -0.005868
    13  N   -0.021298
    14  O    0.003577
    15  O   -0.000009
    16  C    0.406743
    17  H   -0.018068
    18  H   -0.018065
    19  H    0.578873
 Mulliken charges:
               1
     1  C   -0.010474
     2  C   -0.097850
     3  C    0.265569
     4  C   -0.036129
     5  C   -0.047557
     6  C   -0.034059
     7  H    0.063537
     8  H    0.042751
     9  H    0.044869
    10  H    0.054939
    11  C    0.089337
    12  C    0.419074
    13  N   -0.543957
    14  O   -0.245701
    15  O   -0.262928
    16  C    0.103928
    17  H    0.063809
    18  H    0.063805
    19  H    0.067038
 Sum of Mulliken charges =   0.00000
 Mulliken charges with hydrogens summed into heavy atoms:
               1
     1  C    0.053063
     2  C   -0.055099
     3  C    0.265569
     4  C   -0.036129
     5  C   -0.002688
     6  C    0.020880
    11  C    0.089337
    12  C    0.419074
    13  N   -0.543957
    14  O   -0.245701
    15  O   -0.262928
    16  C    0.298580
 Electronic spatial extent (au):  <R**2>=           1953.1961
 Charge=              0.0000 electrons
 Dipole moment (field-independent basis, Debye):
    X=             -5.4241    Y=              5.2965    Z=             -0.0005  Tot=              7.5811
 Quadrupole moment (field-independent basis, Debye-Ang):
   XX=            -71.6463   YY=            -65.6700   ZZ=            -70.1689
   XY=              8.4606   XZ=              0.0057   YZ=              0.0004
 Traceless Quadrupole moment (field-independent basis, Debye-Ang):
   XX=             -2.4846   YY=              3.4917   ZZ=             -1.0071
   XY=              8.4606   XZ=              0.0057   YZ=              0.0004
 Octapole moment (field-independent basis, Debye-Ang**2):
  XXX=            -69.1361  YYY=             33.1893  ZZZ=             -0.0017  XYY=            -12.0750
  XXY=             16.1033  XXZ=             -0.0032  XZZ=             14.5750  YZZ=             -1.4595
  YYZ=             -0.0037  XYZ=              0.0048
 Hexadecapole moment (field-independent basis, Debye-Ang**3):
 XXXX=          -1626.9436 YYYY=           -833.9011 ZZZZ=            -76.6234 XXXY=             26.6012
 XXXZ=              0.0929 YYYX=             44.3436 YYYZ=              0.0004 ZZZX=             -0.0053
 ZZZY=             -0.0016 XXYY=           -386.3213 XXZZ=           -296.6310 YYZZ=           -154.7743
 XXYZ=             -0.0025 YYXZ=              0.0043 ZZXY=             -5.3666
 N-N= 6.405255471446D+02 E-N=-2.563997257913D+03  KE= 5.457229503502D+02
 ******************************Gaussian NBO Version 3.1******************************
             N A T U R A L   A T O M I C   O R B I T A L   A N D
          N A T U R A L   B O N D   O R B I T A L   A N A L Y S I S
 ******************************Gaussian NBO Version 3.1******************************
       /RESON  / : Allow strongly delocalized NBO set

 Analyzing the SCF density

 Job title: Isatin opt                                                      

 Storage needed:    124932 in NPA,    165820 in NBO (  33552437 available)


 NATURAL POPULATIONS:  Natural atomic orbital occupancies 
                                                          
   NAO  Atom  No  lang   Type(AO)    Occupancy      Energy
 ----------------------------------------------------------
     1    C    1  S      Cor( 1S)     1.99898     -10.44763
     2    C    1  S      Val( 2S)     0.94709      -0.16999
     3    C    1  S      Ryd( 3S)     0.00112       0.59607
     4    C    1  px     Val( 2p)     1.16598      -0.08274
     5    C    1  px     Ryd( 3p)     0.00566       0.95853
     6    C    1  py     Val( 2p)     1.10627      -0.07271
     7    C    1  py     Ryd( 3p)     0.00480       0.76282
     8    C    1  pz     Val( 2p)     0.95599      -0.12316
     9    C    1  pz     Ryd( 3p)     0.00074       0.59213
    10    C    1  dxy    Ryd( 3d)     0.00067       2.50597
    11    C    1  dxz    Ryd( 3d)     0.00051       1.93811
    12    C    1  dyz    Ryd( 3d)     0.00058       1.95290
    13    C    1  dx2y2  Ryd( 3d)     0.00063       2.46169
    14    C    1  dz2    Ryd( 3d)     0.00033       2.23353

    15    C    2  S      Cor( 1S)     1.99890     -10.44551
    16    C    2  S      Val( 2S)     0.93177      -0.16038
    17    C    2  S      Ryd( 3S)     0.00155       0.55945
    18    C    2  px     Val( 2p)     1.06982      -0.07550
    19    C    2  px     Ryd( 3p)     0.00374       0.71475
    20    C    2  py     Val( 2p)     1.22165      -0.10323
    21    C    2  py     Ryd( 3p)     0.00562       1.05788
    22    C    2  pz     Val( 2p)     1.04042      -0.13358
    23    C    2  pz     Ryd( 3p)     0.00117       0.59716
    24    C    2  dxy    Ryd( 3d)     0.00058       2.44766
    25    C    2  dxz    Ryd( 3d)     0.00051       1.95859
    26    C    2  dyz    Ryd( 3d)     0.00048       1.93277
    27    C    2  dx2y2  Ryd( 3d)     0.00063       2.52871
    28    C    2  dz2    Ryd( 3d)     0.00038       2.23554

    29    C    3  S      Cor( 1S)     1.99874     -10.49533
    30    C    3  S      Val( 2S)     0.80293      -0.12665
    31    C    3  S      Ryd( 3S)     0.00216       0.56142
    32    C    3  px     Val( 2p)     0.91261      -0.05995
    33    C    3  px     Ryd( 3p)     0.00423       0.97272
    34    C    3  py     Val( 2p)     1.06646      -0.10535
    35    C    3  py     Ryd( 3p)     0.00655       0.91955
    36    C    3  pz     Val( 2p)     0.98672      -0.14194
    37    C    3  pz     Ryd( 3p)     0.00093       0.62467
    38    C    3  dxy    Ryd( 3d)     0.00077       2.35400
    39    C    3  dxz    Ryd( 3d)     0.00145       1.92024
    40    C    3  dyz    Ryd( 3d)     0.00070       1.90876
    41    C    3  dx2y2  Ryd( 3d)     0.00116       2.50237
    42    C    3  dz2    Ryd( 3d)     0.00050       2.18838

    43    C    4  S      Cor( 1S)     1.99874     -10.44443
    44    C    4  S      Val( 2S)     0.86415      -0.13717
    45    C    4  S      Ryd( 3S)     0.00209       0.60151
    46    C    4  px     Val( 2p)     1.11726      -0.11350
    47    C    4  px     Ryd( 3p)     0.00560       1.13793
    48    C    4  py     Val( 2p)     1.08972      -0.10143
    49    C    4  py     Ryd( 3p)     0.00843       0.97368
    50    C    4  pz     Val( 2p)     1.07069      -0.13667
    51    C    4  pz     Ryd( 3p)     0.00106       0.66107
    52    C    4  dxy    Ryd( 3d)     0.00043       2.35211
    53    C    4  dxz    Ryd( 3d)     0.00036       1.91296
    54    C    4  dyz    Ryd( 3d)     0.00057       1.92660
    55    C    4  dx2y2  Ryd( 3d)     0.00096       2.50559
    56    C    4  dz2    Ryd( 3d)     0.00043       2.22453

    57    C    5  S      Cor( 1S)     1.99895     -10.44710
    58    C    5  S      Val( 2S)     0.93637      -0.15940
    59    C    5  S      Ryd( 3S)     0.00133       0.58822
    60    C    5  px     Val( 2p)     1.06801      -0.06302
    61    C    5  px     Ryd( 3p)     0.00429       0.67003
    62    C    5  py     Val( 2p)     1.21601      -0.09482
    63    C    5  py     Ryd( 3p)     0.00721       1.04747
    64    C    5  pz     Val( 2p)     0.94846      -0.12201
    65    C    5  pz     Ryd( 3p)     0.00071       0.59323
    66    C    5  dxy    Ryd( 3d)     0.00063       2.43941
    67    C    5  dxz    Ryd( 3d)     0.00065       1.96288
    68    C    5  dyz    Ryd( 3d)     0.00043       1.93734
    69    C    5  dx2y2  Ryd( 3d)     0.00065       2.53473
    70    C    5  dz2    Ryd( 3d)     0.00034       2.23312

    71    C    6  S      Cor( 1S)     1.99899     -10.43821
    72    C    6  S      Val( 2S)     0.94378      -0.16357
    73    C    6  S      Ryd( 3S)     0.00112       0.59455
    74    C    6  px     Val( 2p)     1.16762      -0.07994
    75    C    6  px     Ryd( 3p)     0.00559       0.95501
    76    C    6  py     Val( 2p)     1.10607      -0.07069
    77    C    6  py     Ryd( 3p)     0.00481       0.77699
    78    C    6  pz     Val( 2p)     1.01587      -0.12425
    79    C    6  pz     Ryd( 3p)     0.00115       0.59591
    80    C    6  dxy    Ryd( 3d)     0.00064       2.51608
    81    C    6  dxz    Ryd( 3d)     0.00048       1.94356
    82    C    6  dyz    Ryd( 3d)     0.00048       1.95736
    83    C    6  dx2y2  Ryd( 3d)     0.00064       2.46277
    84    C    6  dz2    Ryd( 3d)     0.00035       2.24018

    85    H    7  S      Val( 1S)     0.74316       0.10341
    86    H    7  S      Ryd( 2S)     0.00138       0.34592
    87    H    7  px     Ryd( 2p)     0.00068       2.29319
    88    H    7  py     Ryd( 2p)     0.00024       2.09954
    89    H    7  pz     Ryd( 2p)     0.00008       1.68299

    90    H    8  S      Val( 1S)     0.73986       0.09825
    91    H    8  S      Ryd( 2S)     0.00133       0.37883
    92    H    8  px     Ryd( 2p)     0.00005       2.02900
    93    H    8  py     Ryd( 2p)     0.00085       2.38935
    94    H    8  pz     Ryd( 2p)     0.00009       1.69051

    95    H    9  S      Val( 1S)     0.74348       0.10127
    96    H    9  S      Ryd( 2S)     0.00240       0.35180
    97    H    9  px     Ryd( 2p)     0.00005       2.01657
    98    H    9  py     Ryd( 2p)     0.00088       2.38418
    99    H    9  pz     Ryd( 2p)     0.00009       1.69348

   100    H   10  S      Val( 1S)     0.74707       0.10577
   101    H   10  S      Ryd( 2S)     0.00139       0.34937
   102    H   10  px     Ryd( 2p)     0.00065       2.28650
   103    H   10  py     Ryd( 2p)     0.00025       2.10574
   104    H   10  pz     Ryd( 2p)     0.00009       1.68644

   105    C   11  S      Cor( 1S)     1.99919     -10.56073
   106    C   11  S      Val( 2S)     0.89756      -0.21907
   107    C   11  S      Ryd( 3S)     0.00639       0.59898
   108    C   11  px     Val( 2p)     1.00641      -0.08575
   109    C   11  px     Ryd( 3p)     0.00550       0.84334
   110    C   11  py     Val( 2p)     0.81687      -0.04158
   111    C   11  py     Ryd( 3p)     0.01872       0.74842
   112    C   11  pz     Val( 2p)     0.75513      -0.13994
   113    C   11  pz     Ryd( 3p)     0.00103       0.58877
   114    C   11  dxy    Ryd( 3d)     0.00362       2.30956
   115    C   11  dxz    Ryd( 3d)     0.00070       1.84627
   116    C   11  dyz    Ryd( 3d)     0.00231       1.90771
   117    C   11  dx2y2  Ryd( 3d)     0.00232       2.35068
   118    C   11  dz2    Ryd( 3d)     0.00052       2.12899

   119    C   12  S      Cor( 1S)     1.99919     -10.63426
   120    C   12  S      Val( 2S)     0.79589      -0.23366
   121    C   12  S      Ryd( 3S)     0.00512       0.50413
   122    C   12  px     Val( 2p)     0.79577      -0.02414
   123    C   12  px     Ryd( 3p)     0.01808       0.59320
   124    C   12  py     Val( 2p)     0.87159      -0.10082
   125    C   12  py     Ryd( 3p)     0.00714       0.66252
   126    C   12  pz     Val( 2p)     0.77634      -0.16013
   127    C   12  pz     Ryd( 3p)     0.00130       0.55308
   128    C   12  dxy    Ryd( 3d)     0.00497       2.33264
   129    C   12  dxz    Ryd( 3d)     0.00350       1.92218
   130    C   12  dyz    Ryd( 3d)     0.00072       1.79114
   131    C   12  dx2y2  Ryd( 3d)     0.00158       2.21671
   132    C   12  dz2    Ryd( 3d)     0.00054       2.10949

   133    N   13  S      Cor( 1S)     1.99924     -14.69126
   134    N   13  S      Val( 2S)     1.26226      -0.58898
   135    N   13  S      Ryd( 3S)     0.00229       1.23993
   136    N   13  px     Val( 2p)     1.30087      -0.29517
   137    N   13  px     Ryd( 3p)     0.00115       1.32334
   138    N   13  py     Val( 2p)     1.31582      -0.30117
   139    N   13  py     Ryd( 3p)     0.00144       1.45064
   140    N   13  pz     Val( 2p)     1.67296      -0.31581
   141    N   13  pz     Ryd( 3p)     0.00234       0.95549
   142    N   13  dxy    Ryd( 3d)     0.00071       2.62179
   143    N   13  dxz    Ryd( 3d)     0.00026       2.27062
   144    N   13  dyz    Ryd( 3d)     0.00042       2.27455
   145    N   13  dx2y2  Ryd( 3d)     0.00089       2.70076
   146    N   13  dz2    Ryd( 3d)     0.00058       2.52619

   147    O   14  S      Cor( 1S)     1.99976     -19.44260
   148    O   14  S      Val( 2S)     1.71946      -1.00222
   149    O   14  S      Ryd( 3S)     0.00105       1.58280
   150    O   14  px     Val( 2p)     1.61170      -0.40394
   151    O   14  px     Ryd( 3p)     0.00044       1.07970
   152    O   14  py     Val( 2p)     1.76808      -0.36710
   153    O   14  py     Ryd( 3p)     0.00275       1.19187
   154    O   14  pz     Val( 2p)     1.44571      -0.32217
   155    O   14  pz     Ryd( 3p)     0.00082       1.09591
   156    O   14  dxy    Ryd( 3d)     0.00153       2.98017
   157    O   14  dxz    Ryd( 3d)     0.00192       2.84394
   158    O   14  dyz    Ryd( 3d)     0.00014       2.68799
   159    O   14  dx2y2  Ryd( 3d)     0.00128       3.17057
   160    O   14  dz2    Ryd( 3d)     0.00035       2.88755

   161    O   15  S      Cor( 1S)     1.99977     -19.41352
   162    O   15  S      Val( 2S)     1.70465      -0.98189
   163    O   15  S      Ryd( 3S)     0.00078       1.59432
   164    O   15  px     Val( 2p)     1.89122      -0.36776
   165    O   15  px     Ryd( 3p)     0.00392       1.21481
   166    O   15  py     Val( 2p)     1.63390      -0.38517
   167    O   15  py     Ryd( 3p)     0.00057       1.11005
   168    O   15  pz     Val( 2p)     1.29304      -0.28721
   169    O   15  pz     Ryd( 3p)     0.00034       1.10236
   170    O   15  dxy    Ryd( 3d)     0.00127       3.05563
   171    O   15  dxz    Ryd( 3d)     0.00014       2.70876
   172    O   15  dyz    Ryd( 3d)     0.00175       2.85904
   173    O   15  dx2y2  Ryd( 3d)     0.00122       3.17346
   174    O   15  dz2    Ryd( 3d)     0.00035       2.89782

   175    C   16  S      Cor( 1S)     1.99935     -10.46581
   176    C   16  S      Val( 2S)     1.05230      -0.23045
   177    C   16  S      Ryd( 3S)     0.00088       0.85641
   178    C   16  px     Val( 2p)     1.22187      -0.09832
   179    C   16  px     Ryd( 3p)     0.00364       0.69241
   180    C   16  py     Val( 2p)     0.86093      -0.05354
   181    C   16  py     Ryd( 3p)     0.00188       0.51862
   182    C   16  pz     Val( 2p)     1.22419      -0.09268
   183    C   16  pz     Ryd( 3p)     0.00133       0.58848
   184    C   16  dxy    Ryd( 3d)     0.00034       2.24482
   185    C   16  dxz    Ryd( 3d)     0.00038       2.28837
   186    C   16  dyz    Ryd( 3d)     0.00095       2.27706
   187    C   16  dx2y2  Ryd( 3d)     0.00094       2.41173
   188    C   16  dz2    Ryd( 3d)     0.00063       2.38922

   189    H   17  S      Val( 1S)     0.78639       0.09634
   190    H   17  S      Ryd( 2S)     0.00132       0.37653
   191    H   17  px     Ryd( 2p)     0.00020       1.92668
   192    H   17  py     Ryd( 2p)     0.00019       1.89282
   193    H   17  pz     Ryd( 2p)     0.00059       2.24118

   194    H   18  S      Val( 1S)     0.78639       0.09634
   195    H   18  S      Ryd( 2S)     0.00132       0.37652
   196    H   18  px     Ryd( 2p)     0.00020       1.92671
   197    H   18  py     Ryd( 2p)     0.00019       1.89260
   198    H   18  pz     Ryd( 2p)     0.00059       2.24128

   199    H   19  S      Val( 1S)     0.77468       0.09854
   200    H   19  S      Ryd( 2S)     0.00158       0.37941
   201    H   19  px     Ryd( 2p)     0.00079       2.44863
   202    H   19  py     Ryd( 2p)     0.00007       1.76952
   203    H   19  pz     Ryd( 2p)     0.00012       1.79735

 WARNING:  1 low occupancy (<1.9990e) core orbital  found on  C    1
           1 low occupancy (<1.9990e) core orbital  found on  C    2
           1 low occupancy (<1.9990e) core orbital  found on  C    3
           1 low occupancy (<1.9990e) core orbital  found on  C    4
           1 low occupancy (<1.9990e) core orbital  found on  C    5
           1 low occupancy (<1.9990e) core orbital  found on  C    6


 Summary of Natural Population Analysis:                  
                                                          
                                       Natural Population 
                Natural  -----------------------------------------------
    Atom  No    Charge         Core      Valence    Rydberg      Total
 -----------------------------------------------------------------------
      C    1   -0.18935      1.99898     4.17533    0.01504     6.18935
      C    2   -0.27722      1.99890     4.26366    0.01467     6.27722
      C    3    0.21409      1.99874     3.76872    0.01845     5.78591
      C    4   -0.16049      1.99874     4.14182    0.01993     6.16049
      C    5   -0.18404      1.99895     4.16885    0.01624     6.18404
      C    6   -0.24758      1.99899     4.23334    0.01525     6.24758
      H    7    0.25446      0.00000     0.74316    0.00238     0.74554
      H    8    0.25781      0.00000     0.73986    0.00232     0.74219
      H    9    0.25310      0.00000     0.74348    0.00342     0.74690
      H   10    0.25055      0.00000     0.74707    0.00238     0.74945
      C   11    0.48374      1.99919     3.47597    0.04110     5.51626
      C   12    0.71829      1.99919     3.23958    0.04294     5.28171
      N   13   -0.56121      1.99924     5.55190    0.01007     7.56121
      O   14   -0.55499      1.99976     6.54495    0.01028     8.55499
      O   15   -0.53293      1.99977     6.52281    0.01035     8.53293
      C   16   -0.36961      1.99935     4.35928    0.01098     6.36961
      H   17    0.21131      0.00000     0.78639    0.00230     0.78869
      H   18    0.21131      0.00000     0.78639    0.00230     0.78869
      H   19    0.22276      0.00000     0.77468    0.00256     0.77724
 =======================================================================
   * Total *    0.00000     23.98980    59.76724    0.24296    84.00000

                                 Natural Population      
 --------------------------------------------------------
   Core                      23.98980 ( 99.9575% of  24)
   Valence                   59.76724 ( 99.6121% of  60)
   Natural Minimal Basis     83.75704 ( 99.7108% of  84)
   Natural Rydberg Basis      0.24296 (  0.2892% of  84)
 --------------------------------------------------------

    Atom  No          Natural Electron Configuration
 ----------------------------------------------------------------------------
      C    1      [core]2S( 0.95)2p( 3.23)3p( 0.01)
      C    2      [core]2S( 0.93)2p( 3.33)3p( 0.01)
      C    3      [core]2S( 0.80)2p( 2.97)3p( 0.01)
      C    4      [core]2S( 0.86)2p( 3.28)3p( 0.02)
      C    5      [core]2S( 0.94)2p( 3.23)3p( 0.01)
      C    6      [core]2S( 0.94)2p( 3.29)3p( 0.01)
      H    7            1S( 0.74)
      H    8            1S( 0.74)
      H    9            1S( 0.74)
      H   10            1S( 0.75)
      C   11      [core]2S( 0.90)2p( 2.58)3S( 0.01)3p( 0.03)3d( 0.01)
      C   12      [core]2S( 0.80)2p( 2.44)3S( 0.01)3p( 0.03)3d( 0.01)
      N   13      [core]2S( 1.26)2p( 4.29)
      O   14      [core]2S( 1.72)2p( 4.83)3d( 0.01)
      O   15      [core]2S( 1.70)2p( 4.82)
      C   16      [core]2S( 1.05)2p( 3.31)3p( 0.01)
      H   17            1S( 0.79)
      H   18            1S( 0.79)
      H   19            1S( 0.77)


 NATURAL BOND ORBITAL ANALYSIS:

                       Occupancies       Lewis Structure    Low   High
           Occ.    -------------------  -----------------   occ   occ
  Cycle   Thresh.   Lewis   Non-Lewis     CR  BD  3C  LP    (L)   (NL)   Dev
 =============================================================================
   1(1)    1.90    79.73160   4.26840     12  23   0   7     7      5    0.44
   2(2)    1.90    79.73160   4.26840     12  23   0   7     7      5    0.44
   3(1)    1.80    80.02465   3.97535     12  22   0   8     4      5    0.44
   4(2)    1.80    80.02465   3.97535     12  22   0   8     4      5    0.44
   5(1)    1.70    80.13916   3.86084     12  23   0   7     3      5    0.44
   6(2)    1.70    80.13916   3.86084     12  23   0   7     3      5    0.44
   7(1)    1.60    81.88185   2.11815     12  25   0   5     0      5    0.42
   8(2)    1.60    81.81807   2.18193     12  25   0   5     0      5    0.44
   9(3)    1.60    81.88185   2.11815     12  25   0   5     0      5    0.42
  10(1)    1.50    81.88185   2.11815     12  25   0   5     0      5    0.42
  11(2)    1.50    81.81807   2.18193     12  25   0   5     0      5    0.44
  12(3)    1.50    81.88185   2.11815     12  25   0   5     0      5    0.42
  13(1)    1.60    81.88185   2.11815     12  25   0   5     0      5    0.42
 -----------------------------------------------------------------------------

 Structure accepted: RESONANCE keyword permits strongly delocalized structure

 WARNING:  1 low occupancy (<1.9990e) core orbital  found on  C    1
           1 low occupancy (<1.9990e) core orbital  found on  C    2
           1 low occupancy (<1.9990e) core orbital  found on  C    3
           1 low occupancy (<1.9990e) core orbital  found on  C    4
           1 low occupancy (<1.9990e) core orbital  found on  C    5
           1 low occupancy (<1.9990e) core orbital  found on  C    6

 --------------------------------------------------------
   Core                     23.98981 ( 99.958% of  24)
   Valence Lewis            57.89205 ( 96.487% of  60)
  ==================       ============================
   Total Lewis              81.88185 ( 97.478% of  84)
  -----------------------------------------------------
   Valence non-Lewis         1.94156 (  2.311% of  84)
   Rydberg non-Lewis         0.17659 (  0.210% of  84)
  ==================       ============================
   Total non-Lewis           2.11815 (  2.522% of  84)
 --------------------------------------------------------


       (Occupancy)   Bond orbital/ Coefficients/ Hybrids
 ---------------------------------------------------------------------------------
     1. (1.97032) BD ( 1) C   1 - C   2  
                ( 49.14%)   0.7010* C   1 s( 35.14%)p 1.84( 64.82%)d 0.00(  0.04%)
                                            0.0001  0.5927  0.0095  0.6802 -0.0116
                                            0.4288  0.0395  0.0005  0.0000  0.0133
                                            0.0000  0.0000  0.0106 -0.0118
                ( 50.86%)   0.7132* C   2 s( 37.14%)p 1.69( 62.82%)d 0.00(  0.04%)
                                           -0.0002  0.6094  0.0112 -0.6856 -0.0282
                                           -0.3956  0.0296 -0.0002  0.0000  0.0145
                                            0.0000  0.0000  0.0042 -0.0122
     2. (1.97760) BD ( 1) C   1 - C   6  
                ( 50.16%)   0.7082* C   1 s( 35.70%)p 1.80( 64.27%)d 0.00(  0.04%)
                                            0.0000  0.5974  0.0084 -0.0160 -0.0401
                                           -0.8004 -0.0124 -0.0001  0.0000 -0.0030
                                            0.0000  0.0000 -0.0157 -0.0115
                ( 49.84%)   0.7060* C   6 s( 35.54%)p 1.81( 64.42%)d 0.00(  0.04%)
                                            0.0000  0.5961  0.0095 -0.0353 -0.0403
                                            0.8007  0.0133  0.0000  0.0000  0.0021
                                            0.0000  0.0000 -0.0161 -0.0119
     3. (1.65554) BD ( 2) C   1 - C   6  
                ( 47.76%)   0.6911* C   1 s(  0.00%)p 1.00( 99.94%)d 0.00(  0.06%)
                                            0.0000  0.0000  0.0000 -0.0005  0.0000
                                           -0.0002  0.0000  0.9997 -0.0101  0.0000
                                            0.0132 -0.0202  0.0000  0.0000
                ( 52.24%)   0.7228* C   6 s(  0.00%)p 1.00( 99.95%)d 0.00(  0.05%)
                                            0.0000 -0.0001  0.0000 -0.0005  0.0000
                                            0.0000  0.0000  0.9997 -0.0117  0.0000
                                            0.0138  0.0181  0.0000  0.0000
     4. (1.97767) BD ( 1) C   1 - H   7  
                ( 62.79%)   0.7924* C   1 s( 29.08%)p 2.44( 70.89%)d 0.00(  0.02%)
                                            0.0003 -0.5391  0.0145  0.7317 -0.0087
                                           -0.4165  0.0052  0.0003  0.0000  0.0106
                                            0.0000  0.0000 -0.0060  0.0079
                ( 37.21%)   0.6100* H   7 s( 99.89%)p 0.00(  0.11%)
                                           -0.9995  0.0022 -0.0286  0.0155  0.0000
     5. (1.97209) BD ( 1) C   2 - C   3  
                ( 48.27%)   0.6948* C   2 s( 34.59%)p 1.89( 65.36%)d 0.00(  0.05%)
                                            0.0001  0.5881  0.0117  0.7266  0.0214
                                           -0.3529  0.0243  0.0000  0.0000 -0.0144
                                            0.0000  0.0000  0.0095 -0.0131
                ( 51.73%)   0.7192* C   3 s( 41.51%)p 1.41( 58.46%)d 0.00(  0.03%)
                                           -0.0002  0.6443  0.0002 -0.6043  0.0215
                                            0.4675  0.0204  0.0001  0.0000 -0.0105
                                            0.0000  0.0000  0.0077 -0.0114
     6. (1.66263) BD ( 2) C   2 - C   3  
                ( 52.09%)   0.7217* C   2 s(  0.00%)p 1.00( 99.94%)d 0.00(  0.06%)
                                            0.0000  0.0003  0.0000 -0.0001  0.0000
                                            0.0002  0.0000  0.9997 -0.0031  0.0000
                                            0.0107 -0.0212  0.0000  0.0000
                ( 47.91%)   0.6922* C   3 s(  0.00%)p 1.00( 99.97%)d 0.00(  0.03%)
                                            0.0000 -0.0001  0.0000  0.0001  0.0000
                                            0.0001  0.0000  0.9998  0.0014  0.0000
                                           -0.0183  0.0006  0.0000  0.0000
     7. (1.97738) BD ( 1) C   2 - H   8  
                ( 63.02%)   0.7938* C   2 s( 28.19%)p 2.55( 71.79%)d 0.00(  0.02%)
                                           -0.0002  0.5306 -0.0183 -0.0172 -0.0104
                                            0.8470 -0.0070 -0.0003  0.0000  0.0008
                                            0.0000  0.0000 -0.0116 -0.0087
                ( 36.98%)   0.6081* H   8 s( 99.90%)p 0.00(  0.10%)
                                            0.9995 -0.0018  0.0010 -0.0322  0.0000
     8. (1.95943) BD ( 1) C   3 - C   4  
                ( 50.15%)   0.7081* C   3 s( 33.09%)p 2.02( 66.87%)d 0.00(  0.04%)
                                            0.0001 -0.5752  0.0048  0.0184 -0.0045
                                            0.8174 -0.0111 -0.0002  0.0000  0.0031
                                            0.0000  0.0000  0.0151  0.0134
                ( 49.85%)   0.7061* C   4 s( 31.41%)p 2.18( 68.54%)d 0.00(  0.04%)
                                            0.0000 -0.5604 -0.0060  0.0500 -0.0005
                                           -0.8264 -0.0062  0.0002  0.0000 -0.0018
                                            0.0000  0.0000  0.0155  0.0143
     9. (1.98060) BD ( 1) C   3 - N  13  
                ( 36.98%)   0.6081* C   3 s( 25.23%)p 2.96( 74.66%)d 0.00(  0.11%)
                                           -0.0001  0.5022  0.0115  0.7960  0.0033
                                            0.3354  0.0191 -0.0001  0.0000  0.0117
                                            0.0000  0.0000  0.0257 -0.0175
                ( 63.02%)   0.7939* N  13 s( 38.06%)p 1.63( 61.90%)d 0.00(  0.04%)
                                            0.0002  0.6169  0.0044 -0.7472  0.0039
                                           -0.2464 -0.0079  0.0000  0.0000  0.0058
                                            0.0000  0.0000  0.0136 -0.0138
    10. (1.97248) BD ( 1) C   4 - C   5  
                ( 51.60%)   0.7184* C   4 s( 39.52%)p 1.53( 60.45%)d 0.00(  0.03%)
                                           -0.0001  0.6286  0.0048 -0.6233  0.0105
                                           -0.4639 -0.0268  0.0000  0.0000  0.0105
                                            0.0000  0.0000  0.0084 -0.0113
                ( 48.40%)   0.6957* C   5 s( 35.09%)p 1.85( 64.87%)d 0.00(  0.04%)
                                            0.0000  0.5923  0.0086  0.7112  0.0189
                                            0.3765 -0.0272  0.0002  0.0000  0.0152
                                            0.0000  0.0000  0.0075 -0.0122
    11. (1.66743) BD ( 2) C   4 - C   5  
                ( 54.64%)   0.7392* C   4 s(  0.00%)p 1.00( 99.98%)d 0.00(  0.02%)
                                            0.0000  0.0001  0.0000  0.0000  0.0000
                                            0.0002  0.0000  0.9999  0.0025  0.0000
                                           -0.0131  0.0024  0.0000  0.0000
                ( 45.36%)   0.6735* C   5 s(  0.00%)p 1.00( 99.94%)d 0.00(  0.06%)
                                            0.0000  0.0000  0.0000 -0.0004  0.0000
                                            0.0002  0.0000  0.9997  0.0031  0.0000
                                            0.0120  0.0213  0.0000  0.0000
    12. (1.97309) BD ( 1) C   4 - C  11  
                ( 51.95%)   0.7208* C   4 s( 28.95%)p 2.45( 71.01%)d 0.00(  0.04%)
                                           -0.0001  0.5380 -0.0046  0.7796 -0.0307
                                           -0.3174 -0.0246  0.0000  0.0000 -0.0031
                                            0.0000  0.0000  0.0168 -0.0111
                ( 48.05%)   0.6931* C  11 s( 36.74%)p 1.72( 63.22%)d 0.00(  0.04%)
                                            0.0000  0.6061  0.0079 -0.7769  0.0098
                                            0.1670 -0.0257  0.0002  0.0000 -0.0083
                                            0.0000  0.0000  0.0170 -0.0084
    13. (1.97489) BD ( 1) C   5 - C   6  
                ( 50.62%)   0.7115* C   5 s( 36.54%)p 1.74( 63.42%)d 0.00(  0.04%)
                                            0.0000  0.6044  0.0110 -0.7019 -0.0277
                                            0.3738 -0.0320 -0.0004  0.0000 -0.0148
                                            0.0000  0.0000  0.0058 -0.0115
                ( 49.38%)   0.7027* C   6 s( 35.31%)p 1.83( 64.65%)d 0.00(  0.04%)
                                            0.0000  0.5942  0.0085  0.6894 -0.0095
                                           -0.4117 -0.0405  0.0004  0.0000 -0.0126
                                            0.0000  0.0000  0.0109 -0.0121
    14. (1.97869) BD ( 1) C   5 - H   9  
                ( 62.87%)   0.7929* C   5 s( 28.27%)p 2.54( 71.70%)d 0.00(  0.02%)
                                            0.0003 -0.5315  0.0155 -0.0063  0.0053
                                            0.8467 -0.0096 -0.0002  0.0000  0.0005
                                            0.0000  0.0000  0.0124  0.0080
                ( 37.13%)   0.6094* H   9 s( 99.89%)p 0.00(  0.11%)
                                           -0.9995  0.0033  0.0009 -0.0326  0.0000
    15. (1.97847) BD ( 1) C   6 - H  10  
                ( 62.63%)   0.7914* C   6 s( 29.07%)p 2.44( 70.91%)d 0.00(  0.02%)
                                            0.0003 -0.5390  0.0147  0.7224 -0.0073
                                            0.4326 -0.0042  0.0003  0.0000 -0.0105
                                            0.0000  0.0000 -0.0055  0.0082
                ( 37.37%)   0.6113* H  10 s( 99.90%)p 0.00(  0.10%)
                                           -0.9995  0.0022 -0.0277 -0.0162  0.0000
    16. (1.97845) BD ( 1) C  11 - C  12  
                ( 52.31%)   0.7233* C  11 s( 35.02%)p 1.85( 64.93%)d 0.00(  0.05%)
                                            0.0000  0.5917  0.0087  0.5822  0.0090
                                            0.5564 -0.0275 -0.0003  0.0000  0.0216
                                            0.0000  0.0000 -0.0008 -0.0085
                ( 47.69%)   0.6906* C  12 s( 31.85%)p 2.14( 68.06%)d 0.00(  0.08%)
                                            0.0000  0.5643  0.0126 -0.4880  0.0305
                                           -0.6644 -0.0124  0.0002  0.0000  0.0272
                                            0.0000  0.0000  0.0012 -0.0094
    17. (1.99540) BD ( 1) C  11 - O  15  
                ( 33.16%)   0.5758* C  11 s( 27.87%)p 2.58( 71.91%)d 0.01(  0.22%)
                                            0.0000 -0.5259  0.0461 -0.2378 -0.0252
                                            0.8107  0.0683 -0.0001  0.0000  0.0226
                                            0.0000  0.0000  0.0347  0.0228
                ( 66.84%)   0.8176* O  15 s( 42.98%)p 1.32( 56.93%)d 0.00(  0.09%)
                                            0.0000 -0.6554  0.0166  0.2053  0.0040
                                           -0.7259 -0.0134  0.0002  0.0000  0.0140
                                            0.0000  0.0000  0.0229  0.0124
    18. (1.95662) BD ( 2) C  11 - O  15  
                ( 35.54%)   0.5962* C  11 s(  0.00%)p 1.00( 99.70%)d 0.00(  0.30%)
                                            0.0000  0.0000  0.0000  0.0003  0.0000
                                            0.0002  0.0000  0.9982 -0.0224  0.0000
                                            0.0175 -0.0523  0.0000  0.0000
                ( 64.46%)   0.8029* O  15 s(  0.00%)p 1.00( 99.85%)d 0.00(  0.15%)
                                            0.0000  0.0000  0.0000  0.0003  0.0000
                                            0.0003  0.0000  0.9992  0.0089  0.0000
                                           -0.0105  0.0370  0.0000  0.0000
    19. (1.98251) BD ( 1) C  12 - N  13  
                ( 35.06%)   0.5921* C  12 s( 28.78%)p 2.47( 71.10%)d 0.00(  0.12%)
                                           -0.0001  0.5363  0.0131 -0.3949  0.0105
                                            0.7448  0.0157  0.0001  0.0000 -0.0321
                                            0.0000  0.0000  0.0022 -0.0123
                ( 64.94%)   0.8059* N  13 s( 29.54%)p 2.38( 70.43%)d 0.00(  0.03%)
                                            0.0002  0.5434 -0.0082  0.6312  0.0007
                                           -0.5527 -0.0181 -0.0003  0.0000 -0.0128
                                            0.0000  0.0000  0.0030 -0.0105
    20. (1.99572) BD ( 1) C  12 - O  14  
                ( 34.65%)   0.5887* C  12 s( 38.96%)p 1.56( 60.85%)d 0.00(  0.19%)
                                           -0.0002  0.6230 -0.0384  0.7759  0.0700
                                           -0.0384 -0.0010 -0.0003  0.0000 -0.0107
                                            0.0000  0.0000  0.0374 -0.0209
                ( 65.35%)   0.8084* O  14 s( 37.49%)p 1.66( 62.41%)d 0.00(  0.10%)
                                            0.0000  0.6120 -0.0191 -0.7251 -0.0113
                                            0.3134  0.0071  0.0000  0.0000 -0.0184
                                            0.0000  0.0000  0.0209 -0.0142
    21. (1.98113) BD ( 2) C  12 - O  14  
                ( 30.69%)   0.5540* C  12 s(  0.00%)p 1.00( 99.60%)d 0.00(  0.40%)
                                            0.0000  0.0000  0.0000  0.0003  0.0000
                                            0.0001  0.0000  0.9978 -0.0200  0.0000
                                            0.0601 -0.0196  0.0000  0.0000
                ( 69.31%)   0.8325* O  14 s(  0.00%)p 1.00( 99.85%)d 0.00(  0.15%)
                                            0.0000  0.0001  0.0000  0.0001  0.0000
                                            0.0001  0.0000  0.9992  0.0058  0.0000
                                           -0.0370  0.0101  0.0000  0.0000
    22. (1.99156) BD ( 1) N  13 - C  16  
                ( 64.35%)   0.8022* N  13 s( 32.35%)p 2.09( 67.62%)d 0.00(  0.03%)
                                            0.0000  0.5687  0.0112  0.2072 -0.0098
                                            0.7957 -0.0016  0.0002  0.0000  0.0041
                                            0.0000  0.0000 -0.0125 -0.0115
                ( 35.65%)   0.5971* C  16 s( 22.57%)p 3.42( 77.30%)d 0.01(  0.12%)
                                            0.0002  0.4748  0.0180 -0.2049  0.0048
                                           -0.8544 -0.0322 -0.0002  0.0000  0.0132
                                            0.0000  0.0000 -0.0273 -0.0182
    23. (1.98865) BD ( 1) C  16 - H  17  
                ( 60.74%)   0.7794* C  16 s( 25.69%)p 2.89( 74.27%)d 0.00(  0.04%)
                                            0.0000  0.5068 -0.0053 -0.3348  0.0151
                                            0.3613  0.0115 -0.7069  0.0030 -0.0045
                                            0.0123 -0.0101  0.0012  0.0104
                ( 39.26%)   0.6266* H  17 s( 99.91%)p 0.00(  0.09%)
                                            0.9995 -0.0019  0.0101 -0.0142  0.0251
    24. (1.98864) BD ( 1) C  16 - H  18  
                ( 60.74%)   0.7794* C  16 s( 25.69%)p 2.89( 74.27%)d 0.00(  0.04%)
                                            0.0000  0.5068 -0.0053 -0.3350  0.0151
                                            0.3610  0.0115  0.7070 -0.0030 -0.0045
                                           -0.0123  0.0101  0.0012  0.0104
                ( 39.26%)   0.6266* H  18 s( 99.91%)p 0.00(  0.09%)
                                            0.9995 -0.0019  0.0101 -0.0142 -0.0251
    25. (1.98960) BD ( 1) C  16 - H  19  
                ( 61.16%)   0.7821* C  16 s( 26.07%)p 2.83( 73.90%)d 0.00(  0.04%)
                                            0.0000  0.5105  0.0020  0.8559 -0.0147
                                            0.0776  0.0141  0.0001  0.0000 -0.0004
                                            0.0000  0.0000  0.0168 -0.0099
                ( 38.84%)   0.6232* H  19 s( 99.90%)p 0.00(  0.10%)
                                            0.9995 -0.0011 -0.0304 -0.0063  0.0000
    26. (1.99899) CR ( 1) C   1           s(100.00%)p 0.00(  0.00%)
                                            1.0000  0.0001  0.0000 -0.0003  0.0000
                                            0.0001  0.0000  0.0000  0.0000  0.0000
                                            0.0000  0.0000  0.0000  0.0000
    27. (1.99890) CR ( 1) C   2           s(100.00%)p 0.00(  0.00%)
                                            1.0000  0.0002  0.0000 -0.0002  0.0000
                                            0.0001  0.0000  0.0000  0.0000  0.0000
                                            0.0000  0.0000  0.0000  0.0000
    28. (1.99874) CR ( 1) C   3           s(100.00%)
                                            1.0000  0.0002  0.0000  0.0000  0.0000
                                            0.0001  0.0000  0.0000  0.0000  0.0000
                                            0.0000  0.0000  0.0000  0.0000
    29. (1.99874) CR ( 1) C   4           s(100.00%)
                                            1.0000  0.0001  0.0000  0.0000  0.0000
                                           -0.0001  0.0000  0.0000  0.0000  0.0000
                                            0.0000  0.0000  0.0000  0.0000
    30. (1.99895) CR ( 1) C   5           s(100.00%)p 0.00(  0.00%)
                                            1.0000  0.0001  0.0000  0.0000  0.0000
                                           -0.0002  0.0000  0.0000  0.0000  0.0000
                                            0.0000  0.0000  0.0000  0.0000
    31. (1.99899) CR ( 1) C   6           s(100.00%)p 0.00(  0.00%)
                                            1.0000  0.0001  0.0000 -0.0003  0.0000
                                           -0.0001  0.0000  0.0000  0.0000  0.0000
                                            0.0000  0.0000  0.0000  0.0000
    32. (1.99919) CR ( 1) C  11           s(100.00%)
                                            1.0000  0.0000  0.0000  0.0000  0.0000
                                            0.0000  0.0000  0.0000  0.0000  0.0000
                                            0.0000  0.0000  0.0000  0.0000
    33. (1.99920) CR ( 1) C  12           s(100.00%)p 0.00(  0.00%)
                                            1.0000  0.0001  0.0000  0.0001  0.0000
                                            0.0001  0.0000  0.0000  0.0000  0.0000
                                            0.0000  0.0000  0.0000  0.0000
    34. (1.99924) CR ( 1) N  13           s(100.00%)p 0.00(  0.00%)
                                            1.0000 -0.0002  0.0000  0.0000  0.0000
                                            0.0001  0.0000  0.0000  0.0000  0.0000
                                            0.0000  0.0000  0.0000  0.0000
    35. (1.99975) CR ( 1) O  14           s(100.00%)p 0.00(  0.00%)
                                            1.0000 -0.0004  0.0000 -0.0003  0.0000
                                            0.0002  0.0000  0.0000  0.0000  0.0000
                                            0.0000  0.0000  0.0000  0.0000
    36. (1.99977) CR ( 1) O  15           s(100.00%)p 0.00(  0.00%)
                                            1.0000 -0.0003  0.0000 -0.0001  0.0000
                                            0.0003  0.0000  0.0000  0.0000  0.0000
                                            0.0000  0.0000  0.0000  0.0000
    37. (1.99935) CR ( 1) C  16           s(100.00%)p 0.00(  0.00%)
                                            1.0000 -0.0001  0.0000  0.0001  0.0000
                                            0.0002  0.0000  0.0000  0.0000  0.0000
                                            0.0000  0.0000  0.0000  0.0000
    38. (1.67310) LP ( 1) N  13           s(  0.00%)p 1.00(100.00%)d 0.00(  0.00%)
                                            0.0000  0.0001  0.0000  0.0002  0.0000
                                           -0.0003  0.0000  1.0000 -0.0068  0.0000
                                           -0.0008 -0.0061  0.0000  0.0000
    39. (1.97671) LP ( 1) O  14           s( 58.60%)p 0.71( 41.39%)d 0.00(  0.01%)
                                            0.0005  0.7654  0.0108  0.6433 -0.0025
                                           -0.0048 -0.0020 -0.0001  0.0000  0.0010
                                            0.0000  0.0000 -0.0100  0.0067
    40. (1.81998) LP ( 2) O  14           s(  3.93%)p24.41( 95.98%)d 0.02(  0.08%)
                                            0.0002  0.1983 -0.0022 -0.2428 -0.0018
                                           -0.9491  0.0068  0.0001  0.0000  0.0238
                                            0.0000  0.0000  0.0163 -0.0004
    41. (1.98087) LP ( 1) O  15           s( 57.03%)p 0.75( 42.95%)d 0.00(  0.02%)
                                            0.0005  0.7551  0.0096  0.1860  0.0004
                                           -0.6284  0.0006  0.0001  0.0000  0.0054
                                            0.0000  0.0000  0.0080  0.0083
    42. (1.91483) LP ( 2) O  15           s(  0.00%)p 1.00( 99.93%)d 0.00(  0.07%)
                                            0.0000  0.0060  0.0014 -0.9604  0.0110
                                           -0.2771  0.0035  0.0004  0.0000 -0.0216
                                            0.0000  0.0000  0.0136 -0.0002
    43. (0.00516) RY*( 1) C   1           s(  0.09%)p99.99( 92.97%)d74.87(  6.94%)
                                            0.0000  0.0275  0.0130  0.0301  0.8128
                                           -0.0140 -0.5177  0.0000  0.0003 -0.2204
                                            0.0000 -0.0001  0.1401 -0.0337
    44. (0.00283) RY*( 2) C   1           s(  0.00%)p 1.00( 98.92%)d 0.01(  1.08%)
                                            0.0000  0.0026  0.0013 -0.0174  0.5272
                                           -0.0354  0.8424  0.0000  0.0011 -0.0776
                                            0.0000 -0.0002 -0.0692 -0.0050
[...]
 14,-0.00001721,0.00008623,-0.07019618,0.00017582,-0.00028998,0.1682061
 3,-0.05952437,0.03227626,-0.00003749,0.06163537,0.02513051,0.00000743,
 -0.18183954,0.04678879,-0.00006694,0.83159222,0.02288731,-0.01805127,0
 .00001466,-0.02120132,-0.04523948,0.00002029,0.10562792,-0.26664282,0.
 00014080,-0.01943387,0.62248171,-0.00003325,0.00001893,-0.00745230,0.0
 0003154,0.00003949,0.01196274,-0.00009914,0.00011664,-0.07301551,0.000
 30658,-0.00025113,0.12669809,0.07576832,-0.02704356,0.00004120,-0.0552
 4618,-0.03491896,-0.00000254,-0.02546728,0.08574623,-0.00005684,-0.375
 97695,-0.01154494,-0.00012702,0.72178886,0.03544975,-0.05994198,0.0000
 4936,-0.03562949,-0.02233437,-0.00000590,0.02950946,0.04875016,-0.0000
 1014,0.03649099,-0.12148591,0.00004524,-0.04300058,0.74244159,0.000009
 41,0.00002319,0.00786991,-0.00000216,-0.00000565,-0.00561500,-0.000027
 47,0.00001282,0.00520213,-0.00015154,0.00002565,-0.06131856,0.00025708
 ,-0.00031992,0.14901290,-0.19737780,0.14015551,-0.00012337,-0.02834440
 ,0.02383072,-0.00002726,0.00632930,0.00377847,0.00000355,-0.02406576,-
 0.02954349,0.00000036,-0.17870660,-0.13052117,0.00002352,0.76614806,0.
 05666715,-0.28604429,0.00013366,0.08340861,0.04727535,0.00001458,-0.00
 134888,-0.08989802,0.00004129,-0.09064219,0.02260953,-0.00004240,-0.05
 003727,-0.30648533,0.00010368,0.00685214,0.67727490,-0.00008066,0.0001
 6792,-0.06955276,-0.00005774,-0.00000986,0.00917003,0.00000633,0.00004
 354,-0.00774776,0.00003102,-0.00001744,0.01230267,-0.00001705,0.000071
 92,-0.06877619,0.00024788,-0.00027649,0.13765125,-0.12412667,-0.121248
 22,0.00002952,-0.00876111,-0.02665153,0.00000768,-0.00527285,0.0003726
 4,-0.00000519,-0.00084068,0.00075663,-0.00000029,-0.00092510,0.0035111
 2,-0.00000505,0.01155212,0.01571616,-0.00000588,0.12644516,-0.12121478
 ,-0.28608138,0.00007397,0.00277488,0.00399135,0.00000203,0.00118896,0.
 00157614,0.00000340,0.00085832,0.00046241,-0.00000043,0.00336624,-0.00
 302260,0.00000650,-0.01435360,-0.01529729,0.00000512,0.12863901,0.2977
 1366,0.00002986,0.00007368,-0.04389869,-0.00000757,-0.00000998,0.00579
 682,-0.00000559,0.00000331,0.00732372,-0.00000015,-0.00000060,-0.00106
 060,-0.00000528,0.00000639,0.00713386,0.00000942,0.00001780,0.00606572
 ,-0.00002605,-0.00008475,0.02854848,-0.00912385,0.02636865,-0.00001826
 ,-0.13602772,0.12962307,-0.00010487,0.01227779,-0.01292223,0.00000978,
 -0.00100155,-0.00236335,-0.00000190,-0.00092664,-0.00080726,0.00000031
 ,-0.00460014,-0.00143364,-0.00000390,0.00137353,-0.00011412,0.00000232
 ,0.13899861,-0.00323698,0.00600062,-0.00000271,0.13026847,-0.27366468,
 0.00017070,0.01585841,-0.01578032,0.00001665,-0.00376350,-0.00241598,0
 .00000293,-0.00098752,0.00009906,-0.00000080,-0.00104585,0.00153336,0.
 00000231,0.00024616,0.00040119,-0.00000225,-0.13892241,0.28369089,-0.0
 0000351,0.00000927,0.00319443,-0.00010489,0.00017052,-0.03702002,-0.00
 000473,0.00000452,0.00423598,-0.00000130,0.00000367,0.00666551,0.00000
 047,-0.00000068,-0.00063522,-0.00000415,0.00000215,0.00701944,0.000002
 16,-0.00000244,-0.00430617,0.00011511,-0.00018491,0.02565150,-0.000844
 90,-0.00306379,-0.00000169,-0.00046050,-0.00056149,0.00000043,-0.00410
 243,-0.00200413,-0.00000398,-0.00894438,0.02632999,-0.00001836,-0.1367
 4976,0.12985527,-0.00010344,0.01221655,-0.01336981,0.00000930,0.000425
 72,-0.00067115,0.00000068,0.00005806,0.00007367,0.00000042,0.13719981,
 -0.00340349,-0.00299943,0.00000388,-0.00066582,0.00013638,-0.00000077,
 -0.00152716,0.00114683,0.00000280,-0.00101275,0.00600164,-0.00000164,0
 .12800717,-0.27174135,0.00016689,0.01609629,-0.01383289,0.00001628,0.0
 0074012,-0.00076354,0.00000051,0.00008749,-0.00003140,-0.00000049,-0.1
 3918996,0.28079956,-0.00000137,0.00000412,0.00726907,0.00000054,-0.000
 00080,-0.00079105,-0.00000431,0.00000237,0.00799797,-0.00000482,0.0000
 1006,0.00383503,-0.00010205,0.00016653,-0.04205341,-0.00000577,0.00000
 502,0.00602492,-0.00000007,-0.00000005,-0.00038600,0.00000040,-0.00000
 047,-0.00106915,0.00011409,-0.00018328,0.02721081,-0.00994156,-0.00394
 785,-0.00000334,0.00034353,0.00258315,-0.00000389,0.00070873,0.0003649
 2,0.00000034,0.00042536,-0.00273722,-0.00000110,-0.00767300,0.00267804
 ,-0.00000596,-0.34994273,-0.01458031,-0.00011721,0.00070217,-0.0001802
 8,0.00000211,-0.00052958,-0.00020377,-0.00000021,0.00057825,0.00017077
 ,0.00000189,0.36536711,0.02686857,0.00506090,0.00000992,0.00214360,-0.
 00393958,0.00000644,-0.00008100,-0.00141140,0.00000037,-0.00213869,-0.
 00489302,0.00000510,-0.02798261,0.00317967,-0.00001125,-0.01456406,-0.
 05824479,0.00000554,-0.00050048,0.00099108,-0.00000300,0.00119495,0.00
 016663,0.00000054,0.00073557,0.00121205,-0.00000253,0.01542024,0.05698
 493,-0.00001916,-0.00000247,0.00331288,-0.00000378,0.00000659,0.006896
 28,0.00000056,0.00000065,-0.00062652,-0.00000139,0.00000486,0.00676992
 ,0.00000996,0.00000096,0.00336011,-0.00011727,0.00000544,-0.03684648,0
 .00000233,-0.00000280,-0.00441603,-0.00000095,-0.00000005,0.00025276,0
 .00000160,-0.00000269,-0.00432267,0.00012746,-0.00001007,0.02584877,0.
 00693178,-0.00077931,0.00000363,-0.00662249,0.00032193,-0.00000537,0.0
 4349238,0.00879489,0.00001268,-0.17334015,-0.06838093,-0.00001021,-0.0
 2545038,-0.03056544,0.00000450,-0.00633670,0.01243409,-0.00001242,0.00
 006737,-0.00006400,0.00000043,0.00054538,0.00157735,-0.00000066,0.0013
 0960,-0.00040256,0.00000285,0.00011363,-0.00076611,0.00000016,0.457681
 50,0.00929489,-0.00345043,0.00000506,0.00198901,-0.00450245,0.00000579
 ,0.00714886,-0.04929332,0.00002654,-0.02731753,-0.14364765,0.00002379,
 -0.02646232,0.00370597,-0.00001236,0.00343430,0.01729883,-0.00000384,0
 .00016280,0.00013389,-0.00000043,-0.00087609,-0.00012082,-0.00000017,0
 .00148540,-0.00107781,-0.00000119,0.00118739,0.00136951,0.00000009,-0.
 05190178,1.10703580,-0.00000115,0.00000078,-0.00103439,-0.00000626,0.0
 0000528,0.00557265,0.00001521,0.00002851,0.00073287,-0.00003148,0.0000
 0459,-0.07127971,0.00000185,-0.00001440,0.00044229,-0.00000732,0.00000
 092,0.00766088,0.00000029,-0.00000050,-0.00081808,0.00000064,0.0000008
 6,0.00014422,0.00000179,-0.00000206,-0.00479611,-0.00000079,-0.0000005
 6,0.00078637,0.00013900,-0.00044133,0.18358903,-0.00313214,-0.00051185
 ,-0.00000145,0.00051392,0.00614271,-0.00000302,-0.03885651,-0.04919953
 ,0.00000811,-0.02621791,-0.00392443,-0.00001939,-0.00094398,-0.0006585
 7,-0.00000057,0.00072304,-0.00087761,0.00000166,-0.00018200,0.00016024
 ,-0.00000019,-0.00001903,0.00001504,0.00000003,0.00009477,-0.00023750,
 -0.00000020,0.00022071,0.00006736,0.00000010,-0.13562569,0.00023072,-0
 .00001587,0.98117255,-0.00540926,0.00087416,-0.00000168,0.01368538,0.0
 0792048,0.00000148,-0.08091147,-0.01562156,-0.00002745,-0.01934225,-0.
 00735767,0.00000592,-0.00017799,-0.00483256,0.00000237,0.00353491,-0.0
 0279068,0.00000187,0.00075501,0.00027570,0.00000022,-0.00051348,-0.000
 75204,0.,0.00059311,0.00001024,0.00000062,-0.00023344,-0.00062245,0.00
 000026,0.04288098,-0.08011606,0.00001170,0.24649078,0.67468906,0.00000
 080,0.00000021,0.00155919,-0.00000607,-0.00000134,0.00039761,0.0000236
 8,-0.00001321,-0.00344266,-0.00001135,0.00001343,0.02309418,-0.0000008
 6,0.00000222,0.00099127,-0.00000052,0.00000001,-0.00213214,-0.00000041
 ,-0.00000004,0.00005490,0.00000028,0.00000024,-0.00019659,-0.00000051,
 0.00000029,0.00076775,0.00000024,0.00000026,-0.00010050,-0.00003666,-0
 .00000738,-0.09692247,0.00023175,-0.00012307,0.17255642,0.00419170,0.0
 0195529,-0.00000194,-0.02203956,-0.01495422,-0.00000404,-0.27309062,-0
 .02138656,-0.00007717,-0.05156263,0.02408026,-0.00003453,0.00729120,0.
 00237661,0.00000072,-0.00727797,-0.00208549,-0.00000175,-0.00033457,-0
 .00020352,0.00000001,0.00042172,0.00130820,0.00000085,-0.00095597,0.00
 026962,-0.00000069,-0.00002159,-0.00004964,0.00000027,-0.00699109,0.01
 639818,-0.00001474,-0.12969145,0.00846390,-0.00003495,0.72355801,0.010
 87981,-0.00947138,0.00001198,-0.05078862,-0.00607777,-0.00001351,0.007
 63063,-0.12768417,0.00004057,0.04462668,0.02252874,0.00001035,-0.00654
 095,-0.01108156,0.00000533,-0.00497789,0.01002075,-0.00000743,-0.00178
 807,-0.00009286,-0.00000079,0.00134913,0.00168240,-0.00000173,0.001293
 02,0.00023797,0.00000060,0.00008159,0.00046727,-0.00000057,-0.01353471
 ,-0.04332882,0.00001849,0.02598121,-0.28377517,0.00011418,-0.06585508,
 0.72885032,-0.00000673,0.00000871,0.00621283,0.00001400,0.00000103,0.0
 0728795,-0.00009052,0.00002729,-0.05111397,-0.00004640,0.00000252,0.00
 671333,0.00000492,0.00000904,0.00433423,-0.00000024,-0.00000655,-0.000
 43941,0.00000076,-0.00000011,-0.00015211,0.00000084,-0.00000197,-0.003
 20162,-0.00000110,0.00000007,0.00016114,0.00000025,-0.00000064,-0.0007
 3605,-0.00000056,0.00003253,0.01042436,-0.00004175,0.00010809,-0.05471
 633,0.00027776,-0.00031311,0.10694214,0.00262183,-0.00083408,0.0000016
 1,-0.00510752,-0.00300034,-0.00000051,0.02197857,0.00414431,0.00000432
 ,-0.01112009,0.01009703,-0.00000813,-0.00042451,-0.00469175,0.00000197
 ,-0.00274790,0.00193684,-0.00000227,-0.00026840,-0.00022117,0.,0.00013
 257,0.00000619,0.,-0.00010500,0.00028736,-0.00000012,-0.00033293,-0.00
 036489,0.00000013,-0.03952257,-0.02924297,-0.00001235,-0.66246078,-0.2
 5164728,-0.00014340,-0.02415735,-0.07327478,0.00001522,0.71812959,0.00
 286703,-0.00133791,0.00000158,-0.00689891,-0.00202807,-0.00000158,0.02
 274126,-0.00544766,0.00001414,0.00421859,0.00421457,-0.00000164,-0.001
 54079,-0.00020508,-0.00000005,-0.00147748,0.00237166,-0.00000165,-0.00
 040269,-0.00011216,-0.00000013,0.00021741,0.00028514,0.00000002,-0.000
 21844,0.00005092,-0.00000018,-0.00002150,0.00013898,-0.00000018,-0.003
 60941,0.01026883,0.00000213,-0.27106123,-0.22672943,-0.00004234,-0.077
 22642,-0.06181243,0.00000306,0.33833700,0.26971159,-0.00000005,-0.0000
 0005,-0.00055344,0.00000090,-0.00000012,0.00013712,-0.00000391,0.00000
 681,0.00624716,-0.00000547,0.00000057,-0.00323601,0.00000026,-0.000001
 51,0.00068259,-0.00000061,-0.00000013,0.00036499,0.00000007,-0.0000000
 5,-0.00001436,-0.00000011,-0.00000004,0.00016914,0.00000010,0.00000003
 ,-0.00013406,-0.00000007,-0.00000030,-0.00015722,-0.00002372,-0.000008
 37,0.01922586,-0.00013403,-0.00003460,-0.06319208,0.00001763,0.0000052
 1,0.01733334,0.00014224,0.00003746,0.03081864,-0.00082277,-0.00029378,
 -0.00000025,0.00263653,-0.00067012,0.00000199,-0.01249701,-0.00571044,
 -0.00000350,0.02451143,-0.02737278,0.00001488,0.00238352,0.00324471,-0
 .00000001,0.00137366,-0.00059019,0.00000131,0.00003138,-0.00002045,-0.
 00000005,-0.00029947,-0.00053407,0.00000025,0.00054199,0.00090312,-0.0
 0000041,-0.00004219,0.00006351,-0.00000007,-0.11554717,0.09534075,-0.0
 0006677,0.00764086,0.03427705,-0.00002113,-0.00701253,0.01166908,-0.00
 000808,0.00416823,-0.00056326,0.00000359,0.09135093,-0.00286601,0.0011
 1136,-0.00000167,0.00011365,-0.00153803,0.00000031,-0.01618644,0.00464
 190,-0.00000738,-0.02483006,-0.06904544,0.00002955,0.01502568,0.003116
 76,0.00000397,-0.00062033,-0.00754697,0.00000325,-0.00019347,-0.000111
 54,0.00000006,-0.00015229,-0.00075696,0.00000022,-0.00098083,0.0008640
 7,-0.00000054,-0.00054560,-0.00047563,0.00000003,0.11043299,-0.8103892
 4,0.00038381,0.01278283,-0.03807389,0.00003241,0.01364557,0.00084681,0
 .00000450,0.00875582,0.00693969,-0.00000128,-0.11221717,0.91103469,0.0
 0000087,-0.00000049,0.00016126,0.00000175,-0.00000020,-0.00119827,0.00
 000075,-0.00000351,0.00284304,0.00001468,0.00002907,0.01857650,-0.0000
 0538,-0.00000073,-0.00141627,0.00000121,0.00000270,-0.00096873,0.00000
 004,0.00000012,0.00015258,0.,0.,-0.00019241,0.00000051,0.00000035,0.00
 058615,0.00000023,0.00000024,-0.00000167,-0.00007388,0.00037707,-0.059
 56873,-0.00001173,0.00004165,0.02080334,-0.00000896,0.00000410,-0.0008
 1050,-0.00000050,-0.00000505,-0.00366651,0.00007856,-0.00044643,0.0252
 4276,-0.00082078,0.00091166,-0.00000088,0.00403557,0.00123203,0.000001
 04,-0.02901381,0.02198639,-0.00002032,0.00020389,-0.00376275,0.0000017
 3,-0.00072321,0.00161175,-0.00000153,0.00104234,-0.00022305,0.00000044
 ,0.00014715,0.00004865,0.00000007,-0.00014518,-0.00009899,-0.00000002,
 -0.00018839,-0.00014127,0.00000009,0.00002128,0.00002382,0.00000001,-0
 .00244115,-0.00132569,-0.00000280,0.01935840,0.01882075,-0.00000066,-0
 .17898827,0.06937853,-0.00007928,-0.00891471,-0.00605993,0.00000006,0.
 00240989,-0.00286646,0.00000257,0.55898776,0.00211203,-0.00090330,0.00
 000160,-0.00466071,0.00018840,-0.00000203,0.00448063,0.01504452,-0.000
 00645,-0.00402784,0.00073174,-0.00000175,-0.00155981,0.00006631,-0.000
 00031,-0.00116133,0.00172264,-0.00000118,-0.00022030,-0.00010835,-0.00
 000008,-0.00056958,-0.00033753,-0.00000042,-0.00047732,0.00001906,-0.0
 0000034,-0.00006477,-0.00001137,-0.00000009,-0.00558457,-0.00396838,0.
 00000253,0.02431924,-0.03045630,0.00002349,0.07504929,-0.18689052,0.00
 008777,0.00345531,0.00614136,-0.00000281,0.00162097,0.00069765,0.00000
 003,0.06104572,0.57475195,-0.00000172,0.00000098,0.00040044,0.00000425
 ,0.00000042,-0.00027607,-0.00001176,0.00000012,-0.00213297,0.00000096,
 -0.00000140,0.00067641,0.00000056,0.00000117,0.00079262,0.00000087,-0.
 00000109,0.00030106,0.00000019,0.00000005,-0.00005829,0.00000049,-0.00
 000029,-0.00057685,0.00000028,-0.00000020,-0.00027755,0.00000008,-0.00
 000004,-0.00008015,-0.00000089,0.00000446,0.00635034,-0.00000442,0.000
 01913,-0.00026013,-0.00008115,0.00008601,-0.06313544,-0.00000252,-0.00
 000664,-0.00268234,0.00000050,-0.00000199,-0.00066635,-0.00003502,0.00
 003024,0.58563235,-0.00074472,0.00024021,0.00034906,0.00072211,-0.0002
 9197,0.00003399,0.00268296,-0.00001615,-0.00058392,-0.00135478,0.00042
 217,0.00014277,0.00098048,0.00037153,0.00007885,0.00002090,-0.00090158
 ,0.00004648,0.00000326,0.00000717,-0.00002822,-0.00060753,-0.00024477,
 -0.00063002,0.00001681,0.00001681,-0.00006159,0.00000658,-0.00002909,-
 0.00004856,0.00101787,0.00042155,0.00116821,-0.00492636,-0.00347100,-0
 .00100905,-0.00264104,0.02526580,-0.02186454,0.00258778,0.00053738,-0.
 00049246,-0.00048706,0.00026388,-0.00012188,-0.04978672,-0.01887455,0.
 02445612,0.05112531,-0.00023298,0.00003345,0.00013042,0.00069032,0.000
 37403,-0.00004161,-0.00285486,-0.00013983,-0.00034098,0.00064598,-0.00
 039860,-0.00000360,-0.00014321,0.00013577,-0.00001537,0.00031081,-0.00
 003382,-0.00000587,0.00003916,0.00002185,-0.00000392,-0.00006588,-0.00
 014022,-0.00013190,0.00002543,-0.00002474,0.00002963,0.00001399,0.0000
 0851,-0.00002793,-0.00077293,0.00014484,-0.00075412,0.00415883,0.00325
 622,0.00207192,0.00478471,-0.02338805,0.01690830,-0.00133666,-0.000980
 07,0.00002266,0.00059890,-0.00083753,0.00004770,-0.01569574,-0.1299948
 3,0.12366988,0.00786544,0.14665259,0.00020253,-0.00019736,-0.00013961,
 -0.00015912,0.00035486,-0.00031448,0.00049161,0.00060929,0.00022636,-0
 .00018132,0.00002553,-0.00011656,-0.00003514,-0.00008655,-0.00000409,-
 0.00007238,0.00009334,-0.00004131,-0.00000109,-0.00000113,0.00001129,-
 0.00031192,-0.00022039,0.00001683,-0.00001369,0.00000118,0.00000908,0.
 00001028,-0.00001636,0.00003096,-0.00012988,-0.00020765,-0.00030347,0.
 00006255,-0.00196750,-0.00023970,-0.00366893,-0.00055845,0.00835475,0.
 00030295,0.00031022,-0.00012006,0.00003290,0.00003551,0.00007136,0.021
 63819,0.12709046,-0.23855435,-0.02131302,-0.13739409,0.24638325,-0.000
 74440,0.00023993,-0.00034982,0.00071997,-0.00029258,-0.00003296,0.0026
 8267,-0.00001566,0.00058580,-0.00135461,0.00042202,-0.00014412,0.00098
 055,0.00037137,-0.00007839,0.00002088,-0.00090164,-0.00004554,0.000003
 25,0.00000720,0.00002822,-0.00061094,-0.00024482,0.00063009,0.00001678
 ,0.00001687,0.00006156,0.00000655,-0.00002903,0.00004858,0.00101905,0.
 00042049,-0.00116757,-0.00492838,-0.00347070,0.00100849,-0.00265570,0.
 02528907,0.02183045,0.00258787,0.00053739,0.00049406,-0.00048724,0.000
 26405,0.00012119,-0.04975768,-0.01882477,-0.02432448,0.00032138,0.0014
 5867,0.00334508,0.05110293,-0.00023309,0.00003360,-0.00013081,0.000689
 79,0.00037350,0.00004141,-0.00285560,-0.00013977,0.00033956,0.00064594
 ,-0.00039857,0.00000437,-0.00014313,0.00013590,0.00001505,0.00031081,-
 0.00003394,0.00000610,0.00003916,0.00002185,0.00000395,-0.00006684,-0.
 00014032,0.00013210,0.00002546,-0.00002476,-0.00002957,0.00001395,0.00
 000856,0.00002797,-0.00077369,0.00014562,0.00075286,0.00416039,0.00325
 541,-0.00207200,0.00479641,-0.02340542,-0.01687156,-0.00133642,-0.0009
 8037,-0.00002296,0.00059901,-0.00083766,-0.00004633,-0.01564372,-0.130
 27154,-0.12380008,0.00144632,0.01150990,0.01457264,0.00780829,0.146956
 10,-0.00020272,0.00019740,-0.00014006,0.00015897,-0.00035595,-0.000314
 31,-0.00048694,-0.00060886,0.00022692,0.00017989,-0.00002488,-0.000116
 51,0.00003593,0.00008666,-0.00000424,0.00007211,-0.00009396,-0.0000411
 9,0.00000104,0.00000112,0.00001132,0.00031160,0.00022042,0.00001714,0.
 00001366,-0.00000113,0.00000917,-0.00001032,0.00001637,0.00003094,0.00
 013156,0.00020751,-0.00030495,-0.00006963,0.00196191,-0.00023890,0.003
 65586,0.00060886,0.00838722,-0.00030009,-0.00030862,-0.00011962,-0.000
 03393,-0.00003432,0.00007148,-0.02150870,-0.12722380,-0.23830687,-0.00
 333571,-0.01460384,-0.01764689,0.02118945,0.13750985,0.24610741,-0.000
 02464,-0.00013649,0.00000003,0.00015390,0.00030753,-0.00000009,0.00055
 541,0.00385677,-0.00000115,-0.00122487,-0.00035826,-0.00000042,0.00002
 067,0.00040364,-0.00000026,-0.00002685,-0.00002334,0.00000001,-0.00003
 973,-0.00000757,-0.00000002,0.00008397,-0.00007081,0.00000011,-0.00010
 701,-0.00001512,-0.00000003,-0.00001032,-0.00001202,0.,-0.00030116,-0.
 00038793,0.00000011,-0.00274000,-0.00432499,0.00000032,-0.02804230,-0.
 00668445,-0.00000500,0.00295532,-0.00037598,0.00000151,0.00014699,0.00
 017415,-0.00000001,-0.26542636,-0.11605765,-0.00000231,0.00106275,0.00
 051001,-0.00019958,0.00107708,0.00051695,0.00019798,0.29188716,0.00009
 716,0.00014006,0.00000002,-0.00027795,-0.00054027,0.00000017,0.0021090
 1,-0.00431437,0.00000261,0.00082663,0.00054610,0.00000031,-0.00006168,
 -0.00050045,0.00000026,-0.00003878,0.00010100,-0.00000008,0.00002678,0
 .00000059,0.00000002,-0.00003354,0.00028097,-0.00000029,0.00012000,0.0
 0001722,0.00000001,0.00000069,0.00001015,0.,0.00069320,-0.00020831,0.0
 0000050,0.00196138,0.00084655,0.00000070,0.02863289,0.01237390,0.00000
 103,-0.00106950,-0.00048954,-0.00000051,-0.00034484,0.00035997,-0.0000
 0031,-0.12924171,-0.11642150,-0.00000074,-0.01302915,-0.00619946,-0.00
 244354,-0.01305613,-0.00620809,0.00244526,0.12268554,0.12020546,0.0000
 0003,-0.00000011,0.00004831,0.00000001,0.00000035,-0.00000751,-0.00000
 116,0.00000369,0.00016215,-0.00000091,-0.00000024,0.00030139,-0.000000
 07,0.00000033,0.00000109,-0.00000002,0.00000004,-0.00001499,-0.0000000
 4,0.,0.00001165,0.00000011,-0.00000022,-0.00016893,-0.00000009,-0.0000
 0003,-0.00004110,0.,0.,-0.00000170,-0.00000054,-0.00000012,0.00009903,
 -0.00000195,-0.00000090,0.00121684,-0.00002423,-0.00001010,-0.00184586
 ,0.00000145,-0.00000055,-0.00110316,0.00000021,0.,-0.00001902,0.000005
 03,0.00000316,-0.04714586,0.02321349,0.01044271,0.00237662,-0.02320010
 ,-0.01043255,0.00237195,0.00000878,-0.00000543,0.04375909\\-0.00003481
 ,0.00003041,0.,0.00003839,0.00005086,0.00000021,0.00000564,-0.00009146
 ,0.00000381,-0.00002928,0.00000180,0.00000064,0.00005090,0.00002994,-0
 .00000454,0.00000182,-0.00008874,0.00000143,0.00002501,-0.00002213,-0.
 00000009,0.00000335,-0.00001050,-0.00000033,-0.00001823,-0.00002034,0.
 00000075,0.00000012,-0.00000665,0.00000046,-0.00003397,0.00002511,-0.0
 0000311,-0.00006855,-0.00003809,0.00000202,-0.00000865,0.00005126,-0.0
 0000214,0.00004453,0.00005237,0.00000071,0.00000298,-0.00001004,0.0000
 0153,-0.00000698,0.00000504,-0.00000157,0.00001320,0.00001107,-0.00000
 091,0.00001376,0.00001055,0.00000161,0.00000075,0.00001954,-0.00000049
 \\\@


 A DANDELION FROM A LOVER MEANS MORE THAN AN ORCHID FROM A FRIEND.
 Job cpu time:       0 days  0 hours 22 minutes 37.9 seconds.
 File lengths (MBytes):  RWF=    125 Int=      0 D2E=      0 Chk=     10 Scr=      1
 Normal termination of Gaussian 09 at Sun Nov  1 22:12:50 2020.
