 Entering Gaussian System, Link 0=g09
 Input=MeNO2_isatin_TS4_freq.com
 Output=MeNO2_isatin_TS4_freq.log
 Initial command:
 /apps/applications/gaussian/G09.D01/2/default/g09/l1.exe "/nobackup/chmbnn/Gau-30820.inp" -scrdir="/nobackup/chmbnn/"
 Entering Link 1 = /apps/applications/gaussian/G09.D01/2/default/g09/l1.exe PID=     30821.
  
 Copyright (c) 1988,1990,1992,1993,1995,1998,2003,2009,2013,
            Gaussian, Inc.  All Rights Reserved.
  
 This is part of the Gaussian(R) 09 program.  It is based on
 the Gaussian(R) 03 system (copyright 2003, Gaussian, Inc.),
 the Gaussian(R) 98 system (copyright 1998, Gaussian, Inc.),
 the Gaussian(R) 94 system (copyright 1995, Gaussian, Inc.),
 the Gaussian 92(TM) system (copyright 1992, Gaussian, Inc.),
 the Gaussian 90(TM) system (copyright 1990, Gaussian, Inc.),
 the Gaussian 88(TM) system (copyright 1988, Gaussian, Inc.),
 the Gaussian 86(TM) system (copyright 1986, Carnegie Mellon
 University), and the Gaussian 82(TM) system (copyright 1983,
 Carnegie Mellon University). Gaussian is a federally registered
 trademark of Gaussian, Inc.
  
 This software contains proprietary and confidential information,
 including trade secrets, belonging to Gaussian, Inc.
  
 This software is provided under written license and may be
 used, copied, transmitted, or stored only in accord with that
 written license.
  
 The following legend is applicable only to US Government
 contracts under FAR:
  
                    RESTRICTED RIGHTS LEGEND
  
 Use, reproduction and disclosure by the US Government is
 subject to restrictions as set forth in subparagraphs (a)
 and (c) of the Commercial Computer Software - Restricted
 Rights clause in FAR 52.227-19.
  
 Gaussian, Inc.
 340 Quinnipiac St., Bldg. 40, Wallingford CT 06492
  
  
 ---------------------------------------------------------------
 Warning -- This program may not be used in any manner that
 competes with the business of Gaussian, Inc. or will provide
 assistance to any competitor of Gaussian, Inc.  The licensee
 of this program is prohibited from giving any competitor of
 Gaussian, Inc. access to this program.  By using this program,
 the user acknowledges that Gaussian, Inc. is engaged in the
 business of creating and licensing software in the field of
 computational chemistry and represents and warrants to the
 licensee that it is not a competitor of Gaussian, Inc. and that
 it will not use this program in any manner prohibited above.
 ---------------------------------------------------------------
  

 Cite this work as:
 Gaussian 09, Revision D.01,
 M. J. Frisch, G. W. Trucks, H. B. Schlegel, G. E. Scuseria, 
 M. A. Robb, J. R. Cheeseman, G. Scalmani, V. Barone, B. Mennucci, 
 G. A. Petersson, H. Nakatsuji, M. Caricato, X. Li, H. P. Hratchian, 
 A. F. Izmaylov, J. Bloino, G. Zheng, J. L. Sonnenberg, M. Hada, 
 M. Ehara, K. Toyota, R. Fukuda, J. Hasegawa, M. Ishida, T. Nakajima, 
 Y. Honda, O. Kitao, H. Nakai, T. Vreven, J. A. Montgomery, Jr., 
 J. E. Peralta, F. Ogliaro, M. Bearpark, J. J. Heyd, E. Brothers, 
 K. N. Kudin, V. N. Staroverov, T. Keith, R. Kobayashi, J. Normand, 
 K. Raghavachari, A. Rendell, J. C. Burant, S. S. Iyengar, J. Tomasi, 
 M. Cossi, N. Rega, J. M. Millam, M. Klene, J. E. Knox, J. B. Cross, 
 V. Bakken, C. Adamo, J. Jaramillo, R. Gomperts, R. E. Stratmann, 
 O. Yazyev, A. J. Austin, R. Cammi, C. Pomelli, J. W. Ochterski, 
 R. L. Martin, K. Morokuma, V. G. Zakrzewski, G. A. Voth, 
 P. Salvador, J. J. Dannenberg, S. Dapprich, A. D. Daniels, 
 O. Farkas, J. B. Foresman, J. V. Ortiz, J. Cioslowski, 
 and D. J. Fox, Gaussian, Inc., Wallingford CT, 2013.
 
 ******************************************
 Gaussian 09:  ES64L-G09RevD.01 24-Apr-2013
                 6-Nov-2020 
 ******************************************
 %nprocshared=4
 Will use up to    4 processors via shared memory.
 %chk=MeNO2_isatin_TS4_freq.chk
 --------------------------------------------------------
 # freq scrf=(cpcm,solvent=ethanol) pop=nbo def2svp m062x
 --------------------------------------------------------
 1/10=4,30=1,38=1/1,3;
 2/12=2,17=6,18=5,40=1/2;
 3/5=43,7=101,11=2,16=1,25=1,30=1,70=2101,71=2,72=4,74=-55,140=1/1,2,3;
 4//1;
 5/5=2,38=5,53=4,98=1/2;
 8/6=4,10=90,11=11/1;
 11/6=1,8=1,9=11,15=111,16=1/1,2,10;
 10/6=1/2;
 6/7=2,8=2,9=2,10=2,18=1,28=1,40=1/1,7;
 7/8=1,10=1,25=1/1,2,3,16;
 1/10=4,30=1/3;
 99//99;
 -----------------------
 MeNO2 + isatin TS4 freq
 -----------------------
 Symbolic Z-matrix:
 Charge =  0 Multiplicity = 1
 N                     1.26021   0.86764   1.54974 
 O                     1.21918   2.08577   1.47097 
 O                     2.37496   0.25275   1.38642 
 C                     0.14426   0.11173   1.70624 
 H                    -0.74016   0.66498   2.0149 
 H                     0.32286  -0.91587   2.00801 
 H                     2.78615   0.16955   0.05095 
 C                    -4.33745  -1.05924   0.25981 
 C                    -3.76661   0.17497  -0.07568 
 C                    -2.39377   0.20795  -0.28499 
 C                    -1.61109  -0.9543   -0.14567 
 C                    -2.18649  -2.17437   0.1793 
 C                    -3.56885  -2.22086   0.38246 
 H                    -5.41466  -1.11189   0.42528 
 H                    -4.37993   1.07068  -0.1734 
 H                    -1.5665   -3.06746   0.27351 
 H                    -4.05192  -3.1642    0.63734 
 C                    -0.21742  -0.56148  -0.4239 
 C                    -0.29241   0.92182  -0.80741 
 N                    -1.60049   1.30272  -0.6462 
 O                     0.63985   1.59365  -1.18274 
 O                     0.73856  -1.2881   -0.74566 
 C                    -2.08449   2.64855  -0.84971 
 H                    -2.83613   2.67561  -1.65122 
 H                    -2.52639   3.04511   0.07528 
 H                    -1.2269    3.26792  -1.13622 
 O                     2.96024  -0.24747  -0.91548 
 H                     1.98608  -0.64783  -1.03686 
 C                     3.88121  -1.3476   -0.72753 
 H                     3.42421  -2.06193  -0.0269 
 H                     3.99377  -1.83144  -1.70537 
 C                     5.19437  -0.81443  -0.20703 
 H                     5.906    -1.64026  -0.08073 
 H                     5.62193  -0.0879   -0.91067 
 H                     5.05366  -0.32684   0.76795 
 

 GradGradGradGradGradGradGradGradGradGradGradGradGradGradGradGradGradGrad
 Berny optimization.
 Initialization pass.
 Trust Radius=3.00D-01 FncErr=1.00D-07 GrdErr=1.00D-07
 Number of steps in this run=      2 maximum allowed number of steps=      2.
 GradGradGradGradGradGradGradGradGradGradGradGradGradGradGradGradGradGrad

                          Input orientation:                          
 ---------------------------------------------------------------------
 Center     Atomic      Atomic             Coordinates (Angstroms)
 Number     Number       Type             X           Y           Z
 ---------------------------------------------------------------------
      1          7           0        1.260207    0.867644    1.549737
      2          8           0        1.219176    2.085771    1.470969
      3          8           0        2.374955    0.252746    1.386417
      4          6           0        0.144263    0.111731    1.706237
      5          1           0       -0.740160    0.664980    2.014902
      6          1           0        0.322863   -0.915867    2.008012
      7          1           0        2.786148    0.169553    0.050947
      8          6           0       -4.337454   -1.059240    0.259811
      9          6           0       -3.766614    0.174972   -0.075680
     10          6           0       -2.393770    0.207952   -0.284992
     11          6           0       -1.611088   -0.954301   -0.145666
     12          6           0       -2.186486   -2.174372    0.179297
     13          6           0       -3.568850   -2.220861    0.382461
     14          1           0       -5.414658   -1.111887    0.425276
     15          1           0       -4.379927    1.070675   -0.173402
     16          1           0       -1.566500   -3.067463    0.273514
     17          1           0       -4.051924   -3.164202    0.637344
     18          6           0       -0.217420   -0.561484   -0.423902
     19          6           0       -0.292413    0.921818   -0.807408
     20          7           0       -1.600486    1.302718   -0.646202
     21          8           0        0.639849    1.593649   -1.182741
     22          8           0        0.738563   -1.288095   -0.745658
     23          6           0       -2.084487    2.648554   -0.849707
     24          1           0       -2.836126    2.675610   -1.651223
     25          1           0       -2.526390    3.045106    0.075281
     26          1           0       -1.226895    3.267916   -1.136222
     27          8           0        2.960242   -0.247469   -0.915484
     28          1           0        1.986075   -0.647830   -1.036863
     29          6           0        3.881211   -1.347603   -0.727525
     30          1           0        3.424210   -2.061931   -0.026897
     31          1           0        3.993766   -1.831437   -1.705371
     32          6           0        5.194375   -0.814428   -0.207031
     33          1           0        5.905995   -1.640259   -0.080732
     34          1           0        5.621930   -0.087898   -0.910668
     35          1           0        5.053661   -0.326840    0.767952
 ---------------------------------------------------------------------
                    Distance matrix (angstroms):
                    1          2          3          4          5
     1  N    0.000000
     2  O    1.221360   0.000000
     3  O    1.283525   2.168630   0.000000
     4  C    1.356918   2.260005   2.257910   0.000000
     5  H    2.063715   2.480626   3.204508   1.087917   0.000000
     6  H    2.066287   3.178305   2.441950   1.085783   1.905031
     7  H    2.249933   2.853727   1.399815   3.118154   4.066622
     8  C    6.058927   6.498779   6.931593   4.852742   4.358188
     9  C    5.328293   5.558901   6.313687   4.298161   3.710804
    10  C    4.141615   4.434296   5.053351   3.227362   2.869288
    11  C    3.799764   4.457122   4.437655   2.765362   2.837013
    12  C    4.797047   5.604977   5.306108   3.604193   3.677394
    13  C    5.849888   6.531242   6.515787   4.580456   4.358260
    14  H    7.052431   7.438161   7.966435   5.834356   5.247390
    15  H    5.900978   5.923203   6.980722   4.992085   4.266283
    16  H    5.010398   5.979106   5.272325   3.884158   4.200762
    17  H    6.731046   7.486097   7.317200   5.429756   5.246721
    18  C    2.849744   3.558413   3.265063   2.263079   2.779431
    19  C    2.823065   2.971648   3.517865   2.676815   2.869125
    20  N    3.632493   3.611936   4.586732   3.161735   2.868509
    21  O    2.894540   2.760431   3.377749   3.284491   3.604410
    22  O    3.191890   4.065390   3.098018   2.885220   3.690774
    23  C    4.485081   4.076328   5.534146   4.235050   3.734671
    24  H    5.504074   5.151841   6.500222   5.169984   4.677198
    25  H    4.610171   4.110661   5.791333   4.289183   3.552147
    26  H    4.377369   3.765392   5.331818   4.463312   4.116038
    27  O    3.195452   3.764369   2.427246   3.864218   4.807567
    28  H    3.084485   3.788130   2.614297   3.390251   4.297569
    29  C    4.118605   4.869072   3.049373   4.692295   5.738333
    30  H    3.968765   4.930437   2.907941   4.299606   5.380238
    31  H    5.035187   5.756041   4.064913   5.498513   6.517867
    32  C    4.625287   5.198947   3.409848   5.479233   6.507253
    33  H    5.525518   6.185252   4.266642   6.281742   7.340108
    34  H    5.098164   5.457222   3.991927   6.073951   7.042867
    35  H    4.053181   4.584561   2.809606   5.017461   6.008906
                    6          7          8          9         10
     6  H    0.000000
     7  H    3.328064   0.000000
     8  C    4.979490   7.231823   0.000000
     9  C    4.717576   6.553988   1.400604   0.000000
    10  C    3.728395   5.190942   2.383379   1.389100   0.000000
    11  C    2.894818   4.542839   2.758350   2.434430   1.408132
    12  C    3.350353   5.498868   2.424183   2.842751   2.435980
    13  C    4.414845   6.797792   1.398270   2.447247   2.779467
    14  H    5.955050   8.308756   1.091109   2.150119   3.372272
    15  H    5.551680   7.225994   2.173940   1.089948   2.168309
    16  H    3.347767   5.428937   3.422183   3.933932   3.424127
    17  H    5.106124   7.630007   2.157527   3.426352   3.869315
    18  C    2.516287   3.127510   4.205937   3.641484   2.312537
    19  C    3.417929   3.283324   4.628812   3.628123   2.279961
    20  N    3.958060   4.583954   3.727023   2.507871   1.399387
    21  O    4.071739   2.855982   5.821711   4.759742   3.453832
    22  O    2.809637   2.636650   5.179700   4.783937   3.501697
    23  C    5.164009   5.538927   4.478239   3.089867   2.524103
    24  H    6.022285   6.386522   4.455911   3.098602   2.855101
    25  H    5.248142   6.040899   4.489951   3.130274   2.863010
    26  H    5.458205   5.207085   5.508971   4.140196   3.383721
    27  O    3.993664   1.066867   7.436172   6.792225   5.410210
    28  H    3.479854   1.578468   6.468202   5.890187   4.525562
    29  C    4.509035   2.026560   8.282780   7.825111   6.480044
    30  H    3.882354   2.322220   7.831412   7.530874   6.250430
    31  H    5.301227   2.923518   8.594618   8.179552   6.853992
    32  C    5.352414   2.614255   9.546394   9.016401   7.657107
    33  H    6.004911   3.609183  10.265564   9.841466   8.505510
    34  H    6.106090   3.005436  10.074863   9.429266   8.045523
    35  H    4.925967   2.429427   9.433327   8.874727   7.540486
                   11         12         13         14         15
    11  C    0.000000
    12  C    1.387536   0.000000
    13  C    2.390800   1.397987   0.000000
    14  H    3.849409   3.407415   2.153756   0.000000
    15  H    3.430418   3.932672   3.435264   2.488506   0.000000
    16  H    2.154798   1.091270   2.176697   4.319216   5.023872
    17  H    3.384442   2.160886   1.090054   2.472653   4.324243
    18  C    1.474460   2.615813   3.825681   5.294840   4.478075
    19  C    2.386761   3.761315   4.693321   5.647376   4.139069
    20  N    2.311879   3.621464   4.165119   4.639643   2.828900
    21  O    3.554475   4.903193   5.891816   6.823687   5.146884
    22  O    2.447911   3.193265   4.549342   6.266120   5.664822
    23  C    3.701398   4.932532   5.237631   5.182329   2.866380
    24  H    4.116269   5.224477   5.352400   5.030488   2.672657
    25  H    4.108753   5.231568   5.376941   5.073971   2.719526
    26  H    4.353840   5.680661   6.157745   6.257660   3.961881
    27  O    4.689274   5.603598   6.943197   8.525480   7.494416
    28  H    3.718567   4.606478   5.945259   7.558045   6.650173
    29  C    5.537020   6.190543   7.582747   9.370042   8.625632
    30  H    5.157051   5.615609   7.006834   8.901271   8.410662
    31  H    5.883573   6.470324   7.855180   9.673461   8.993771
    32  C    6.807177   7.515039   8.894924  10.632021   9.758176
    33  H    7.548595   8.114255   9.503912  11.344268  10.637572
    34  H    7.324782   8.155535   9.523243  11.164210  10.095692
    35  H    6.756277   7.495306   8.836493  10.503306   9.582890
                   16         17         18         19         20
    16  H    0.000000
    17  H    2.513775   0.000000
    18  C    2.930245   4.754346   0.000000
    19  C    4.325049   5.737316   1.533912   0.000000
    20  N    4.466040   5.254561   2.331853   1.371906   0.000000
    21  O    5.358602   6.925503   2.440358   1.208861   2.321985
    22  O    3.085154   5.327404   1.243139   2.439352   3.491898
    23  C    5.848315   6.314290   3.737859   2.488963   1.444627
    24  H    6.188655   6.388983   4.340820   3.202856   2.102785
    25  H    6.190653   6.418619   4.311382   3.205955   2.100893
    26  H    6.499209   7.245583   4.023772   2.546675   2.059537
    27  O    5.464199   7.751715   3.230758   3.458132   4.824503
    28  H    4.493607   6.752224   2.288792   2.776320   4.101301
    29  C    5.799789   8.252123   4.184369   4.751399   6.089320
    30  H    5.099856   7.586092   3.958589   4.829621   6.078813
    31  H    6.029951   8.485146   4.581379   5.172821   6.499263
    32  C    7.142585   9.577497   5.422042   5.786177   7.130590
    33  H    7.615811  10.099415   6.227177   6.746300   8.082582
    34  H    7.871062  10.268566   5.878710   6.000803   7.359827
    35  H    7.182062   9.538310   5.409239   5.711516   6.995210
                   21         22         23         24         25
    21  O    0.000000
    22  O    2.916374   0.000000
    23  C    2.940364   4.845373   0.000000
    24  H    3.670493   5.413816   1.099146   0.000000
    25  H    3.703298   5.487303   1.099152   1.792562   0.000000
    26  H    2.508001   4.977228   1.095976   1.790440   1.790550
    27  O    2.974116   2.459187   5.817265   6.533268   6.475013
    28  H    2.618746   1.432140   5.241245   5.888660   5.936075
    29  C    4.400524   3.143264   7.181487   7.884293   7.810105
    30  H    4.738344   2.885852   7.294616   8.017140   7.842315
    31  H    4.822148   3.436949   7.599187   8.183143   8.334496
    32  C    5.243525   4.513174   8.086230   8.874402   8.636314
    33  H    6.277331   5.221925   9.101266   9.875112   9.647907
    34  H    5.265240   5.031399   8.178065   8.928836   8.785382
    35  H    5.193767   4.672804   7.900819   8.781563   8.325082
                   26         27         28         29         30
    26  H    0.000000
    27  O    5.471634   0.000000
    28  H    5.066174   1.060200   0.000000
    29  C    6.896579   1.446999   2.043750   0.000000
    30  H    7.160353   2.072951   2.255647   1.099997   0.000000
    31  H    7.320016   2.049646   2.424593   1.096789   1.787399
    32  C    7.665614   2.411369   3.318066   1.509831   2.173061
    33  H    8.722520   3.363649   4.155102   2.145633   2.517928
    34  H    7.630122   2.666471   3.680882   2.156502   3.083477
    35  H    7.482883   2.687501   3.573580   2.157092   2.509469
                   31         32         33         34         35
    31  H    0.000000
    32  C    2.172738   0.000000
    33  H    2.516470   1.097429   0.000000
    34  H    2.514438   1.098068   1.783062   0.000000
    35  H    3.082940   1.099152   1.780957   1.788236   0.000000
 Stoichiometry    C12H16N2O5
 Framework group  C1[X(C12H16N2O5)]
 Deg. of freedom    99
 Full point group                 C1      NOp   1
 Largest Abelian subgroup         C1      NOp   1
 Largest concise Abelian subgroup C1      NOp   1
                         Standard orientation:                         
 ---------------------------------------------------------------------
 Center     Atomic      Atomic             Coordinates (Angstroms)
 Number     Number       Type             X           Y           Z
 ---------------------------------------------------------------------
      1          7           0        1.260207    0.867644    1.549737
      2          8           0        1.219176    2.085771    1.470969
      3          8           0        2.374955    0.252746    1.386417
      4          6           0        0.144263    0.111731    1.706237
      5          1           0       -0.740160    0.664980    2.014902
      6          1           0        0.322863   -0.915867    2.008012
      7          1           0        2.786148    0.169553    0.050947
      8          6           0       -4.337454   -1.059240    0.259811
      9          6           0       -3.766614    0.174972   -0.075680
     10          6           0       -2.393770    0.207952   -0.284992
     11          6           0       -1.611088   -0.954301   -0.145666
     12          6           0       -2.186486   -2.174372    0.179297
     13          6           0       -3.568850   -2.220861    0.382461
     14          1           0       -5.414658   -1.111887    0.425276
     15          1           0       -4.379927    1.070675   -0.173402
     16          1           0       -1.566500   -3.067463    0.273514
     17          1           0       -4.051924   -3.164202    0.637344
     18          6           0       -0.217420   -0.561484   -0.423902
     19          6           0       -0.292413    0.921818   -0.807408
     20          7           0       -1.600486    1.302718   -0.646202
     21          8           0        0.639849    1.593649   -1.182741
     22          8           0        0.738563   -1.288095   -0.745658
     23          6           0       -2.084487    2.648554   -0.849707
     24          1           0       -2.836126    2.675610   -1.651223
     25          1           0       -2.526390    3.045106    0.075281
     26          1           0       -1.226895    3.267916   -1.136222
     27          8           0        2.960242   -0.247469   -0.915484
     28          1           0        1.986075   -0.647830   -1.036863
     29          6           0        3.881211   -1.347603   -0.727525
     30          1           0        3.424210   -2.061931   -0.026897
     31          1           0        3.993766   -1.831437   -1.705371
     32          6           0        5.194375   -0.814428   -0.207031
     33          1           0        5.905995   -1.640259   -0.080732
     34          1           0        5.621930   -0.087898   -0.910668
     35          1           0        5.053661   -0.326840    0.767952
 ---------------------------------------------------------------------
 Rotational constants (GHZ):      0.6869524      0.2474882      0.2184785
 Standard basis: def2SVP (5D, 7F)
 There are   365 symmetry adapted cartesian basis functions of A   symmetry.
 There are   346 symmetry adapted basis functions of A   symmetry.
   346 basis functions,   587 primitive gaussians,   365 cartesian basis functions
    71 alpha electrons       71 beta electrons
       nuclear repulsion energy      1552.3992678961 Hartrees.
 NAtoms=   35 NActive=   35 NUniq=   35 SFac= 1.00D+00 NAtFMM=   60 NAOKFM=F Big=F
 Integral buffers will be    131072 words long.
 Raffenetti 2 integral format.
 Two-electron integral symmetry is turned on.
 Force inversion solution in PCM.
 ------------------------------------------------------------------------------
 Polarizable Continuum Model (PCM)
 =================================
 Model                : C-PCM.
 Atomic radii         : UFF (Universal Force Field).
 Polarization charges : Total charges.
 Charge compensation  : None.
 Solution method      : Matrix inversion.
 Cavity type          : Scaled VdW (van der Waals Surface) (Alpha=1.100).
 Cavity algorithm     : GePol (No added spheres)
                        Default sphere list used, NSphG=   35.
                        Lebedev-Laikov grids with approx.  5.0 points / Ang**2.
                        Smoothing algorithm: Karplus/York (Gamma=1.0000).
                        Polarization charges: spherical gaussians, with
                                              point-specific exponents (IZeta= 3).
                        Self-potential: point-specific (ISelfS= 7).
                        Self-field    : sphere-specific E.n sum rule (ISelfD= 2).
 1st derivatives      : Analytical E(r).r(x)/FMM algorithm (CHGder, D1EAlg=3).
                        Cavity 1st derivative terms included.
 2nd derivatives      : Analytical E(r).r(xy)/FMM algorithm (CHGder, D2EAlg=3).
                        Cavity 2nd derivative terms included.
 Solvent              : Ethanol, Eps=  24.852000 Eps(inf)=   1.852593
 ------------------------------------------------------------------------------
 One-electron integrals computed using PRISM.
   1 Symmetry operations used in ECPInt.
 ECPInt:  NShTT=   13203 NPrTT=   47881 LenC2=   12090 LenP2D=   30958.
 LDataN:  DoStor=T MaxTD1= 4 Len=   56
 NBasis=   346 RedAO= T EigKep=  2.47D-04  NBF=   346
 NBsUse=   346 1.00D-06 EigRej= -1.00D+00 NBFU=   346
 ExpMin= 1.22D-01 ExpMax= 2.27D+03 ExpMxC= 3.41D+02 IAcc=1 IRadAn=         1 AccDes= 0.00D+00
 Harris functional with IExCor= 1009 and IRadAn=       1 diagonalized for initial guess.
 HarFok:  IExCor= 1009 AccDes= 0.00D+00 IRadAn=         1 IDoV= 1 UseB2=F ITyADJ=14
 ICtDFT=  3500011 ScaDFX=  1.000000  1.000000  1.000000  1.000000
 FoFCou: FMM=F IPFlag=           0 FMFlag=      100000 FMFlg1=           0
         NFxFlg=           0 DoJE=T BraDBF=F KetDBF=T FulRan=T
         wScrn=  0.000000 ICntrl=     500 IOpCl=  0 I1Cent=   200000004 NGrid=           0
         NMat0=    1 NMatS0=      1 NMatT0=    0 NMatD0=    1 NMtDS0=    0 NMtDT0=    0
 Petite list used in FoFCou.
 Requested convergence on RMS density matrix=1.00D-08 within 128 cycles.
 Requested convergence on MAX density matrix=1.00D-06.
 Requested convergence on             energy=1.00D-06.
 No special actions if energy rises.
 Inv3:  Mode=1 IEnd=    20015667.
 Iteration    1 A*A^-1 deviation from unit magnitude is 6.00D-15 for   2581.
 Iteration    1 A*A^-1 deviation from orthogonality  is 3.00D-15 for   2559     17.
 Iteration    1 A^-1*A deviation from unit magnitude is 6.22D-15 for   2581.
 Iteration    1 A^-1*A deviation from orthogonality  is 2.74D-15 for   2574   2074.
 Error on total polarization charges =  0.00975
 SCF Done:  E(RM062X) =  -951.313313295     A.U. after   15 cycles
            NFock= 15  Conv=0.57D-08     -V/T= 2.0090
 DoSCS=F DFT=T ScalE2(SS,OS)=  1.000000  1.000000
 Range of M.O.s used for correlation:     1   346
 NBasis=   346 NAE=    71 NBE=    71 NFC=     0 NFV=     0
 NROrb=    346 NOA=    71 NOB=    71 NVA=   275 NVB=   275

 **** Warning!!: The largest alpha MO coefficient is  0.11992773D+02

 PrsmSu:  requested number of processors reduced to:   3 ShMem   1 Linda.
   1 Symmetry operations used in ECPInt.
 ECPInt:  NShTT=   13203 NPrTT=   47881 LenC2=   12090 LenP2D=   30958.
 LDataN:  DoStor=T MaxTD1= 5 Len=  102
 Number of processors reduced to   2 by ecpmxn.
 Symmetrizing basis deriv contribution to polar:
 IMax=3 JMax=2 DiffMx= 0.00D+00
 G2DrvN: will do    18 centers at a time, making    2 passes.
 Calling FoFCou, ICntrl=  3107 FMM=F I1Cent=   0 AccDes= 0.00D+00.
 Calling FoFCou, ICntrl=  3107 FMM=F I1Cent=   0 AccDes= 0.00D+00.
 NEqPCM:  Using equilibrium solvation (IEInf=0, Eps=  24.8520, EpsInf=   1.8526)
 G2PCM: DoFxE=T DoFxN=T DoGrad=T DoDP/DQ/DG/TGxP=FFFF NFrqRd=   0 IEInf=0 SqF1=F DoCFld=F IF1Alg=4.
 End of G2Drv F.D. properties file   721 does not exist.
 End of G2Drv F.D. properties file   722 does not exist.
 End of G2Drv F.D. properties file   788 does not exist.
          IDoAtm=11111111111111111111111111111111111
 NEqPCM:  Using equilibrium solvation (IEInf=0, Eps=  24.8520, EpsInf=   1.8526)
          Differentiating once with respect to electric field.
                with respect to dipole field.
          Differentiating once with respect to nuclear coordinates.
          There are   108 degrees of freedom in the 1st order CPHF.  IDoFFX=6 NUNeed=     3.
    108 vectors produced by pass  0 Test12= 1.95D-14 1.00D-09 XBig12= 1.60D+02 5.98D+00.
 AX will form    56 AO Fock derivatives at one time.
    108 vectors produced by pass  1 Test12= 1.95D-14 1.00D-09 XBig12= 2.24D+01 7.06D-01.
    105 vectors produced by pass  2 Test12= 1.95D-14 1.00D-09 XBig12= 4.46D-01 9.08D-02.
    105 vectors produced by pass  3 Test12= 1.95D-14 1.00D-09 XBig12= 4.21D-03 6.76D-03.
    105 vectors produced by pass  4 Test12= 1.95D-14 1.00D-09 XBig12= 3.09D-05 5.07D-04.
    105 vectors produced by pass  5 Test12= 1.95D-14 1.00D-09 XBig12= 1.09D-07 3.14D-05.
     69 vectors produced by pass  6 Test12= 1.95D-14 1.00D-09 XBig12= 3.31D-10 1.31D-06.
      6 vectors produced by pass  7 Test12= 1.95D-14 1.00D-09 XBig12= 8.57D-13 6.64D-08.
      3 vectors produced by pass  8 Test12= 1.95D-14 1.00D-09 XBig12= 2.37D-15 2.71D-09.
      1 vectors produced by pass  9 Test12= 1.95D-14 1.00D-09 XBig12= 2.47D-16 1.78D-09.
 InvSVY:  IOpt=1 It=  1 EMax= 5.33D-15
 Solved reduced A of dimension   715 with   108 vectors.
 Isotropic polarizability for W=    0.000000      231.95 Bohr**3.
 End of Minotr F.D. properties file   721 does not exist.
 End of Minotr F.D. properties file   722 does not exist.
 End of Minotr F.D. properties file   788 does not exist.

 **********************************************************************

            Population analysis using the SCF density.

 **********************************************************************

 Orbital symmetries:
       Occupied  (A) (A) (A) (A) (A) (A) (A) (A) (A) (A) (A) (A)
                 (A) (A) (A) (A) (A) (A) (A) (A) (A) (A) (A) (A)
                 (A) (A) (A) (A) (A) (A) (A) (A) (A) (A) (A) (A)
                 (A) (A) (A) (A) (A) (A) (A) (A) (A) (A) (A) (A)
                 (A) (A) (A) (A) (A) (A) (A) (A) (A) (A) (A) (A)
                 (A) (A) (A) (A) (A) (A) (A) (A) (A) (A) (A)
       Virtual   (A) (A) (A) (A) (A) (A) (A) (A) (A) (A) (A) (A)
                 (A) (A) (A) (A) (A) (A) (A) (A) (A) (A) (A) (A)
                 (A) (A) (A) (A) (A) (A) (A) (A) (A) (A) (A) (A)
                 (A) (A) (A) (A) (A) (A) (A) (A) (A) (A) (A) (A)
                 (A) (A) (A) (A) (A) (A) (A) (A) (A) (A) (A) (A)
                 (A) (A) (A) (A) (A) (A) (A) (A) (A) (A) (A) (A)
                 (A) (A) (A) (A) (A) (A) (A) (A) (A) (A) (A) (A)
                 (A) (A) (A) (A) (A) (A) (A) (A) (A) (A) (A) (A)
                 (A) (A) (A) (A) (A) (A) (A) (A) (A) (A) (A) (A)
                 (A) (A) (A) (A) (A) (A) (A) (A) (A) (A) (A) (A)
                 (A) (A) (A) (A) (A) (A) (A) (A) (A) (A) (A) (A)
                 (A) (A) (A) (A) (A) (A) (A) (A) (A) (A) (A) (A)
                 (A) (A) (A) (A) (A) (A) (A) (A) (A) (A) (A) (A)
                 (A) (A) (A) (A) (A) (A) (A) (A) (A) (A) (A) (A)
                 (A) (A) (A) (A) (A) (A) (A) (A) (A) (A) (A) (A)
                 (A) (A) (A) (A) (A) (A) (A) (A) (A) (A) (A) (A)
                 (A) (A) (A) (A) (A) (A) (A) (A) (A) (A) (A) (A)
                 (A) (A) (A) (A) (A) (A) (A) (A) (A) (A) (A) (A)
                 (A) (A) (A) (A) (A) (A) (A) (A) (A) (A) (A) (A)
                 (A) (A) (A) (A) (A) (A) (A) (A) (A) (A) (A) (A)
                 (A) (A) (A) (A) (A) (A) (A) (A) (A) (A) (A) (A)
                 (A) (A) (A) (A) (A) (A) (A) (A) (A) (A) (A) (A)
                 (A) (A) (A) (A) (A) (A) (A) (A) (A) (A) (A)
 The electronic state is 1-A.
 Alpha  occ. eigenvalues --  -19.69442 -19.64956 -19.64594 -19.63951 -19.63625
 Alpha  occ. eigenvalues --  -14.97958 -14.81703 -10.67629 -10.67539 -10.62183
 Alpha  occ. eigenvalues --  -10.61844 -10.59696 -10.59076 -10.57990 -10.57652
 Alpha  occ. eigenvalues --  -10.57502 -10.57380 -10.56656 -10.55475  -1.32315
 Alpha  occ. eigenvalues --   -1.20714  -1.18709  -1.15810  -1.12846  -1.08885
 Alpha  occ. eigenvalues --   -0.96348  -0.91882  -0.89201  -0.86105  -0.85293
 Alpha  occ. eigenvalues --   -0.81449  -0.76535  -0.73079  -0.70527  -0.69144
 Alpha  occ. eigenvalues --   -0.68071  -0.66951  -0.64720  -0.63703  -0.61154
 Alpha  occ. eigenvalues --   -0.59834  -0.59342  -0.58536  -0.57961  -0.56089
 Alpha  occ. eigenvalues --   -0.55601  -0.54521  -0.53246  -0.52138  -0.51772
 Alpha  occ. eigenvalues --   -0.51657  -0.50989  -0.49468  -0.47945  -0.46801
 Alpha  occ. eigenvalues --   -0.46538  -0.46054  -0.45210  -0.44528  -0.44304
 Alpha  occ. eigenvalues --   -0.42821  -0.41740  -0.39939  -0.39103  -0.38203
 Alpha  occ. eigenvalues --   -0.36966  -0.35991  -0.33653  -0.33364  -0.28656
 Alpha  occ. eigenvalues --   -0.27887
 Alpha virt. eigenvalues --   -0.06751   0.01170   0.02423   0.04781   0.09689
 Alpha virt. eigenvalues --    0.10661   0.11249   0.12226   0.12963   0.14230
 Alpha virt. eigenvalues --    0.15202   0.15338   0.16175   0.16510   0.17394
 Alpha virt. eigenvalues --    0.17853   0.18099   0.18943   0.19559   0.19926
 Alpha virt. eigenvalues --    0.20197   0.20815   0.22728   0.23279   0.24050
 Alpha virt. eigenvalues --    0.25325   0.27420   0.28486   0.28907   0.29958
 Alpha virt. eigenvalues --    0.32395   0.32842   0.34589   0.34942   0.35890
 Alpha virt. eigenvalues --    0.37293   0.38655   0.40041   0.41964   0.43886
 Alpha virt. eigenvalues --    0.44919   0.45445   0.46329   0.46708   0.47057
 Alpha virt. eigenvalues --    0.47195   0.48020   0.49066   0.50926   0.51436
 Alpha virt. eigenvalues --    0.52078   0.52217   0.55117   0.55961   0.57447
 Alpha virt. eigenvalues --    0.57989   0.58520   0.59118   0.61007   0.62467
 Alpha virt. eigenvalues --    0.63283   0.63904   0.64300   0.65495   0.65877
 Alpha virt. eigenvalues --    0.66987   0.68031   0.68469   0.69028   0.69382
 Alpha virt. eigenvalues --    0.69650   0.70456   0.70566   0.71100   0.71531
 Alpha virt. eigenvalues --    0.72162   0.72548   0.72849   0.73297   0.73887
 Alpha virt. eigenvalues --    0.74168   0.74403   0.74894   0.76043   0.76912
 Alpha virt. eigenvalues --    0.77408   0.78482   0.78665   0.79409   0.80724
 Alpha virt. eigenvalues --    0.81397   0.83062   0.87016   0.88588   0.89745
 Alpha virt. eigenvalues --    0.91663   0.92434   0.94586   0.96837   0.97617
 Alpha virt. eigenvalues --    0.98266   1.00391   1.02888   1.04076   1.05831
 Alpha virt. eigenvalues --    1.06547   1.08884   1.08931   1.10256   1.11081
 Alpha virt. eigenvalues --    1.12127   1.12956   1.15522   1.17812   1.19052
 Alpha virt. eigenvalues --    1.22382   1.23367   1.24526   1.24787   1.26102
 Alpha virt. eigenvalues --    1.26759   1.27858   1.28855   1.28937   1.29829
 Alpha virt. eigenvalues --    1.32853   1.33920   1.34459   1.35638   1.36505
 Alpha virt. eigenvalues --    1.36841   1.40074   1.40460   1.41577   1.42067
 Alpha virt. eigenvalues --    1.45207   1.47443   1.49549   1.50852   1.53587
 Alpha virt. eigenvalues --    1.55182   1.56143   1.57154   1.57382   1.59046
 Alpha virt. eigenvalues --    1.59549   1.61652   1.63951   1.64089   1.67727
 Alpha virt. eigenvalues --    1.71284   1.71923   1.72460   1.73177   1.74082
 Alpha virt. eigenvalues --    1.75140   1.76905   1.78241   1.79143   1.79622
 Alpha virt. eigenvalues --    1.79813   1.80749   1.81284   1.82121   1.82401
 Alpha virt. eigenvalues --    1.82652   1.83366   1.83624   1.84337   1.85182
 Alpha virt. eigenvalues --    1.86006   1.86721   1.87861   1.89098   1.90685
 Alpha virt. eigenvalues --    1.90792   1.93198   1.95063   1.96243   1.96828
 Alpha virt. eigenvalues --    1.97910   1.98391   1.99518   1.99983   2.01745
 Alpha virt. eigenvalues --    2.02096   2.03755   2.04713   2.05383   2.07643
 Alpha virt. eigenvalues --    2.10309   2.11180   2.12611   2.14248   2.14528
 Alpha virt. eigenvalues --    2.16771   2.17422   2.19349   2.20074   2.21419
 Alpha virt. eigenvalues --    2.22877   2.23673   2.27913   2.28416   2.29534
 Alpha virt. eigenvalues --    2.31058   2.32298   2.34363   2.35469   2.36754
 Alpha virt. eigenvalues --    2.37753   2.39490   2.40508   2.42378   2.43219
 Alpha virt. eigenvalues --    2.46622   2.48710   2.49858   2.52017   2.52857
 Alpha virt. eigenvalues --    2.56588   2.57347   2.58937   2.60986   2.61220
 Alpha virt. eigenvalues --    2.62699   2.66260   2.67953   2.70024   2.71222
 Alpha virt. eigenvalues --    2.72146   2.73394   2.73867   2.74625   2.76383
 Alpha virt. eigenvalues --    2.77278   2.78108   2.79215   2.81443   2.82932
 Alpha virt. eigenvalues --    2.83209   2.84360   2.87781   2.90118   2.91577
 Alpha virt. eigenvalues --    2.94769   2.94832   2.96496   2.96992   2.98289
 Alpha virt. eigenvalues --    2.99011   3.00562   3.04242   3.08102   3.09125
 Alpha virt. eigenvalues --    3.10594   3.12346   3.17402   3.20292   3.21388
 Alpha virt. eigenvalues --    3.25262   3.25772   3.28082   3.33292   3.37463
 Alpha virt. eigenvalues --    3.40487   3.48053   3.51707   3.63645   3.68141
 Alpha virt. eigenvalues --    3.72759   3.73616   3.76953   3.83353   3.97528
          Condensed to atoms (all electrons):
               1          2          3          4          5          6
     1  N    5.908411   0.282840   0.193840   0.421865  -0.015126  -0.009207
     2  O    0.282840   8.206971  -0.099939  -0.079907   0.004608   0.004783
     3  O    0.193840  -0.099939   8.357590  -0.077634   0.005447   0.003492
     4  C    0.421865  -0.079907  -0.077634   5.025731   0.371270   0.365070
     5  H   -0.015126   0.004608   0.005447   0.371270   0.572963  -0.023373
     6  H   -0.009207   0.004783   0.003492   0.365070  -0.023373   0.575716
     7  H   -0.009647   0.004262   0.115434  -0.005324  -0.000034  -0.000368
     8  C    0.000000   0.000000   0.000000   0.000165   0.000073  -0.000044
     9  C    0.000007   0.000000   0.000000  -0.001446   0.000457   0.000008
    10  C    0.000629  -0.000654  -0.000070   0.011951  -0.000464  -0.002784
    11  C    0.000008   0.000883   0.001198  -0.081973   0.007687  -0.005780
    12  C    0.000029   0.000011   0.000019  -0.015661  -0.000088   0.003576
    13  C   -0.000001   0.000000   0.000000  -0.000062   0.000175   0.000135
    14  H    0.000000   0.000000   0.000000   0.000001  -0.000002  -0.000001
    15  H    0.000000   0.000000   0.000000  -0.000005   0.000005   0.000002
    16  H   -0.000001   0.000000   0.000000  -0.000006  -0.000016   0.000196
    17  H    0.000000   0.000000   0.000000  -0.000003   0.000001   0.000002
    18  C    0.001791  -0.010509   0.004197   0.164941  -0.019708   0.006277
    19  C   -0.006712   0.016806  -0.003768  -0.067609   0.009958   0.002813
    20  N   -0.002430  -0.000652  -0.000024   0.004114  -0.003132   0.000470
    21  O    0.003741  -0.001372  -0.000071  -0.010323   0.000296  -0.000096
    22  O   -0.003407   0.000155   0.000396  -0.033230   0.000899   0.000480
    23  C    0.000059   0.000541   0.000003  -0.001874   0.000182   0.000033
    24  H   -0.000007   0.000011   0.000000   0.000007   0.000012   0.000002
    25  H    0.000086   0.000013   0.000000   0.000122   0.000170  -0.000017
    26  H   -0.000021   0.000352   0.000003  -0.000344   0.000032   0.000004
    27  O    0.003028   0.000000  -0.064761   0.000841  -0.000010   0.000075
    28  H    0.000413  -0.000421   0.004164   0.003919   0.000013  -0.000512
    29  C   -0.000219   0.000012   0.005857   0.000113   0.000001   0.000044
    30  H   -0.000249   0.000030   0.004334  -0.000293   0.000012   0.000203
    31  H    0.000005   0.000001  -0.000129   0.000016   0.000000   0.000000
    32  C    0.000166  -0.000022  -0.003540  -0.000049   0.000000   0.000001
    33  H   -0.000001   0.000000   0.000000   0.000001   0.000000  -0.000001
    34  H   -0.000008   0.000001   0.000051   0.000000   0.000000   0.000000
    35  H   -0.000142   0.000023   0.005356   0.000079  -0.000003  -0.000003
               7          8          9         10         11         12
     1  N   -0.009647   0.000000   0.000007   0.000629   0.000008   0.000029
     2  O    0.004262   0.000000   0.000000  -0.000654   0.000883   0.000011
     3  O    0.115434   0.000000   0.000000  -0.000070   0.001198   0.000019
     4  C   -0.005324   0.000165  -0.001446   0.011951  -0.081973  -0.015661
     5  H   -0.000034   0.000073   0.000457  -0.000464   0.007687  -0.000088
     6  H   -0.000368  -0.000044   0.000008  -0.002784  -0.005780   0.003576
     7  H    0.392626   0.000000   0.000001  -0.000033   0.000552   0.000013
     8  C    0.000000   5.138028   0.222073   0.157594  -0.183754   0.109885
     9  C    0.000001   0.222073   5.190156   0.274999   0.067976  -0.132935
    10  C   -0.000033   0.157594   0.274999   5.210807   0.154014   0.066925
    11  C    0.000552  -0.183754   0.067976   0.154014   5.892289   0.275999
    12  C    0.000013   0.109885  -0.132935   0.066925   0.275999   5.159394
    13  C    0.000000   0.242571   0.095164  -0.168548   0.114596   0.229491
    14  H    0.000000   0.451462  -0.064839   0.014247  -0.001381   0.013184
    15  H    0.000000  -0.074974   0.472370  -0.078890   0.019096  -0.002654
    16  H   -0.000004   0.012982  -0.001809   0.015131  -0.077666   0.467212
    17  H    0.000000  -0.069064   0.013371  -0.001534   0.014816  -0.070464
    18  C   -0.001156  -0.000975   0.019297  -0.000639  -0.044345  -0.100722
    19  C    0.001154  -0.000699   0.002867  -0.094893  -0.063245   0.018579
    20  N    0.000150   0.008174  -0.083063   0.325614  -0.045646   0.007199
    21  O    0.007675   0.000001  -0.000074   0.001071   0.008796  -0.000035
    22  O    0.008191  -0.000014  -0.000025   0.003391  -0.085401   0.004876
    23  C   -0.000001  -0.000251   0.001744  -0.046019   0.007779  -0.000077
    24  H    0.000000   0.000258   0.002877  -0.006546   0.000371   0.000018
    25  H    0.000000   0.000190   0.001705  -0.004866   0.000476  -0.000015
    26  H    0.000000  -0.000009   0.000425   0.005576  -0.001257   0.000019
    27  O    0.265816   0.000000   0.000000   0.000005  -0.000173   0.000002
    28  H   -0.016782   0.000000   0.000008  -0.000057   0.003763  -0.000296
    29  C   -0.027974   0.000000   0.000000   0.000000  -0.000013   0.000001
    30  H    0.000580   0.000000   0.000000  -0.000001  -0.000068   0.000010
    31  H    0.003487   0.000000   0.000000   0.000000   0.000002   0.000000
    32  C   -0.002528   0.000000   0.000000   0.000000  -0.000002   0.000000
    33  H    0.000072   0.000000   0.000000   0.000000   0.000000   0.000000
    34  H   -0.000051   0.000000   0.000000   0.000000   0.000000   0.000000
    35  H    0.003224   0.000000   0.000000   0.000000  -0.000001   0.000000
              13         14         15         16         17         18
     1  N   -0.000001   0.000000   0.000000  -0.000001   0.000000   0.001791
     2  O    0.000000   0.000000   0.000000   0.000000   0.000000  -0.010509
     3  O    0.000000   0.000000   0.000000   0.000000   0.000000   0.004197
     4  C   -0.000062   0.000001  -0.000005  -0.000006  -0.000003   0.164941
     5  H    0.000175  -0.000002   0.000005  -0.000016   0.000001  -0.019708
     6  H    0.000135  -0.000001   0.000002   0.000196   0.000002   0.006277
     7  H    0.000000   0.000000   0.000000  -0.000004   0.000000  -0.001156
     8  C    0.242571   0.451462  -0.074974   0.012982  -0.069064  -0.000975
     9  C    0.095164  -0.064839   0.472370  -0.001809   0.013371   0.019297
    10  C   -0.168548   0.014247  -0.078890   0.015131  -0.001534  -0.000639
    11  C    0.114596  -0.001381   0.019096  -0.077666   0.014816  -0.044345
    12  C    0.229491   0.013184  -0.002654   0.467212  -0.070464  -0.100722
    13  C    5.160644  -0.067451   0.013667  -0.065888   0.457790   0.018996
    14  H   -0.067451   0.626291  -0.010625  -0.000194  -0.011359   0.000011
    15  H    0.013667  -0.010625   0.638466   0.000013  -0.000148  -0.000520
    16  H   -0.065888  -0.000194   0.000013   0.634179  -0.009858  -0.015909
    17  H    0.457790  -0.011359  -0.000148  -0.009858   0.633407  -0.000372
    18  C    0.018996   0.000011  -0.000520  -0.015909  -0.000372   5.616236
    19  C   -0.000331   0.000002   0.000178   0.000687   0.000014   0.050462
    20  N   -0.000491  -0.000107  -0.012495  -0.000211   0.000009  -0.165562
    21  O    0.000000   0.000000   0.000000   0.000000   0.000000  -0.088111
    22  O    0.000395   0.000000   0.000001   0.003251  -0.000001   0.562376
    23  C    0.000068  -0.000024   0.007322   0.000010   0.000000   0.007516
    24  H   -0.000028   0.000005  -0.000190  -0.000001   0.000000  -0.000598
    25  H   -0.000019   0.000004   0.000008   0.000000   0.000000  -0.000559
    26  H    0.000002   0.000000  -0.000109   0.000000   0.000000   0.003941
    27  O    0.000000   0.000000   0.000000   0.000004   0.000000   0.006496
    28  H    0.000001   0.000000   0.000000  -0.000098   0.000000  -0.024130
    29  C    0.000000   0.000000   0.000000   0.000001   0.000000   0.000880
    30  H    0.000000   0.000000   0.000000   0.000003   0.000000  -0.000305
    31  H    0.000000   0.000000   0.000000   0.000000   0.000000   0.000106
    32  C    0.000000   0.000000   0.000000   0.000000   0.000000   0.000014
    33  H    0.000000   0.000000   0.000000   0.000000   0.000000  -0.000002
    34  H    0.000000   0.000000   0.000000   0.000000   0.000000  -0.000004
    35  H    0.000000   0.000000   0.000000   0.000000   0.000000  -0.000006
              19         20         21         22         23         24
     1  N   -0.006712  -0.002430   0.003741  -0.003407   0.000059  -0.000007
     2  O    0.016806  -0.000652  -0.001372   0.000155   0.000541   0.000011
     3  O   -0.003768  -0.000024  -0.000071   0.000396   0.000003   0.000000
     4  C   -0.067609   0.004114  -0.010323  -0.033230  -0.001874   0.000007
     5  H    0.009958  -0.003132   0.000296   0.000899   0.000182   0.000012
     6  H    0.002813   0.000470  -0.000096   0.000480   0.000033   0.000002
     7  H    0.001154   0.000150   0.007675   0.008191  -0.000001   0.000000
     8  C   -0.000699   0.008174   0.000001  -0.000014  -0.000251   0.000258
     9  C    0.002867  -0.083063  -0.000074  -0.000025   0.001744   0.002877
    10  C   -0.094893   0.325614   0.001071   0.003391  -0.046019  -0.006546
    11  C   -0.063245  -0.045646   0.008796  -0.085401   0.007779   0.000371
    12  C    0.018579   0.007199  -0.000035   0.004876  -0.000077   0.000018
    13  C   -0.000331  -0.000491   0.000000   0.000395   0.000068  -0.000028
    14  H    0.000002  -0.000107   0.000000   0.000000  -0.000024   0.000005
    15  H    0.000178  -0.012495   0.000000   0.000001   0.007322  -0.000190
    16  H    0.000687  -0.000211   0.000000   0.003251   0.000010  -0.000001
    17  H    0.000014   0.000009   0.000000  -0.000001   0.000000   0.000000
    18  C    0.050462  -0.165562  -0.088111   0.562376   0.007516  -0.000598
    19  C    4.995003   0.248864   0.739316  -0.057604  -0.022416   0.000566
    20  N    0.248864   6.943212  -0.092665   0.003451   0.282110  -0.024605
    21  O    0.739316  -0.092665   7.668726  -0.000406  -0.005171   0.000048
    22  O   -0.057604   0.003451  -0.000406   7.872519  -0.000068   0.000003
    23  C   -0.022416   0.282110  -0.005171  -0.000068   4.496468   0.409171
    24  H    0.000566  -0.024605   0.000048   0.000003   0.409171   0.583441
    25  H    0.003531  -0.027860   0.000241   0.000000   0.406921  -0.028650
    26  H   -0.002455  -0.028619   0.015619  -0.000018   0.396182  -0.017252
    27  O    0.001156  -0.000012  -0.002652  -0.060018   0.000000   0.000000
    28  H   -0.005870   0.001120   0.012084   0.120740  -0.000029   0.000002
    29  C   -0.000209  -0.000002  -0.000127  -0.000295   0.000000   0.000000
    30  H    0.000055  -0.000001  -0.000010   0.004836   0.000000   0.000000
    31  H   -0.000014   0.000000  -0.000011   0.000155   0.000000   0.000000
    32  C    0.000008   0.000000  -0.000017   0.000009   0.000000   0.000000
    33  H    0.000000   0.000000   0.000000   0.000008   0.000000   0.000000
    34  H    0.000001   0.000000   0.000001  -0.000001   0.000000   0.000000
    35  H    0.000003   0.000000  -0.000009  -0.000023   0.000000   0.000000
              25         26         27         28         29         30
     1  N    0.000086  -0.000021   0.003028   0.000413  -0.000219  -0.000249
     2  O    0.000013   0.000352   0.000000  -0.000421   0.000012   0.000030
     3  O    0.000000   0.000003  -0.064761   0.004164   0.005857   0.004334
     4  C    0.000122  -0.000344   0.000841   0.003919   0.000113  -0.000293
     5  H    0.000170   0.000032  -0.000010   0.000013   0.000001   0.000012
     6  H   -0.000017   0.000004   0.000075  -0.000512   0.000044   0.000203
     7  H    0.000000   0.000000   0.265816  -0.016782  -0.027974   0.000580
     8  C    0.000190  -0.000009   0.000000   0.000000   0.000000   0.000000
     9  C    0.001705   0.000425   0.000000   0.000008   0.000000   0.000000
    10  C   -0.004866   0.005576   0.000005  -0.000057   0.000000  -0.000001
    11  C    0.000476  -0.001257  -0.000173   0.003763  -0.000013  -0.000068
    12  C   -0.000015   0.000019   0.000002  -0.000296   0.000001   0.000010
    13  C   -0.000019   0.000002   0.000000   0.000001   0.000000   0.000000
    14  H    0.000004   0.000000   0.000000   0.000000   0.000000   0.000000
    15  H    0.000008  -0.000109   0.000000   0.000000   0.000000   0.000000
    16  H    0.000000   0.000000   0.000004  -0.000098   0.000001   0.000003
    17  H    0.000000   0.000000   0.000000   0.000000   0.000000   0.000000
    18  C   -0.000559   0.003941   0.006496  -0.024130   0.000880  -0.000305
    19  C    0.003531  -0.002455   0.001156  -0.005870  -0.000209   0.000055
    20  N   -0.027860  -0.028619  -0.000012   0.001120  -0.000002  -0.000001
    21  O    0.000241   0.015619  -0.002652   0.012084  -0.000127  -0.000010
    22  O    0.000000  -0.000018  -0.060018   0.120740  -0.000295   0.004836
    23  C    0.406921   0.396182   0.000000  -0.000029   0.000000   0.000000
    24  H   -0.028650  -0.017252   0.000000   0.000002   0.000000   0.000000
    25  H    0.584884  -0.016507   0.000000   0.000000   0.000000   0.000000
    26  H   -0.016507   0.564057   0.000001  -0.000038   0.000000   0.000000
    27  O    0.000000   0.000001   7.704363   0.271659   0.242405  -0.029940
    28  H    0.000000  -0.000038   0.271659   0.361740  -0.009130  -0.000265
    29  C    0.000000   0.000000   0.242405  -0.009130   4.558877   0.395303
    30  H    0.000000   0.000000  -0.029940  -0.000265   0.395303   0.622563
    31  H    0.000000   0.000000  -0.022449  -0.004610   0.393440  -0.030762
    32  C    0.000000   0.000000  -0.042439   0.002756   0.426568  -0.032110
    33  H    0.000000   0.000000   0.003371  -0.000057  -0.013382  -0.002432
    34  H    0.000000   0.000000   0.001856   0.000173  -0.021413   0.007609
    35  H    0.000000   0.000000  -0.002082  -0.000440  -0.023408  -0.010552
              31         32         33         34         35
     1  N    0.000005   0.000166  -0.000001  -0.000008  -0.000142
     2  O    0.000001  -0.000022   0.000000   0.000001   0.000023
     3  O   -0.000129  -0.003540   0.000000   0.000051   0.005356
     4  C    0.000016  -0.000049   0.000001   0.000000   0.000079
     5  H    0.000000   0.000000   0.000000   0.000000  -0.000003
     6  H    0.000000   0.000001  -0.000001   0.000000  -0.000003
     7  H    0.003487  -0.002528   0.000072  -0.000051   0.003224
     8  C    0.000000   0.000000   0.000000   0.000000   0.000000
     9  C    0.000000   0.000000   0.000000   0.000000   0.000000
    10  C    0.000000   0.000000   0.000000   0.000000   0.000000
    11  C    0.000002  -0.000002   0.000000   0.000000  -0.000001
    12  C    0.000000   0.000000   0.000000   0.000000   0.000000
    13  C    0.000000   0.000000   0.000000   0.000000   0.000000
    14  H    0.000000   0.000000   0.000000   0.000000   0.000000
    15  H    0.000000   0.000000   0.000000   0.000000   0.000000
    16  H    0.000000   0.000000   0.000000   0.000000   0.000000
    17  H    0.000000   0.000000   0.000000   0.000000   0.000000
    18  C    0.000106   0.000014  -0.000002  -0.000004  -0.000006
    19  C   -0.000014   0.000008   0.000000   0.000001   0.000003
    20  N    0.000000   0.000000   0.000000   0.000000   0.000000
    21  O   -0.000011  -0.000017   0.000000   0.000001  -0.000009
    22  O    0.000155   0.000009   0.000008  -0.000001  -0.000023
    23  C    0.000000   0.000000   0.000000   0.000000   0.000000
    24  H    0.000000   0.000000   0.000000   0.000000   0.000000
    25  H    0.000000   0.000000   0.000000   0.000000   0.000000
    26  H    0.000000   0.000000   0.000000   0.000000   0.000000
    27  O   -0.022449  -0.042439   0.003371   0.001856  -0.002082
    28  H   -0.004610   0.002756  -0.000057   0.000173  -0.000440
    29  C    0.393440   0.426568  -0.013382  -0.021413  -0.023408
    30  H   -0.030762  -0.032110  -0.002432   0.007609  -0.010552
    31  H    0.600075  -0.014471  -0.003781  -0.010379   0.006439
    32  C   -0.014471   4.602696   0.387187   0.390602   0.400596
    33  H   -0.003781   0.387187   0.586340  -0.014945  -0.015786
    34  H   -0.010379   0.390602  -0.014945   0.603524  -0.025745
    35  H    0.006439   0.400596  -0.015786  -0.025745   0.596124
 Mulliken charges:
               1
     1  N    0.230258
     2  O   -0.328827
     3  O   -0.451445
     4  C    0.005535
     5  H    0.087695
     6  H    0.078803
     7  H    0.260664
     8  C   -0.013670
     9  C   -0.081316
    10  C    0.164040
    11  C    0.020404
    12  C   -0.033493
    13  C   -0.030874
    14  H    0.050776
    15  H    0.029483
    16  H    0.037992
    17  H    0.043393
    18  C    0.010600
    19  C    0.233803
    20  N   -0.336911
    21  O   -0.256464
    22  O   -0.345623
    23  C    0.059824
    24  H    0.081086
    25  H    0.080141
    26  H    0.080417
    27  O   -0.276543
    28  H    0.280180
    29  C    0.072670
    30  H    0.071453
    31  H    0.082881
    32  C   -0.115426
    33  H    0.073409
    34  H    0.068728
    35  H    0.066356
 Sum of Mulliken charges =   0.00000
 Mulliken charges with hydrogens summed into heavy atoms:
               1
     1  N    0.230258
     2  O   -0.328827
     3  O   -0.451445
     4  C    0.172034
     8  C    0.037106
     9  C   -0.051832
    10  C    0.164040
    11  C    0.020404
    12  C    0.004499
    13  C    0.012520
    18  C    0.010600
    19  C    0.233803
    20  N   -0.336911
    21  O   -0.256464
    22  O   -0.345623
    23  C    0.301467
    27  O    0.264301
    29  C    0.227004
    32  C    0.093068
 APT charges:
               1
     1  N    2.028966
     2  O   -1.054261
     3  O   -1.285671
     4  C   -1.047070
     5  H    0.118271
     6  H    0.141895
     7  H    0.759351
     8  C    0.103390
     9  C   -0.254517
    10  C    0.626256
    11  C   -0.475027
    12  C    0.158620
    13  C   -0.264919
    14  H    0.061674
    15  H    0.089982
    16  H    0.080403
    17  H    0.059917
    18  C    1.695004
    19  C    1.152656
    20  N   -1.178563
    21  O   -0.936105
    22  O   -1.312011
    23  C    0.366880
    24  H   -0.004966
    25  H   -0.003295
    26  H    0.068002
    27  O   -1.180555
    28  H    0.821867
    29  C    0.687899
    30  H   -0.025042
    31  H   -0.021598
    32  C   -0.045805
    33  H    0.026344
    34  H    0.013018
    35  H    0.029009
 Sum of APT charges =   0.00000
 APT charges with hydrogens summed into heavy atoms:
               1
     1  N    2.028966
     2  O   -1.054261
     3  O   -1.285671
     4  C   -0.786904
     8  C    0.165064
     9  C   -0.164535
    10  C    0.626256
    11  C   -0.475027
    12  C    0.239024
    13  C   -0.205003
    18  C    1.695004
    19  C    1.152656
    20  N   -1.178563
    21  O   -0.936105
    22  O   -1.312011
    23  C    0.426622
    27  O    0.400663
    29  C    0.641259
    32  C    0.022566
 Electronic spatial extent (au):  <R**2>=           5295.3620
 Charge=              0.0000 electrons
 Dipole moment (field-independent basis, Debye):
    X=             -4.3322    Y=             -3.9802    Z=             -0.8197  Tot=              5.9398
 Quadrupole moment (field-independent basis, Debye-Ang):
   XX=            -82.1450   YY=           -108.6105   ZZ=           -115.6409
   XY=            -16.5242   XZ=             -6.2150   YZ=             -4.3748
 Traceless Quadrupole moment (field-independent basis, Debye-Ang):
   XX=             19.9871   YY=             -6.4783   ZZ=            -13.5087
   XY=            -16.5242   XZ=             -6.2150   YZ=             -4.3748
 Octapole moment (field-independent basis, Debye-Ang**2):
  XXX=             40.2409  YYY=             -9.2211  ZZZ=             -3.2131  XYY=            -18.9775
  XXY=            -31.7631  XXZ=            -18.4072  XZZ=             11.3231  YZZ=             -0.8173
  YYZ=             -5.5035  XYZ=             12.9862
 Hexadecapole moment (field-independent basis, Debye-Ang**3):
 XXXX=          -4094.9621 YYYY=          -1326.3495 ZZZZ=           -661.7970 XXXY=           -153.7348
 XXXZ=           -113.5744 YYYX=            -55.4371 YYYZ=            -42.2862 ZZZX=             -5.8553
 ZZZY=             11.8593 XXYY=           -918.4467 XXZZ=           -966.1970 YYZZ=           -358.1532
 XXYZ=            -15.4663 YYXZ=            -19.5415 ZZXY=            -40.6540
 N-N= 1.552399267896D+03 E-N=-5.324785464729D+03  KE= 9.427844463372D+02
  Exact polarizability: 302.278  28.981 234.754   2.431   2.167 158.829
 Approx polarizability: 263.700  22.591 236.773  -4.219   4.330 159.942
 ******************************Gaussian NBO Version 3.1******************************
             N A T U R A L   A T O M I C   O R B I T A L   A N D
          N A T U R A L   B O N D   O R B I T A L   A N A L Y S I S
 ******************************Gaussian NBO Version 3.1******************************
       /RESON  / : Allow strongly delocalized NBO set

 Analyzing the SCF density

 Job title: MeNO2 + isatin TS4 freq                                         

 Storage needed:    363204 in NPA,    481141 in NBO (  33547957 available)


 NATURAL POPULATIONS:  Natural atomic orbital occupancies 
                                                          
   NAO  Atom  No  lang   Type(AO)    Occupancy      Energy
 ----------------------------------------------------------
     1    N    1  S      Cor( 1S)     1.99920     -14.83224
     2    N    1  S      Val( 2S)     1.05856      -0.50930
     3    N    1  S      Ryd( 3S)     0.00464       0.89885
     4    N    1  px     Val( 2p)     1.15897      -0.31632
     5    N    1  px     Ryd( 3p)     0.00952       1.05936
     6    N    1  py     Val( 2p)     1.06802      -0.28085
     7    N    1  py     Ryd( 3p)     0.01442       1.07151
     8    N    1  pz     Val( 2p)     1.19897      -0.32633
     9    N    1  pz     Ryd( 3p)     0.00230       0.90646
    10    N    1  dxy    Ryd( 3d)     0.00485       2.82346
    11    N    1  dxz    Ryd( 3d)     0.00239       2.33315
    12    N    1  dyz    Ryd( 3d)     0.00439       2.34498
    13    N    1  dx2y2  Ryd( 3d)     0.00338       2.85969
    14    N    1  dz2    Ryd( 3d)     0.00094       2.63055

    15    O    2  S      Cor( 1S)     1.99976     -19.43196
    16    O    2  S      Val( 2S)     1.71877      -0.94076
    17    O    2  S      Ryd( 3S)     0.00299       1.30819
    18    O    2  px     Val( 2p)     1.89370      -0.36158
    19    O    2  px     Ryd( 3p)     0.00315       1.13983
    20    O    2  py     Val( 2p)     1.30869      -0.28535
    21    O    2  py     Ryd( 3p)     0.00114       1.09264
    22    O    2  pz     Val( 2p)     1.52001      -0.30908
    23    O    2  pz     Ryd( 3p)     0.00321       1.12882
    24    O    2  dxy    Ryd( 3d)     0.00167       3.02407
    25    O    2  dxz    Ryd( 3d)     0.00002       2.71839
    26    O    2  dyz    Ryd( 3d)     0.00244       2.90334
    27    O    2  dx2y2  Ryd( 3d)     0.00153       3.27961
    28    O    2  dz2    Ryd( 3d)     0.00047       2.89996

    29    O    3  S      Cor( 1S)     1.99977     -19.45519
    30    O    3  S      Val( 2S)     1.71388      -0.94499
    31    O    3  S      Ryd( 3S)     0.00310       1.41322
    32    O    3  px     Val( 2p)     1.42456      -0.30552
    33    O    3  px     Ryd( 3p)     0.00179       1.21294
    34    O    3  py     Val( 2p)     1.79170      -0.35672
    35    O    3  py     Ryd( 3p)     0.00280       1.16264
    36    O    3  pz     Val( 2p)     1.68401      -0.34670
    37    O    3  pz     Ryd( 3p)     0.00230       1.28765
    38    O    3  dxy    Ryd( 3d)     0.00144       3.14503
    39    O    3  dxz    Ryd( 3d)     0.00109       2.87103
    40    O    3  dyz    Ryd( 3d)     0.00042       2.75241
    41    O    3  dx2y2  Ryd( 3d)     0.00121       3.05722
    42    O    3  dz2    Ryd( 3d)     0.00054       3.02962

    43    C    4  S      Cor( 1S)     1.99925     -10.48233
    44    C    4  S      Val( 2S)     1.07076      -0.26181
    45    C    4  S      Ryd( 3S)     0.00608       0.85532
    46    C    4  px     Val( 2p)     0.98149      -0.07259
    47    C    4  px     Ryd( 3p)     0.00650       0.69142
    48    C    4  py     Val( 2p)     1.12840      -0.08553
    49    C    4  py     Ryd( 3p)     0.00571       0.81050
    50    C    4  pz     Val( 2p)     1.13427      -0.14158
    51    C    4  pz     Ryd( 3p)     0.00939       0.65988
    52    C    4  dxy    Ryd( 3d)     0.00124       2.46105
    53    C    4  dxz    Ryd( 3d)     0.00087       2.08707
    54    C    4  dyz    Ryd( 3d)     0.00056       2.12560
    55    C    4  dx2y2  Ryd( 3d)     0.00037       2.47092
    56    C    4  dz2    Ryd( 3d)     0.00049       2.19829

    57    H    5  S      Val( 1S)     0.76075       0.08588
    58    H    5  S      Ryd( 2S)     0.00186       0.38801
    59    H    5  px     Ryd( 2p)     0.00059       2.21728
    60    H    5  py     Ryd( 2p)     0.00026       1.99344
    61    H    5  pz     Ryd( 2p)     0.00014       1.85999

    62    H    6  S      Val( 1S)     0.75128       0.09099
    63    H    6  S      Ryd( 2S)     0.00177       0.37745
    64    H    6  px     Ryd( 2p)     0.00007       1.88210
    65    H    6  py     Ryd( 2p)     0.00079       2.35048
    66    H    6  pz     Ryd( 2p)     0.00015       1.83650

    67    H    7  S      Val( 1S)     0.44789       0.12102
    68    H    7  S      Ryd( 2S)     0.00581       0.61627
    69    H    7  px     Ryd( 2p)     0.00078       1.85216
    70    H    7  py     Ryd( 2p)     0.00096       1.91236
    71    H    7  pz     Ryd( 2p)     0.00190       2.49597

    72    C    8  S      Cor( 1S)     1.99903     -10.44207
    73    C    8  S      Val( 2S)     0.94517      -0.16461
    74    C    8  S      Ryd( 3S)     0.00108       0.60284
    75    C    8  px     Val( 2p)     1.20002      -0.08366
    76    C    8  px     Ryd( 3p)     0.00625       1.04271
    77    C    8  py     Val( 2p)     1.06200      -0.06082
    78    C    8  py     Ryd( 3p)     0.00399       0.68501
    79    C    8  pz     Val( 2p)     0.96885      -0.11623
    80    C    8  pz     Ryd( 3p)     0.00105       0.61122
    81    C    8  dxy    Ryd( 3d)     0.00060       2.40705
    82    C    8  dxz    Ryd( 3d)     0.00040       1.98358
    83    C    8  dyz    Ryd( 3d)     0.00064       2.02680
    84    C    8  dx2y2  Ryd( 3d)     0.00067       2.51389
    85    C    8  dz2    Ryd( 3d)     0.00037       2.19532

    86    C    9  S      Cor( 1S)     1.99894     -10.43509
    87    C    9  S      Val( 2S)     0.92905      -0.15128
    88    C    9  S      Ryd( 3S)     0.00150       0.56669
    89    C    9  px     Val( 2p)     1.10396      -0.07242
    90    C    9  px     Ryd( 3p)     0.00436       0.78633
    91    C    9  py     Val( 2p)     1.18015      -0.09400
    92    C    9  py     Ryd( 3p)     0.00466       0.97286
    93    C    9  pz     Val( 2p)     1.04555      -0.12490
    94    C    9  pz     Ryd( 3p)     0.00163       0.60996
    95    C    9  dxy    Ryd( 3d)     0.00050       2.50477
    96    C    9  dxz    Ryd( 3d)     0.00049       2.01891
    97    C    9  dyz    Ryd( 3d)     0.00046       2.00970
    98    C    9  dx2y2  Ryd( 3d)     0.00068       2.44727
    99    C    9  dz2    Ryd( 3d)     0.00040       2.20015

   100    C   10  S      Cor( 1S)     1.99888     -10.47776
   101    C   10  S      Val( 2S)     0.79140      -0.10010
   102    C   10  S      Ryd( 3S)     0.00244       0.60115
   103    C   10  px     Val( 2p)     1.06652      -0.09040
   104    C   10  px     Ryd( 3p)     0.00419       1.02589
   105    C   10  py     Val( 2p)     0.93136      -0.05537
   106    C   10  py     Ryd( 3p)     0.00579       0.95163
   107    C   10  pz     Val( 2p)     0.97363      -0.12952
   108    C   10  pz     Ryd( 3p)     0.00150       0.66170
   109    C   10  dxy    Ryd( 3d)     0.00110       2.46944
   110    C   10  dxz    Ryd( 3d)     0.00111       2.00468
   111    C   10  dyz    Ryd( 3d)     0.00102       1.98713
   112    C   10  dx2y2  Ryd( 3d)     0.00076       2.41534
   113    C   10  dz2    Ryd( 3d)     0.00069       2.17159

   114    C   11  S      Cor( 1S)     1.99879     -10.43061
   115    C   11  S      Val( 2S)     0.84362      -0.11264
   116    C   11  S      Ryd( 3S)     0.00284       0.68659
   117    C   11  px     Val( 2p)     1.09252      -0.10415
   118    C   11  px     Ryd( 3p)     0.00566       1.10865
   119    C   11  py     Val( 2p)     1.12314      -0.10570
   120    C   11  py     Ryd( 3p)     0.00492       1.02840
   121    C   11  pz     Val( 2p)     1.09250      -0.13324
   122    C   11  pz     Ryd( 3p)     0.00227       0.73286
   123    C   11  dxy    Ryd( 3d)     0.00065       2.49257
   124    C   11  dxz    Ryd( 3d)     0.00038       1.99321
   125    C   11  dyz    Ryd( 3d)     0.00063       2.02529
   126    C   11  dx2y2  Ryd( 3d)     0.00063       2.39429
   127    C   11  dz2    Ryd( 3d)     0.00045       2.21383

   128    C   12  S      Cor( 1S)     1.99894     -10.43955
   129    C   12  S      Val( 2S)     0.93038      -0.14858
   130    C   12  S      Ryd( 3S)     0.00135       0.59042
   131    C   12  px     Val( 2p)     1.12099      -0.07360
   132    C   12  px     Ryd( 3p)     0.00581       0.82176
   133    C   12  py     Val( 2p)     1.15308      -0.07599
   134    C   12  py     Ryd( 3p)     0.00539       0.89505
   135    C   12  pz     Val( 2p)     0.95632      -0.11463
   136    C   12  pz     Ryd( 3p)     0.00116       0.60079
   137    C   12  dxy    Ryd( 3d)     0.00066       2.50201
   138    C   12  dxz    Ryd( 3d)     0.00057       2.00048
   139    C   12  dyz    Ryd( 3d)     0.00048       2.03246
   140    C   12  dx2y2  Ryd( 3d)     0.00058       2.45302
   141    C   12  dz2    Ryd( 3d)     0.00039       2.20268

   142    C   13  S      Cor( 1S)     1.99901     -10.43278
   143    C   13  S      Val( 2S)     0.94146      -0.15697
   144    C   13  S      Ryd( 3S)     0.00108       0.60218
   145    C   13  px     Val( 2p)     1.08819      -0.06166
   146    C   13  px     Ryd( 3p)     0.00454       0.75552
   147    C   13  py     Val( 2p)     1.17267      -0.07871
   148    C   13  py     Ryd( 3p)     0.00551       0.95918
   149    C   13  pz     Val( 2p)     1.03739      -0.11888
   150    C   13  pz     Ryd( 3p)     0.00157       0.62509
   151    C   13  dxy    Ryd( 3d)     0.00062       2.48379
   152    C   13  dxz    Ryd( 3d)     0.00050       2.00544
   153    C   13  dyz    Ryd( 3d)     0.00043       2.01478
   154    C   13  dx2y2  Ryd( 3d)     0.00062       2.45128
   155    C   13  dz2    Ryd( 3d)     0.00036       2.20293

   156    H   14  S      Val( 1S)     0.75278       0.10973
   157    H   14  S      Ryd( 2S)     0.00145       0.34783
   158    H   14  px     Ryd( 2p)     0.00084       2.38819
   159    H   14  py     Ryd( 2p)     0.00006       2.00831
   160    H   14  pz     Ryd( 2p)     0.00010       1.71797

   161    H   15  S      Val( 1S)     0.74281       0.10315
   162    H   15  S      Ryd( 2S)     0.00125       0.37778
   163    H   15  px     Ryd( 2p)     0.00032       2.13595
   164    H   15  py     Ryd( 2p)     0.00058       2.28425
   165    H   15  pz     Ryd( 2p)     0.00010       1.72352

   166    H   16  S      Val( 1S)     0.74642       0.10505
   167    H   16  S      Ryd( 2S)     0.00204       0.34978
   168    H   16  px     Ryd( 2p)     0.00034       2.14460
   169    H   16  py     Ryd( 2p)     0.00060       2.26525
   170    H   16  pz     Ryd( 2p)     0.00010       1.72414

   171    H   17  S      Val( 1S)     0.75334       0.11225
   172    H   17  S      Ryd( 2S)     0.00141       0.34851
   173    H   17  px     Ryd( 2p)     0.00021       2.08821
   174    H   17  py     Ryd( 2p)     0.00065       2.29934
   175    H   17  pz     Ryd( 2p)     0.00014       1.73382

   176    C   18  S      Cor( 1S)     1.99894     -10.55381
   177    C   18  S      Val( 2S)     0.82577      -0.16931
   178    C   18  S      Ryd( 3S)     0.00837       0.81096
   179    C   18  px     Val( 2p)     0.89104      -0.06025
   180    C   18  px     Ryd( 3p)     0.01252       0.78018
   181    C   18  py     Val( 2p)     0.96455      -0.08951
   182    C   18  py     Ryd( 3p)     0.01305       0.79397
   183    C   18  pz     Val( 2p)     0.80322      -0.12452
   184    C   18  pz     Ryd( 3p)     0.00332       0.71239
   185    C   18  dxy    Ryd( 3d)     0.00170       2.36293
   186    C   18  dxz    Ryd( 3d)     0.00197       2.03691
   187    C   18  dyz    Ryd( 3d)     0.00153       2.02275
   188    C   18  dx2y2  Ryd( 3d)     0.00321       2.36048
   189    C   18  dz2    Ryd( 3d)     0.00139       2.14228

   190    C   19  S      Cor( 1S)     1.99910     -10.55350
   191    C   19  S      Val( 2S)     0.75206      -0.12123
   192    C   19  S      Ryd( 3S)     0.01008       0.66624
   193    C   19  px     Val( 2p)     0.76139       0.01832
   194    C   19  px     Ryd( 3p)     0.01574       0.71816
   195    C   19  py     Val( 2p)     0.93790      -0.07344
   196    C   19  py     Ryd( 3p)     0.01277       0.72012
   197    C   19  pz     Val( 2p)     0.80241      -0.11805
   198    C   19  pz     Ryd( 3p)     0.00514       0.64780
   199    C   19  dxy    Ryd( 3d)     0.00187       2.38994
   200    C   19  dxz    Ryd( 3d)     0.00340       2.06893
   201    C   19  dyz    Ryd( 3d)     0.00125       2.01554
   202    C   19  dx2y2  Ryd( 3d)     0.00423       2.39594
   203    C   19  dz2    Ryd( 3d)     0.00147       2.13116

   204    N   20  S      Cor( 1S)     1.99902     -14.64839
   205    N   20  S      Val( 2S)     1.16783      -0.52277
   206    N   20  S      Ryd( 3S)     0.00134       1.26363
   207    N   20  px     Val( 2p)     1.36083      -0.31548
   208    N   20  px     Ryd( 3p)     0.00134       1.36899
   209    N   20  py     Val( 2p)     1.35564      -0.31488
   210    N   20  py     Ryd( 3p)     0.00152       1.50089
   211    N   20  pz     Val( 2p)     1.62043      -0.31523
   212    N   20  pz     Ryd( 3p)     0.00300       1.02610
   213    N   20  dxy    Ryd( 3d)     0.00075       2.79364
   214    N   20  dxz    Ryd( 3d)     0.00046       2.38219
   215    N   20  dyz    Ryd( 3d)     0.00068       2.40218
   216    N   20  dx2y2  Ryd( 3d)     0.00068       2.76046
   217    N   20  dz2    Ryd( 3d)     0.00054       2.57721

   218    O   21  S      Cor( 1S)     1.99973     -19.37684
   219    O   21  S      Val( 2S)     1.67255      -0.95295
   220    O   21  S      Ryd( 3S)     0.00128       1.69862
   221    O   21  px     Val( 2p)     1.69840      -0.37311
   222    O   21  px     Ryd( 3p)     0.00174       1.20225
   223    O   21  py     Val( 2p)     1.76087      -0.35860
   224    O   21  py     Ryd( 3p)     0.00226       1.23297
   225    O   21  pz     Val( 2p)     1.48492      -0.30734
   226    O   21  pz     Ryd( 3p)     0.00142       1.16790
   227    O   21  dxy    Ryd( 3d)     0.00125       3.21957
   228    O   21  dxz    Ryd( 3d)     0.00127       2.96006
   229    O   21  dyz    Ryd( 3d)     0.00077       2.85625
   230    O   21  dx2y2  Ryd( 3d)     0.00144       3.03840
   231    O   21  dz2    Ryd( 3d)     0.00076       2.88806

   232    O   22  S      Cor( 1S)     1.99967     -19.40766
   233    O   22  S      Val( 2S)     1.64738      -0.95960
   234    O   22  S      Ryd( 3S)     0.00120       1.63505
   235    O   22  px     Val( 2p)     1.63581      -0.38144
   236    O   22  px     Ryd( 3p)     0.00139       1.41218
   237    O   22  py     Val( 2p)     1.79986      -0.39330
   238    O   22  py     Ryd( 3p)     0.00327       1.23651
   239    O   22  pz     Val( 2p)     1.59078      -0.34061
   240    O   22  pz     Ryd( 3p)     0.00213       1.20505
   241    O   22  dxy    Ryd( 3d)     0.00114       3.26727
   242    O   22  dxz    Ryd( 3d)     0.00068       2.92777
   243    O   22  dyz    Ryd( 3d)     0.00090       2.83317
   244    O   22  dx2y2  Ryd( 3d)     0.00108       2.97196
   245    O   22  dz2    Ryd( 3d)     0.00054       2.92897

   246    C   23  S      Cor( 1S)     1.99937     -10.48243
   247    C   23  S      Val( 2S)     1.06637      -0.24766
   248    C   23  S      Ryd( 3S)     0.00122       0.85052
   249    C   23  px     Val( 2p)     1.21291      -0.10859
   250    C   23  px     Ryd( 3p)     0.00394       0.63832
   251    C   23  py     Val( 2p)     0.88869      -0.06046
   252    C   23  py     Ryd( 3p)     0.00276       0.55792
   253    C   23  pz     Val( 2p)     1.22721      -0.10794
   254    C   23  pz     Ryd( 3p)     0.00213       0.60063
   255    C   23  dxy    Ryd( 3d)     0.00063       2.36120
   256    C   23  dxz    Ryd( 3d)     0.00071       2.43355
   257    C   23  dyz    Ryd( 3d)     0.00063       2.17389
   258    C   23  dx2y2  Ryd( 3d)     0.00072       2.25499
   259    C   23  dz2    Ryd( 3d)     0.00058       2.29975

   260    H   24  S      Val( 1S)     0.77252       0.08229
   261    H   24  S      Ryd( 2S)     0.00127       0.38269
   262    H   24  px     Ryd( 2p)     0.00040       2.09784
   263    H   24  py     Ryd( 2p)     0.00006       1.74964
   264    H   24  pz     Ryd( 2p)     0.00050       2.12621

   265    H   25  S      Val( 1S)     0.77183       0.08253
   266    H   25  S      Ryd( 2S)     0.00125       0.38352
   267    H   25  px     Ryd( 2p)     0.00020       1.92780
   268    H   25  py     Ryd( 2p)     0.00016       1.84154
   269    H   25  pz     Ryd( 2p)     0.00060       2.20714

   270    H   26  S      Val( 1S)     0.75448       0.09110
   271    H   26  S      Ryd( 2S)     0.00280       0.38735
   272    H   26  px     Ryd( 2p)     0.00052       2.15631
   273    H   26  py     Ryd( 2p)     0.00030       1.97930
   274    H   26  pz     Ryd( 2p)     0.00015       1.83251

   275    O   27  S      Cor( 1S)     1.99976     -19.49467
   276    O   27  S      Val( 2S)     1.64660      -1.02562
   277    O   27  S      Ryd( 3S)     0.00096       1.58252
   278    O   27  px     Val( 2p)     1.63230      -0.42568
   279    O   27  px     Ryd( 3p)     0.00097       1.31015
   280    O   27  py     Val( 2p)     1.68234      -0.42634
   281    O   27  py     Ryd( 3p)     0.00109       1.23215
   282    O   27  pz     Val( 2p)     1.81030      -0.45209
   283    O   27  pz     Ryd( 3p)     0.00120       1.22432
   284    O   27  dxy    Ryd( 3d)     0.00097       3.16205
   285    O   27  dxz    Ryd( 3d)     0.00042       2.87222
   286    O   27  dyz    Ryd( 3d)     0.00075       2.96763
   287    O   27  dx2y2  Ryd( 3d)     0.00055       2.98755
   288    O   27  dz2    Ryd( 3d)     0.00116       3.21203

   289    H   28  S      Val( 1S)     0.43955       0.13367
   290    H   28  S      Ryd( 2S)     0.00479       0.62056
   291    H   28  px     Ryd( 2p)     0.00199       2.50213
   292    H   28  py     Ryd( 2p)     0.00075       1.97939
   293    H   28  pz     Ryd( 2p)     0.00085       1.81834

   294    C   29  S      Cor( 1S)     1.99918     -10.51326
   295    C   29  S      Val( 2S)     1.01722      -0.25599
   296    C   29  S      Ryd( 3S)     0.00137       0.81193
   297    C   29  px     Val( 2p)     0.92626      -0.08831
   298    C   29  px     Ryd( 3p)     0.00141       0.59230
   299    C   29  py     Val( 2p)     0.89508      -0.07799
   300    C   29  py     Ryd( 3p)     0.00220       0.56740
   301    C   29  pz     Val( 2p)     1.20933      -0.10871
   302    C   29  pz     Ryd( 3p)     0.00264       0.68129
   303    C   29  dxy    Ryd( 3d)     0.00179       2.29379
   304    C   29  dxz    Ryd( 3d)     0.00077       2.18314
   305    C   29  dyz    Ryd( 3d)     0.00108       2.37038
   306    C   29  dx2y2  Ryd( 3d)     0.00099       2.11778
   307    C   29  dz2    Ryd( 3d)     0.00096       2.28268

   308    H   30  S      Val( 1S)     0.78733       0.08108
   309    H   30  S      Ryd( 2S)     0.00281       0.38547
   310    H   30  px     Ryd( 2p)     0.00020       1.87860
   311    H   30  py     Ryd( 2p)     0.00041       2.06367
   312    H   30  pz     Ryd( 2p)     0.00041       2.05798

   313    H   31  S      Val( 1S)     0.77780       0.09113
   314    H   31  S      Ryd( 2S)     0.00205       0.35551
   315    H   31  px     Ryd( 2p)     0.00009       1.81256
   316    H   31  py     Ryd( 2p)     0.00024       1.92443
   317    H   31  pz     Ryd( 2p)     0.00070       2.26563

   318    C   32  S      Cor( 1S)     1.99931     -10.43641
   319    C   32  S      Val( 2S)     1.09578      -0.26065
   320    C   32  S      Ryd( 3S)     0.00063       0.85614
   321    C   32  px     Val( 2p)     1.12262      -0.09421
   322    C   32  px     Ryd( 3p)     0.00174       0.56169
   323    C   32  py     Val( 2p)     1.22258      -0.09602
   324    C   32  py     Ryd( 3p)     0.00153       0.61537
   325    C   32  pz     Val( 2p)     1.21929      -0.09471
   326    C   32  pz     Ryd( 3p)     0.00146       0.60958
   327    C   32  dxy    Ryd( 3d)     0.00057       2.40241
   328    C   32  dxz    Ryd( 3d)     0.00034       2.21116
   329    C   32  dyz    Ryd( 3d)     0.00056       2.40412
   330    C   32  dx2y2  Ryd( 3d)     0.00025       2.16728
   331    C   32  dz2    Ryd( 3d)     0.00045       2.32430

   332    H   33  S      Val( 1S)     0.75827       0.09628
   333    H   33  S      Ryd( 2S)     0.00089       0.37968
   334    H   33  px     Ryd( 2p)     0.00039       2.03986
   335    H   33  py     Ryd( 2p)     0.00044       2.11602
   336    H   33  pz     Ryd( 2p)     0.00014       1.81786

   337    H   34  S      Val( 1S)     0.76973       0.09401
   338    H   34  S      Ryd( 2S)     0.00202       0.38193
   339    H   34  px     Ryd( 2p)     0.00019       1.89452
   340    H   34  py     Ryd( 2p)     0.00040       2.06622
   341    H   34  pz     Ryd( 2p)     0.00035       2.02501

   342    H   35  S      Val( 1S)     0.77059       0.09199
   343    H   35  S      Ryd( 2S)     0.00153       0.41582
   344    H   35  px     Ryd( 2p)     0.00011       1.78986
   345    H   35  py     Ryd( 2p)     0.00024       1.91945
   346    H   35  pz     Ryd( 2p)     0.00061       2.27911

 WARNING:  1 low occupancy (<1.9990e) core orbital  found on  C    9
           1 low occupancy (<1.9990e) core orbital  found on  C   10
           1 low occupancy (<1.9990e) core orbital  found on  C   11
           1 low occupancy (<1.9990e) core orbital  found on  C   12
           1 low occupancy (<1.9990e) core orbital  found on  C   18


 Summary of Natural Population Analysis:                  
                                                          
                                       Natural Population 
                Natural  -----------------------------------------------
    Atom  No    Charge         Core      Valence    Rydberg      Total
 -----------------------------------------------------------------------
      N    1    0.46945      1.99920     4.48453    0.04683     6.53055
      O    2   -0.45754      1.99976     6.44116    0.01663     8.45754
      O    3   -0.62862      1.99977     6.61416    0.01469     8.62862
      C    4   -0.34539      1.99925     4.31492    0.03122     6.34539
      H    5    0.23640      0.00000     0.76075    0.00285     0.76360
      H    6    0.24594      0.00000     0.75128    0.00278     0.75406
      H    7    0.54267      0.00000     0.44789    0.00944     0.45733
      C    8   -0.19013      1.99903     4.17605    0.01505     6.19013
      C    9   -0.27232      1.99894     4.25871    0.01467     6.27232
      C   10    0.21961      1.99888     3.76291    0.01859     5.78039
      C   11   -0.16900      1.99879     4.15178    0.01843     6.16900
      C   12   -0.17610      1.99894     4.16077    0.01639     6.17610
      C   13   -0.25396      1.99901     4.23971    0.01523     6.25396
      H   14    0.24478      0.00000     0.75278    0.00245     0.75522
[...]
 0.07236457,-0.15624508,0.10446167,0.07365146,0.17669818,0.00096107,-0.
 00014876,-0.00000261,-0.00013518,0.00002772,0.00000769,-0.00081343,0.0
 0037079,0.00083173,-0.00033080,-0.00016643,-0.00023058,-0.00000545,-0.
 00001024,0.00001556,0.00002922,0.00002965,0.00003244,0.00004548,-0.000
 95500,-0.00126927,-0.00000591,0.00000180,0.00000050,-0.00000423,-0.000
 00754,0.00000483,0.00000361,0.00004180,-0.00001702,0.00001527,0.000008
 73,-0.00002080,-0.00000242,0.00000239,-0.00000218,0.00000110,-0.000000
 91,0.00000193,-0.00000089,-0.00000062,-0.00000028,-0.00000013,0.000000
 70,0.00000025,0.00000030,-0.00000174,-0.00000162,-0.00000088,-0.000000
 50,0.00000047,-0.00016992,0.00020355,0.00039850,0.00013662,-0.00004175
 ,-0.00006711,-0.00008166,-0.00002450,0.00002504,-0.00012173,0.00003351
 ,-0.00000160,-0.00012915,-0.00063268,-0.00010634,0.00000521,-0.0000111
 7,0.00000698,-0.00000182,0.00000141,-0.00000094,-0.00000103,0.00000327
 ,-0.00000018,0.00000162,-0.00000086,-0.00000012,-0.00355166,0.00392752
 ,0.00183307,0.00104665,0.00142615,-0.00004002,0.07644298,0.11039790,-0
 .17012445,-0.07775388,-0.12153157,0.17204580,0.00159893,-0.00059219,-0
 .00021755,-0.00016836,0.00026554,0.00006569,-0.00135930,0.00041889,0.0
 0228336,-0.00038798,-0.00017156,-0.00025829,0.00000160,-0.00000738,0.0
 0002643,0.00000155,0.00002471,0.00003156,-0.00126887,0.00110941,-0.004
 90368,-0.00001702,-0.00001542,0.00000501,-0.00000995,-0.00001062,0.000
 00798,0.00000087,0.00002954,-0.00001339,-0.00009146,-0.00001750,0.0000
 0616,0.00002355,0.00004943,-0.00001741,-0.00003439,0.00001249,0.000005
 57,-0.00000298,-0.00000172,-0.00000033,-0.00000383,0.00000293,0.000000
 61,0.00000425,-0.00000181,-0.00000299,-0.00000579,-0.00000314,0.000002
 05,0.00021187,0.00008202,0.00016924,0.00026567,-0.00010131,-0.00000735
 ,-0.00015268,0.00002743,0.00001796,-0.00021466,0.00009105,-0.00008457,
 -0.00050908,-0.00043209,-0.00006866,0.00000726,-0.00004544,0.00001277,
 -0.00000883,0.00000912,-0.00000212,-0.00000690,0.00001079,0.00000073,0
 .00000517,-0.00000268,-0.00000049,-0.00876522,0.01964130,0.02226567,0.
 00137801,0.00078258,0.00077258,-0.05213737,0.00706898,0.02252814,0.000
 15050,0.00516149,0.01184625,0.06019941,-0.00142062,0.00072892,0.000086
 89,0.00012024,-0.00023500,-0.00002824,0.00131886,-0.00036885,-0.002764
 42,0.00040927,0.00012030,0.00020409,-0.00000051,0.00001120,-0.00002122
 ,0.00000262,-0.00003583,-0.00004010,0.00152279,-0.00114392,0.00625905,
 0.00001715,0.00001555,-0.00000510,0.00001338,0.00001021,-0.00000600,-0
 .00000199,-0.00002961,0.00001592,0.00010306,0.00000136,-0.00004281,-0.
 00002403,-0.00005680,0.00002047,0.00003695,-0.00001025,-0.00000524,0.0
 0000368,0.00000199,0.00000008,0.00000461,-0.00000327,-0.00000087,-0.00
 000604,0.00000124,0.00000280,0.00000689,0.00000359,-0.00000213,-0.0003
 7741,0.00006854,-0.00007129,-0.00031831,0.00008900,0.00003480,0.000176
 59,-0.00004243,-0.00002076,0.00027314,-0.00011783,0.00007432,0.0010139
 6,0.00031513,-0.00016948,-0.00000668,0.00005499,-0.00001397,0.00001078
 ,-0.00001135,0.00000261,0.00000845,-0.00001279,-0.00000103,-0.00000657
 ,0.00000372,0.00000044,0.01234007,-0.02133309,-0.02691479,-0.00215153,
 -0.00072230,-0.00011055,0.00885263,-0.09741262,-0.09873614,-0.00218784
 ,0.01115679,0.01733153,-0.01897669,0.11152863,-0.00003211,0.00000020,0
 .00010662,0.00006119,-0.00005400,-0.00001385,0.00006340,-0.00014771,0.
 00033131,-0.00000567,-0.00003732,-0.00005464,0.00000525,0.00000169,-0.
 00000859,-0.00000162,0.00000285,0.00001273,-0.00093550,0.00137658,0.00
 017188,0.00000209,0.00000019,0.00000014,0.00000465,0.00000397,0.000001
 59,-0.00000302,0.00000228,-0.00000017,0.00002612,-0.00000205,-0.000033
 09,-0.00000358,-0.00001205,0.00000449,0.00000524,-0.00000083,0.0000012
 1,0.00000059,0.00000028,-0.00000057,0.00000067,-0.00000072,-0.00000035
 ,-0.00000149,-0.00000035,-0.00000123,0.00000161,0.00000098,-0.00000060
 ,-0.00014312,0.00009121,0.00004018,-0.00003810,0.00001990,-0.00000598,
 0.00002282,-0.00000976,-0.00000266,0.00003341,-0.00003441,-0.00000122,
 0.00043986,-0.00003143,-0.00006346,-0.00000077,0.00000754,-0.00000150,
 0.00000150,-0.00000162,0.00000025,0.00000107,-0.00000186,-0.00000035,-
 0.00000111,0.00000043,-0.00000019,-0.00123259,0.00550671,0.01081416,-0
 .00021414,-0.00059029,-0.00014379,0.02869434,-0.10926376,-0.28528210,0
 .00067179,-0.00850025,-0.01423306,-0.02595433,0.11476045,0.29346475,-0
 .00013784,-0.00056545,-0.00005267,0.00002788,0.00019139,-0.00001530,-0
 .00050832,0.00052880,0.00061485,-0.00001955,0.00013108,0.00009058,-0.0
 0000763,-0.00001087,0.00001180,-0.00000657,0.00000746,-0.00001192,0.00
 043025,-0.00076558,-0.00037998,-0.00000948,-0.00001222,0.00000412,-0.0
 0001445,-0.00000149,-0.00000302,-0.00000630,-0.00000537,0.00000005,-0.
 00014685,0.00003170,0.00009855,0.00002516,0.00005191,-0.00001707,-0.00
 003085,0.00000428,0.00000127,-0.00000275,-0.00000124,0.00000081,-0.000
 00489,0.00000215,0.00000045,0.00000833,0.00000099,-0.00000087,-0.00000
 619,-0.00000264,0.00000174,0.00058462,-0.00044831,-0.00034552,0.000229
 09,-0.00006230,0.00000720,-0.00011611,0.00005906,0.00000541,-0.0001837
 1,0.00018588,-0.00003235,-0.00213728,-0.00076732,0.00052708,0.00000274
 ,-0.00004090,0.00000844,-0.00000818,0.00000883,-0.00000215,-0.00000656
 ,0.00000893,0.00000115,0.00000577,-0.00000354,-0.00000037,-0.03596789,
 -0.00048117,-0.01287285,0.00209288,0.00417033,-0.00056052,-0.19005157,
 -0.05262405,-0.04144984,-0.01094681,-0.00512449,-0.00601097,0.00462136
 ,0.00026120,0.00080028,0.53509731,-0.00051129,0.00060370,0.00005927,0.
 00002351,-0.00032351,0.00000055,0.00046074,-0.00028543,-0.00123382,-0.
 00002623,-0.00011121,-0.00012175,-0.00000863,0.00000393,-0.00000978,0.
 00001815,-0.00001369,0.00002458,-0.00065801,0.00223042,0.00353157,0.00
 001616,0.00002035,-0.00000626,0.00002804,0.00000630,0.00000328,0.00000
 259,-0.00000869,0.00000889,0.00025168,-0.00003890,-0.00017322,-0.00004
 108,-0.00009611,0.00003188,0.00005634,-0.00000635,-0.00000413,0.000005
 49,0.00000261,-0.00000147,0.00000844,-0.00000395,-0.00000119,-0.000015
 71,-0.00000010,0.00000219,0.00001114,0.00000540,-0.00000331,-0.0011067
 2,0.00081111,0.00055754,-0.00061738,0.00004446,0.00005982,0.00026414,-
 0.00009937,-0.00002947,0.00047016,-0.00032866,0.00003455,0.00343817,0.
 00153646,-0.00098197,-0.00000384,0.00008262,-0.00001525,0.00001588,-0.
 00001820,0.00000406,0.00001314,-0.00001739,-0.00000182,-0.00001303,0.0
 0000782,0.00000118,0.04435060,0.00719512,0.01282957,-0.00300321,-0.006
 93761,0.00090630,-0.06939427,-0.10907878,-0.02663446,-0.01784552,-0.00
 467762,-0.00953744,-0.01294362,-0.00363375,-0.00267716,-0.02817615,0.5
 9302156,0.00054619,-0.00044365,0.00000456,-0.00010727,0.00003464,0.000
 03366,-0.00110114,0.00054739,0.00041030,-0.00042448,-0.00008160,-0.000
 21542,-0.00002858,-0.00002402,0.00002910,0.00000145,0.00001572,0.00003
 644,0.00202085,0.00037431,0.00092760,-0.00000905,-0.00000114,0.0000018
 3,-0.00000337,-0.00000869,0.00000420,0.00000293,0.00002622,-0.00001226
 ,0.00000248,-0.00000246,-0.00001746,0.00000355,0.00001002,-0.00000425,
 -0.00000540,0.00000426,0.00000169,-0.00000078,-0.00000061,-0.00000032,
 -0.00000026,0.00000104,0.00000032,-0.00000030,-0.00000141,-0.00000200,
 -0.00000122,-0.00000081,0.00000054,-0.00017800,0.00028223,0.00042089,0
 .00003117,-0.00008740,-0.00003973,-0.00005183,-0.00001342,0.00001728,-
 0.00000830,0.00001569,-0.00002375,0.00015038,-0.00045409,-0.00011098,0
 .00000591,-0.00001203,0.00000729,-0.00000216,0.00000145,-0.00000060,-0
 .00000141,0.00000368,-0.00000011,0.00000117,-0.00000061,0.00000010,-0.
 00745034,-0.00060434,0.00000757,0.00038543,0.00067392,-0.00022351,-0.0
 4460834,-0.02037336,-0.10508216,0.01932274,0.00590308,0.00972593,-0.02
 804192,-0.00902387,-0.00709017,-0.02502274,-0.01263484,0.58401382,0.00
 046360,-0.00039101,-0.00003190,-0.00006864,0.00020561,0.00001301,-0.00
 054745,0.00028494,0.00064612,-0.00009610,0.00002658,0.00000720,-0.0000
 0138,-0.00000655,0.00001477,-0.00000698,0.00001142,-0.00000352,0.00073
 801,-0.00082359,-0.00146397,-0.00001064,-0.00001168,0.00000368,-0.0000
 1373,-0.00000561,0.00000086,0.00000086,0.00000369,-0.00000553,-0.00011
 240,0.00001348,0.00006838,0.00002002,0.00004948,-0.00001574,-0.0000293
 8,0.00000580,0.00000250,-0.00000264,-0.00000116,0.00000051,-0.00000420
 ,0.00000255,0.00000062,0.00000691,-0.00000066,-0.00000136,-0.00000539,
 -0.00000229,0.00000146,0.00047162,-0.00030383,-0.00017607,0.00023647,-
 0.00005605,-0.00001047,-0.00012160,0.00004634,0.00001083,-0.00019156,0
 .00012996,-0.00003336,-0.00125552,-0.00038917,0.00028888,0.00000353,-0
 .00004181,0.00000885,-0.00000801,0.00000892,-0.00000195,-0.00000645,0.
 00000906,0.00000085,0.00000577,-0.00000286,-0.00000060,-0.00880983,-0.
 00186309,-0.00232605,0.00176452,0.00200056,-0.00023402,-0.01244768,0.0
 2289739,-0.00002901,0.00063212,-0.00023754,0.00062735,0.00085867,-0.00
 001224,-0.00025794,-0.16310669,0.13595528,-0.02108649,0.17426835,-0.00
 002715,0.00000198,0.00001250,0.00001246,0.00001196,-0.00000437,0.00009
 069,-0.00003465,0.00013926,0.00004305,0.00001283,0.00002376,0.00000471
 ,0.00000216,-0.00000094,-0.00000181,-0.00000044,-0.00000573,-0.0002041
 0,-0.00025889,-0.00044018,-0.00000031,-0.00000045,0.00000026,-0.000002
 25,0.00000004,-0.00000080,-0.00000057,0.00000239,-0.00000082,-0.000020
 18,0.00000141,0.00001430,0.00000293,0.00000529,-0.00000185,-0.00000309
 ,-0.00000082,0.00000020,-0.00000040,-0.00000029,0.00000014,-0.00000046
 ,-0.00000008,0.00000014,0.00000095,0.00000062,-0.00000009,-0.00000086,
 -0.00000043,0.00000027,0.00011230,-0.00008967,-0.00007421,0.00007617,0
 .00001823,-0.00001367,-0.00002609,0.00000605,0.00000372,-0.00007643,0.
 00003859,0.00000237,-0.00029146,-0.00013315,0.00009700,-0.00000017,-0.
 00000586,0.00000070,-0.00000119,0.00000147,-0.00000035,-0.00000111,0.0
 0000122,0.00000019,0.00000081,-0.00000109,-0.00000011,-0.00459314,0.00
 093752,-0.00143080,-0.00004805,0.00071400,-0.00016807,-0.00721382,0.00
 964223,-0.00054875,0.00051755,0.00027125,0.00049871,0.00063504,0.00042
 311,-0.00001796,0.13921678,-0.20913859,0.02462997,-0.14772803,0.218596
 00,-0.00008002,0.00002781,0.00002444,0.00003618,0.00001507,-0.00001172
 ,0.00024980,-0.00009888,0.00021555,0.00011066,0.00003019,0.00006044,0.
 00001063,0.00000627,-0.00000548,-0.00000246,-0.00000249,-0.00001239,-0
 .00036620,-0.00018458,-0.00077823,0.,-0.00000279,0.00000065,-0.0000031
 9,0.00000147,-0.00000244,-0.00000287,-0.00000771,0.00000251,-0.0000380
 3,0.00001251,0.00003628,0.00000454,0.00001146,-0.00000321,-0.00000631,
 -0.00000062,-0.00000069,-0.00000051,-0.00000016,0.00000039,-0.00000107
 ,0.00000037,0.00000019,0.00000245,0.00000032,0.00000058,-0.00000109,-0
 .00000028,0.00000028,0.00019913,-0.00021313,-0.00016633,0.00007219,0.0
 0002442,-0.00001082,-0.00002135,0.00001503,0.00000101,-0.00007035,0.00
 003547,-0.00000052,-0.00060723,-0.00012135,0.00012588,-0.00000025,-0.0
 0000834,0.00000049,-0.00000164,0.00000195,-0.00000041,-0.00000144,0.00
 000145,0.00000027,0.00000132,-0.00000088,-0.00000021,-0.00417853,-0.00
 062675,-0.00007335,0.00063057,0.00081128,0.00027408,-0.00427432,0.0096
 4394,-0.00288042,0.00004576,-0.00011998,0.00029551,0.00059838,0.000168
 29,0.00014615,-0.02054501,0.02331313,-0.04824738,0.02403281,-0.0258485
 3,0.04720653,0.00004241,-0.00004510,-0.00002324,-0.00001547,0.00004357
 ,0.00000041,-0.00003991,0.00005222,-0.00008931,-0.00001067,0.00000460,
 0.00000540,-0.00000177,-0.00000084,0.00000399,0.00000064,0.00000039,-0
 .00000198,-0.00013296,-0.00006304,0.00039530,-0.00000075,-0.00000173,0
 .00000027,0.00000090,0.00000011,0.00000076,-0.00000138,-0.00000615,0.0
 0000215,-0.00000187,-0.00000404,-0.00000599,0.00000252,0.00000282,-0.0
 0000065,-0.00000287,0.00000246,0.00000022,-0.00000012,0.,0.00000001,-0
 .00000026,0.00000011,0.00000004,-0.00000009,0.,-0.00000004,-0.00000005
 ,-0.00000012,0.00000008,0.00002689,0.00000966,-0.00002733,-0.00001977,
 -0.00001431,0.00002556,0.00000682,0.00000405,-0.00000585,0.00001796,0.
 00000239,-0.00001052,0.00018867,0.00022849,-0.00007059,0.00000026,-0.0
 0000149,0.00000007,-0.00000033,0.00000038,0.00000017,-0.00000031,0.000
 00022,0.00000006,-0.00000016,0.00000015,0.00000008,0.00339187,0.000651
 21,0.00054059,-0.00031883,-0.00046866,-0.00009093,-0.01278566,-0.02048
 399,0.02005587,-0.00447134,-0.00155303,-0.00272907,0.00112420,0.000710
 80,-0.00014724,-0.08682796,-0.06905406,0.06853623,0.00941684,0.0126631
 9,-0.01435182,0.09274368,0.00016968,-0.00010175,0.00000798,-0.00002406
 ,0.00006014,0.00000325,-0.00015070,0.00007857,0.00022425,-0.00001864,0
 .00000380,0.00000483,0.00000119,0.00000015,0.00000126,-0.00000057,0.00
 000370,-0.00000167,0.00005911,-0.00022087,-0.00056105,-0.00000271,-0.0
 0000300,0.00000075,-0.00000397,-0.00000189,0.00000069,0.00000152,0.000
 00079,-0.00000178,-0.00002960,0.00000065,0.00001705,0.00000640,0.00001
 396,-0.00000437,-0.00000871,0.00000226,0.00000059,-0.00000086,-0.00000
 034,0.00000024,-0.00000099,0.00000064,0.00000022,0.00000173,-0.0000001
 2,-0.00000023,-0.00000132,-0.00000078,0.00000051,0.00015540,-0.0000807
 9,-0.00006522,0.00006500,-0.00000743,0.00000142,-0.00003463,0.00001283
 ,0.00000228,-0.00006166,0.00002926,-0.00000817,-0.00023570,0.00001139,
 0.00005076,0.00000110,-0.00001177,0.00000236,-0.00000229,0.00000246,-0
 .00000047,-0.00000178,0.00000250,0.00000030,0.00000157,-0.00000080,-0.
 00000002,-0.00011084,0.00168110,-0.00042899,0.00045883,0.00009383,0.00
 000032,-0.00258770,-0.00931559,0.00790968,-0.00195979,0.00054593,-0.00
 122323,0.00032986,0.00012994,0.00010313,-0.07133020,-0.16926094,0.1185
 9992,-0.01044913,-0.01246155,0.01312768,0.07965565,0.17781534,-0.00013
 000,0.00007923,0.00004036,0.00002766,-0.00003363,-0.00000609,0.0002467
 9,-0.00012358,-0.00006245,0.00008009,0.00001849,0.00003968,0.00000508,
 0.00000432,-0.00000828,-0.00000038,-0.00000208,-0.00000640,-0.00008211
 ,0.00015784,-0.00008953,0.00000190,-0.00000013,-0.00000007,0.00000065,
 0.00000180,-0.00000154,-0.00000142,-0.00000468,0.00000276,0.00000002,0
 .00000369,0.00000952,-0.00000043,-0.00000139,0.00000083,0.00000103,-0.
 00000125,-0.00000059,0.00000025,0.00000015,0.00000006,0.00000017,-0.00
 000026,-0.00000008,-0.00000016,0.00000033,0.00000051,0.00000018,0.0000
 0031,-0.00000020,0.00002153,-0.00007469,-0.00007464,-0.00001104,0.0000
 2348,-0.00000002,0.00001175,-0.00000094,-0.00000221,-0.00000144,-0.000
 01161,0.00000751,-0.00006605,0.00014044,-0.00000899,-0.00000071,0.0000
 0355,-0.00000146,0.00000050,-0.00000065,0.00000002,0.00000054,-0.00000
 087,-0.00000002,-0.00000049,0.00000022,0.00000014,0.00161647,0.0000217
 0,0.00005125,-0.00006211,-0.00032212,0.00002363,-0.00603928,-0.0103973
 3,0.00952489,-0.00291192,-0.00048881,0.00005712,0.00077650,-0.00021951
 ,0.00093564,0.07032887,0.12087539,-0.16791264,0.00068304,-0.00003121,-
 0.00171059,-0.07340864,-0.12828507,0.17332670,-0.00132295,0.00056259,0
 .00056474,0.00022931,-0.00023072,-0.00004037,0.00076416,-0.00054377,0.
 00004355,0.00051273,0.00011377,0.00016804,0.00000982,0.00002708,-0.000
 07504,-0.00000066,-0.00002224,-0.00003339,-0.00086243,0.00051771,-0.00
 058482,0.00001354,0.00001019,-0.00000328,0.00000551,0.00000832,-0.0000
 0593,-0.00000157,-0.00002100,0.00000800,0.00003408,0.00000668,0.000017
 40,-0.00001494,-0.00003193,0.00001178,0.00002157,-0.00001091,-0.000004
 28,0.00000198,0.00000105,0.00000035,0.00000248,-0.00000215,-0.00000049
 ,-0.00000210,0.00000098,0.00000255,0.00000377,0.00000224,-0.00000137,-
 0.00005922,-0.00021737,-0.00028305,-0.00005876,0.00013265,-0.00000272,
 0.00007857,-0.00001436,-0.00000473,0.00000647,-0.00004275,0.00002250,0
 .00003648,0.00022013,0.00005690,-0.00000646,0.00002975,-0.00000935,0.0
 0000563,-0.00000566,0.00000135,0.00000418,-0.00000709,-0.00000054,-0.0
 0000317,0.00000092,0.00000024,0.00343415,0.00010361,0.00149169,-0.0001
 4155,-0.00042341,0.00005175,0.00349126,-0.01469217,-0.02981532,0.00132
 151,0.00053016,0.00068749,-0.00530821,-0.00171668,-0.00186355,-0.05287
 099,0.01802909,0.03712292,-0.00204102,0.00686403,0.01855929,-0.0023311
 2,0.00610882,0.00891316,0.05504791,0.00018788,-0.00020027,0.00000714,0
 .00000932,0.00001241,-0.00001240,-0.00003050,-0.00005281,0.00008757,-0
 .00004662,0.00000180,0.00000263,0.00000156,-0.00000581,0.00000737,-0.0
 0000298,0.00000196,-0.00000413,0.00005347,0.00011203,-0.00060338,-0.00
 000173,-0.00000344,0.00000091,-0.00000213,-0.00000117,0.00000056,0.000
 00025,0.00000469,0.00000054,-0.00002181,0.00000121,0.00000564,0.000005
 32,0.00001279,-0.00000309,-0.00000758,0.00000147,0.00000111,-0.0000006
 8,-0.00000035,-0.00000005,-0.00000083,0.00000047,0.00000002,0.00000108
 ,-0.00000062,-0.00000058,-0.00000122,-0.00000071,0.00000031,0.00009668
 ,-0.00005973,-0.00001352,0.00007221,0.00001820,-0.00001519,-0.00003227
 ,0.00000313,0.00000327,-0.00005824,0.00000015,0.00000087,-0.00021901,-
 0.00004172,0.00003217,0.00000137,-0.00000974,0.00000145,-0.00000173,0.
 00000189,-0.00000051,-0.00000148,0.00000191,0.00000035,0.00000145,-0.0
 0000088,-0.00000022,-0.00053676,0.00113726,0.00142124,0.00037003,0.000
 09076,0.00005485,0.00347232,-0.00695921,-0.01045626,0.00050779,0.00006
 348,-0.00001219,-0.00242944,0.00050546,-0.00049491,0.01556251,-0.10149
 300,-0.10735519,0.00067522,-0.00856239,-0.02001166,-0.00233591,0.01097
 839,0.01866892,-0.01528758,0.10444239,-0.00003060,0.00024117,-0.000072
 87,0.00005322,-0.00004532,-0.00000201,0.00054555,-0.00031965,-0.000199
 26,0.00018820,-0.00000600,0.00006139,0.00002232,0.00001503,-0.00001126
 ,-0.00000242,-0.00000824,-0.00001073,-0.00126706,0.00010018,-0.0005843
 0,0.00000474,0.00000157,-0.00000095,0.00000367,0.00000406,-0.00000244,
 -0.00000419,-0.00001244,0.00000382,0.00000835,0.00000228,0.00000967,-0
 .00000297,-0.00000966,0.00000372,0.00000526,-0.00000185,-0.00000139,0.
 00000069,0.00000036,0.00000003,0.00000046,-0.00000073,-0.00000020,-0.0
 0000046,0.00000025,0.00000071,0.00000127,0.00000043,-0.00000050,0.0000
 0231,-0.00007599,-0.00011038,-0.00003427,0.00003608,-0.00000136,0.0000
 3441,-0.00000071,-0.00000397,0.00000588,-0.00000184,0.00001156,0.00001
 106,0.00008299,0.00001925,-0.00000291,0.00000992,-0.00000339,0.0000019
 9,-0.00000184,0.00000055,0.00000125,-0.00000260,-0.00000014,-0.0000012
 3,0.00000049,-0.00000015,0.00061519,0.00059699,0.00097166,-0.00002985,
 -0.00003072,0.00011428,0.00162037,-0.00445492,-0.00906865,-0.00038795,
 0.00044919,0.00083484,-0.00184958,-0.00076421,0.00090644,0.03482050,-0
 .10817643,-0.26666038,-0.00073375,0.00316495,0.00551298,0.00139599,-0.
 00947919,-0.01413480,-0.03499544,0.11868638,0.28241821\\-0.00000568,-0
 .00000868,0.00000191,0.00000209,0.00000111,0.00000070,0.00001163,-0.00
 001032,-0.00000696,-0.00000004,0.00000200,-0.00000189,0.00000117,0.000
 00067,-0.00000052,0.00000002,-0.00000094,-0.00000143,-0.00000075,0.000
 03426,-0.00000769,-0.00000093,0.00000091,0.00000250,0.,0.00000150,0.00
 000122,0.00000102,0.00000038,0.00000174,0.00000147,0.00000288,0.000006
 91,-0.00000054,-0.00000016,-0.00000220,-0.00000103,0.00000072,0.000001
 31,0.00000024,0.00000179,0.00000300,0.00000030,0.00000166,0.00000299,-
 0.00000101,0.00000078,0.00000088,-0.00000050,0.00000135,0.00000162,0.0
 0000346,-0.00000388,-0.00000257,0.00000072,-0.00000134,0.00000398,0.00
 000073,0.00000063,0.00000264,0.00000016,-0.00000072,-0.00000187,-0.000
 01149,0.00000085,0.00000507,0.00000050,0.00000079,0.00000159,-0.000000
 28,0.00000137,0.00000289,0.00000155,0.00000109,0.00000225,0.00000053,0
 .00000074,0.00000176,-0.00000502,-0.00001981,0.00001613,0.00000889,0.0
 0000295,-0.00001168,-0.00000339,-0.00000445,-0.00000492,-0.00000167,-0
 .00000096,-0.00000322,-0.00000110,-0.00000011,-0.00000311,-0.00000055,
 -0.00000142,-0.00000279,-0.00000050,-0.00000213,-0.00000352,-0.0000004
 0,-0.00000225,-0.00000353,0.00000040,-0.00000123,-0.00000317\\\@


 GOD DOES NOT PLAY WITH DICE.
               -- A. EINSTEIN
 Job cpu time:       0 days  2 hours 24 minutes 20.1 seconds.
 File lengths (MBytes):  RWF=    528 Int=      0 D2E=      0 Chk=     16 Scr=      1
 Normal termination of Gaussian 09 at Fri Nov  6 15:23:15 2020.
