 Entering Gaussian System, Link 0=g09
 Input=MeNO2_isatin_TS4_product_opt.com
 Output=MeNO2_isatin_TS4_product_opt.log
 Initial command:
 /apps/applications/gaussian/G09.D01/2/default/g09/l1.exe "/nobackup/chmbnn/Gau-164502.inp" -scrdir="/nobackup/chmbnn/"
 Entering Link 1 = /apps/applications/gaussian/G09.D01/2/default/g09/l1.exe PID=    164503.
  
 Copyright (c) 1988,1990,1992,1993,1995,1998,2003,2009,2013,
            Gaussian, Inc.  All Rights Reserved.
  
 This is part of the Gaussian(R) 09 program.  It is based on
 the Gaussian(R) 03 system (copyright 2003, Gaussian, Inc.),
 the Gaussian(R) 98 system (copyright 1998, Gaussian, Inc.),
 the Gaussian(R) 94 system (copyright 1995, Gaussian, Inc.),
 the Gaussian 92(TM) system (copyright 1992, Gaussian, Inc.),
 the Gaussian 90(TM) system (copyright 1990, Gaussian, Inc.),
 the Gaussian 88(TM) system (copyright 1988, Gaussian, Inc.),
 the Gaussian 86(TM) system (copyright 1986, Carnegie Mellon
 University), and the Gaussian 82(TM) system (copyright 1983,
 Carnegie Mellon University). Gaussian is a federally registered
 trademark of Gaussian, Inc.
  
 This software contains proprietary and confidential information,
 including trade secrets, belonging to Gaussian, Inc.
  
 This software is provided under written license and may be
 used, copied, transmitted, or stored only in accord with that
 written license.
  
 The following legend is applicable only to US Government
 contracts under FAR:
  
                    RESTRICTED RIGHTS LEGEND
  
 Use, reproduction and disclosure by the US Government is
 subject to restrictions as set forth in subparagraphs (a)
 and (c) of the Commercial Computer Software - Restricted
 Rights clause in FAR 52.227-19.
  
 Gaussian, Inc.
 340 Quinnipiac St., Bldg. 40, Wallingford CT 06492
  
  
 ---------------------------------------------------------------
 Warning -- This program may not be used in any manner that
 competes with the business of Gaussian, Inc. or will provide
 assistance to any competitor of Gaussian, Inc.  The licensee
 of this program is prohibited from giving any competitor of
 Gaussian, Inc. access to this program.  By using this program,
 the user acknowledges that Gaussian, Inc. is engaged in the
 business of creating and licensing software in the field of
 computational chemistry and represents and warrants to the
 licensee that it is not a competitor of Gaussian, Inc. and that
 it will not use this program in any manner prohibited above.
 ---------------------------------------------------------------
  

 Cite this work as:
 Gaussian 09, Revision D.01,
 M. J. Frisch, G. W. Trucks, H. B. Schlegel, G. E. Scuseria, 
 M. A. Robb, J. R. Cheeseman, G. Scalmani, V. Barone, B. Mennucci, 
 G. A. Petersson, H. Nakatsuji, M. Caricato, X. Li, H. P. Hratchian, 
 A. F. Izmaylov, J. Bloino, G. Zheng, J. L. Sonnenberg, M. Hada, 
 M. Ehara, K. Toyota, R. Fukuda, J. Hasegawa, M. Ishida, T. Nakajima, 
 Y. Honda, O. Kitao, H. Nakai, T. Vreven, J. A. Montgomery, Jr., 
 J. E. Peralta, F. Ogliaro, M. Bearpark, J. J. Heyd, E. Brothers, 
 K. N. Kudin, V. N. Staroverov, T. Keith, R. Kobayashi, J. Normand, 
 K. Raghavachari, A. Rendell, J. C. Burant, S. S. Iyengar, J. Tomasi, 
 M. Cossi, N. Rega, J. M. Millam, M. Klene, J. E. Knox, J. B. Cross, 
 V. Bakken, C. Adamo, J. Jaramillo, R. Gomperts, R. E. Stratmann, 
 O. Yazyev, A. J. Austin, R. Cammi, C. Pomelli, J. W. Ochterski, 
 R. L. Martin, K. Morokuma, V. G. Zakrzewski, G. A. Voth, 
 P. Salvador, J. J. Dannenberg, S. Dapprich, A. D. Daniels, 
 O. Farkas, J. B. Foresman, J. V. Ortiz, J. Cioslowski, 
 and D. J. Fox, Gaussian, Inc., Wallingford CT, 2013.
 
 ******************************************
 Gaussian 09:  ES64L-G09RevD.01 24-Apr-2013
                 7-Nov-2020 
 ******************************************
 %nprocshared=4
 Will use up to    4 processors via shared memory.
 %chk=MeNO2_isatin_TS4_product_opt.chk
 ----------------------------------------------------
 # opt freq scrf=(cpcm,solvent=ethanol) def2svp m062x
 ----------------------------------------------------
 1/14=-1,18=20,19=15,26=3,38=1/1,3;
 2/9=110,12=2,17=6,18=5,40=1/2;
 3/5=43,7=101,11=2,16=1,25=1,30=1,70=2101,71=1,72=4,74=-55/1,2,3;
 4//1;
 5/5=2,38=5,53=4/2;
 6/7=2,8=2,9=2,10=2,28=1/1;
 7//1,2,3,16;
 1/14=-1,18=20,19=15,26=3/3(2);
 2/9=110/2;
 99//99;
 2/9=110/2;
 3/5=43,7=101,11=2,16=1,25=1,30=1,70=2105,71=1,72=4,74=-55/1,2,3;
 4/5=5,16=3,69=1/1;
 5/5=2,38=5,53=4/2;
 7//1,2,3,16;
 1/14=-1,18=20,19=15,26=3/3(-5);
 2/9=110/2;
 6/7=2,8=2,9=2,10=2,19=2,28=1/1;
 99/9=1/99;
 -----------------------------------
 MeNO2 + isatin TS4 product opt freq
 -----------------------------------
 Symbolic Z-matrix:
 Charge =  0 Multiplicity = 1
 N                     1.40306   0.75295   1.55867 
 O                     1.19223   1.91739   1.77738 
 O                     2.49755   0.27452   1.34781 
 C                     0.22814  -0.16225   1.47982 
 H                    -0.57475   0.32813   2.03769 
 H                     0.52402  -1.11695   1.92901 
 H                     3.12267   0.45961  -0.65748 
 C                    -4.36413  -1.09784   0.09741 
 C                    -3.80567   0.13648  -0.26287 
 C                    -2.42106   0.2201   -0.30312 
 C                    -1.60891  -0.87409   0.02798 
 C                    -2.16667  -2.0907    0.37563 
 C                    -3.56504  -2.20003   0.40008 
 H                    -5.45014  -1.19586   0.1327 
 H                    -4.43586   0.99044  -0.51224 
 H                    -1.53207  -2.94324   0.62457 
 H                    -4.03041  -3.15032   0.66292 
 C                    -0.17264  -0.40948  -0.00267 
 C                    -0.30481   0.97488  -0.68148 
 N                    -1.6271    1.31702  -0.67822 
 O                     0.62843   1.62152  -1.10056 
 O                     0.69294  -1.2576   -0.66106 
 C                    -2.14265   2.58307  -1.14622 
 H                    -2.79131   2.43839  -2.02201 
 H                    -2.71484   3.07995  -0.35059 
 H                    -1.28751   3.20821  -1.42639 
 O                     3.13295  -0.28088  -1.28172 
 H                     1.50478  -0.77794  -0.95793 
 C                     3.91715  -1.32167  -0.70974 
 H                     3.36302  -1.79413   0.11834 
 H                     4.04465  -2.07489  -1.49999 
 C                     5.2621   -0.81857  -0.22571 
 H                     5.86342  -1.64693   0.17327 
 H                     5.81727  -0.34607  -1.04824 
 H                     5.12607  -0.07778   0.57673 
 
 Add virtual bond connecting atoms H28        and O27        Dist= 3.27D+00.

 GradGradGradGradGradGradGradGradGradGradGradGradGradGradGradGradGradGrad
 Berny optimization.
 Initialization pass.
                           ----------------------------
                           !    Initial Parameters    !
                           ! (Angstroms and Degrees)  !
 --------------------------                            --------------------------
 ! Name  Definition              Value          Derivative Info.                !
 --------------------------------------------------------------------------------
 ! R1    R(1,2)                  1.2034         estimate D2E/DX2                !
 ! R2    R(1,3)                  1.213          estimate D2E/DX2                !
 ! R3    R(1,4)                  1.4914         estimate D2E/DX2                !
 ! R4    R(4,5)                  1.0938         estimate D2E/DX2                !
 ! R5    R(4,6)                  1.0958         estimate D2E/DX2                !
 ! R6    R(4,18)                 1.5555         estimate D2E/DX2                !
 ! R7    R(7,27)                 0.9686         estimate D2E/DX2                !
 ! R8    R(8,9)                  1.4019         estimate D2E/DX2                !
 ! R9    R(8,13)                 1.3946         estimate D2E/DX2                !
 ! R10   R(8,14)                 1.091          estimate D2E/DX2                !
 ! R11   R(9,10)                 1.3877         estimate D2E/DX2                !
 ! R12   R(9,15)                 1.0902         estimate D2E/DX2                !
 ! R13   R(10,11)                1.4023         estimate D2E/DX2                !
 ! R14   R(10,20)                1.4051         estimate D2E/DX2                !
 ! R15   R(11,12)                1.3828         estimate D2E/DX2                !
 ! R16   R(11,18)                1.5099         estimate D2E/DX2                !
 ! R17   R(12,13)                1.4029         estimate D2E/DX2                !
 ! R18   R(12,16)                1.0916         estimate D2E/DX2                !
 ! R19   R(13,17)                1.0903         estimate D2E/DX2                !
 ! R20   R(18,19)                1.5475         estimate D2E/DX2                !
 ! R21   R(18,22)                1.3791         estimate D2E/DX2                !
 ! R22   R(19,20)                1.3658         estimate D2E/DX2                !
 ! R23   R(19,21)                1.2102         estimate D2E/DX2                !
 ! R24   R(20,23)                1.4449         estimate D2E/DX2                !
 ! R25   R(22,28)                0.9886         estimate D2E/DX2                !
 ! R26   R(23,24)                1.0994         estimate D2E/DX2                !
 ! R27   R(23,25)                1.0988         estimate D2E/DX2                !
 ! R28   R(23,26)                1.0957         estimate D2E/DX2                !
 ! R29   R(27,28)                1.7329         estimate D2E/DX2                !
 ! R30   R(27,29)                1.4232         estimate D2E/DX2                !
 ! R31   R(29,30)                1.1027         estimate D2E/DX2                !
 ! R32   R(29,31)                1.0991         estimate D2E/DX2                !
 ! R33   R(29,32)                1.5154         estimate D2E/DX2                !
 ! R34   R(32,33)                1.0986         estimate D2E/DX2                !
 ! R35   R(32,34)                1.0991         estimate D2E/DX2                !
 ! R36   R(32,35)                1.1005         estimate D2E/DX2                !
 ! A1    A(2,1,3)              124.8432         estimate D2E/DX2                !
 ! A2    A(2,1,4)              117.7343         estimate D2E/DX2                !
 ! A3    A(3,1,4)              117.3629         estimate D2E/DX2                !
 ! A4    A(1,4,5)              106.0336         estimate D2E/DX2                !
 ! A5    A(1,4,6)              107.4726         estimate D2E/DX2                !
 ! A6    A(1,4,18)             110.5423         estimate D2E/DX2                !
 ! A7    A(5,4,6)              112.3178         estimate D2E/DX2                !
 ! A8    A(5,4,18)             111.607          estimate D2E/DX2                !
 ! A9    A(6,4,18)             108.7706         estimate D2E/DX2                !
 ! A10   A(9,8,13)             121.5594         estimate D2E/DX2                !
 ! A11   A(9,8,14)             118.9444         estimate D2E/DX2                !
 ! A12   A(13,8,14)            119.4943         estimate D2E/DX2                !
 ! A13   A(8,9,10)             117.257          estimate D2E/DX2                !
 ! A14   A(8,9,15)             121.2112         estimate D2E/DX2                !
 ! A15   A(10,9,15)            121.5279         estimate D2E/DX2                !
 ! A16   A(9,10,11)            121.6003         estimate D2E/DX2                !
 ! A17   A(9,10,20)            128.2121         estimate D2E/DX2                !
 ! A18   A(11,10,20)           110.1768         estimate D2E/DX2                !
 ! A19   A(10,11,12)           120.8147         estimate D2E/DX2                !
 ! A20   A(10,11,18)           107.82           estimate D2E/DX2                !
 ! A21   A(12,11,18)           131.2649         estimate D2E/DX2                !
 ! A22   A(11,12,13)           118.3606         estimate D2E/DX2                !
 ! A23   A(11,12,16)           120.6642         estimate D2E/DX2                !
 ! A24   A(13,12,16)           120.9752         estimate D2E/DX2                !
 ! A25   A(8,13,12)            120.3828         estimate D2E/DX2                !
 ! A26   A(8,13,17)            119.7748         estimate D2E/DX2                !
 ! A27   A(12,13,17)           119.8414         estimate D2E/DX2                !
 ! A28   A(4,18,11)            105.9413         estimate D2E/DX2                !
 ! A29   A(4,18,19)            107.3308         estimate D2E/DX2                !
 ! A30   A(4,18,22)            113.0183         estimate D2E/DX2                !
 ! A31   A(11,18,19)           101.7088         estimate D2E/DX2                !
 ! A32   A(11,18,22)           114.6762         estimate D2E/DX2                !
 ! A33   A(19,18,22)           113.2249         estimate D2E/DX2                !
 ! A34   A(18,19,20)           107.8023         estimate D2E/DX2                !
 ! A35   A(18,19,21)           124.334          estimate D2E/DX2                !
 ! A36   A(20,19,21)           127.8435         estimate D2E/DX2                !
 ! A37   A(10,20,19)           110.617          estimate D2E/DX2                !
 ! A38   A(10,20,23)           124.6731         estimate D2E/DX2                !
 ! A39   A(19,20,23)           124.3436         estimate D2E/DX2                !
 ! A40   A(18,22,28)           111.1244         estimate D2E/DX2                !
 ! A41   A(20,23,24)           110.6848         estimate D2E/DX2                !
 ! A42   A(20,23,25)           110.3352         estimate D2E/DX2                !
 ! A43   A(20,23,26)           107.7141         estimate D2E/DX2                !
 ! A44   A(24,23,25)           109.2135         estimate D2E/DX2                !
 ! A45   A(24,23,26)           109.3818         estimate D2E/DX2                !
 ! A46   A(25,23,26)           109.4857         estimate D2E/DX2                !
 ! A47   A(7,27,28)             95.1002         estimate D2E/DX2                !
 ! A48   A(7,27,29)            107.8148         estimate D2E/DX2                !
 ! A49   A(28,27,29)           103.466          estimate D2E/DX2                !
 ! A50   A(27,29,30)           109.7702         estimate D2E/DX2                !
 ! A51   A(27,29,31)           106.0291         estimate D2E/DX2                !
 ! A52   A(27,29,32)           112.0019         estimate D2E/DX2                !
 ! A53   A(30,29,31)           107.7335         estimate D2E/DX2                !
 ! A54   A(30,29,32)           110.3887         estimate D2E/DX2                !
 ! A55   A(31,29,32)           110.7453         estimate D2E/DX2                !
 ! A56   A(29,32,33)           110.5771         estimate D2E/DX2                !
 ! A57   A(29,32,34)           110.6096         estimate D2E/DX2                !
 ! A58   A(29,32,35)           110.2838         estimate D2E/DX2                !
 ! A59   A(33,32,34)           108.6303         estimate D2E/DX2                !
 ! A60   A(33,32,35)           108.0822         estimate D2E/DX2                !
 ! A61   A(34,32,35)           108.5857         estimate D2E/DX2                !
 ! A62   L(22,28,27,1,-1)      180.5875         estimate D2E/DX2                !
 ! A63   L(22,28,27,1,-2)      165.2148         estimate D2E/DX2                !
 ! D1    D(2,1,4,5)            -22.8964         estimate D2E/DX2                !
 ! D2    D(2,1,4,6)           -143.207          estimate D2E/DX2                !
 ! D3    D(2,1,4,18)            98.2247         estimate D2E/DX2                !
 ! D4    D(3,1,4,5)            159.7726         estimate D2E/DX2                !
 ! D5    D(3,1,4,6)             39.4621         estimate D2E/DX2                !
 ! D6    D(3,1,4,18)           -79.1062         estimate D2E/DX2                !
 ! D7    D(1,4,18,11)         -159.034          estimate D2E/DX2                !
 ! D8    D(1,4,18,19)          -50.9612         estimate D2E/DX2                !
 ! D9    D(1,4,18,22)           74.5886         estimate D2E/DX2                !
 ! D10   D(5,4,18,11)          -41.2806         estimate D2E/DX2                !
 ! D11   D(5,4,18,19)           66.7922         estimate D2E/DX2                !
 ! D12   D(5,4,18,22)         -167.658          estimate D2E/DX2                !
 ! D13   D(6,4,18,11)           83.1908         estimate D2E/DX2                !
 ! D14   D(6,4,18,19)         -168.7363         estimate D2E/DX2                !
 ! D15   D(6,4,18,22)          -43.1866         estimate D2E/DX2                !
 ! D16   D(13,8,9,10)           -0.1743         estimate D2E/DX2                !
 ! D17   D(13,8,9,15)          179.1121         estimate D2E/DX2                !
 ! D18   D(14,8,9,10)         -179.6782         estimate D2E/DX2                !
 ! D19   D(14,8,9,15)           -0.3918         estimate D2E/DX2                !
 ! D20   D(9,8,13,12)            1.2402         estimate D2E/DX2                !
 ! D21   D(9,8,13,17)         -179.124          estimate D2E/DX2                !
 ! D22   D(14,8,13,12)        -179.2586         estimate D2E/DX2                !
 ! D23   D(14,8,13,17)           0.3772         estimate D2E/DX2                !
 ! D24   D(8,9,10,11)           -1.2503         estimate D2E/DX2                !
 ! D25   D(8,9,10,20)          177.4337         estimate D2E/DX2                !
 ! D26   D(15,9,10,11)         179.4657         estimate D2E/DX2                !
 ! D27   D(15,9,10,20)          -1.8503         estimate D2E/DX2                !
 ! D28   D(9,10,11,12)           1.6404         estimate D2E/DX2                !
 ! D29   D(9,10,11,18)        -175.1082         estimate D2E/DX2                !
 ! D30   D(20,10,11,12)       -177.258          estimate D2E/DX2                !
 ! D31   D(20,10,11,18)          5.9934         estimate D2E/DX2                !
 ! D32   D(9,10,20,19)        -175.4733         estimate D2E/DX2                !
 ! D33   D(9,10,20,23)          -2.1799         estimate D2E/DX2                !
 ! D34   D(11,10,20,19)          3.3326         estimate D2E/DX2                !
 ! D35   D(11,10,20,23)        176.626          estimate D2E/DX2                !
 ! D36   D(10,11,12,13)         -0.5405         estimate D2E/DX2                !
 ! D37   D(10,11,12,16)        179.4693         estimate D2E/DX2                !
 ! D38   D(18,11,12,13)        175.3401         estimate D2E/DX2                !
 ! D39   D(18,11,12,16)         -4.6501         estimate D2E/DX2                !
 ! D40   D(10,11,18,4)         100.4595         estimate D2E/DX2                !
 ! D41   D(10,11,18,19)        -11.6009         estimate D2E/DX2                !
 ! D42   D(10,11,18,22)       -134.1766         estimate D2E/DX2                !
 ! D43   D(12,11,18,4)         -75.825          estimate D2E/DX2                !
 ! D44   D(12,11,18,19)        172.1146         estimate D2E/DX2                !
 ! D45   D(12,11,18,22)         49.539          estimate D2E/DX2                !
 ! D46   D(11,12,13,8)          -0.8624         estimate D2E/DX2                !
 ! D47   D(11,12,13,17)        179.5021         estimate D2E/DX2                !
 ! D48   D(16,12,13,8)         179.1278         estimate D2E/DX2                !
 ! D49   D(16,12,13,17)         -0.5078         estimate D2E/DX2                !
 ! D50   D(4,18,19,20)         -97.35           estimate D2E/DX2                !
 ! D51   D(4,18,19,21)          81.1277         estimate D2E/DX2                !
 ! D52   D(11,18,19,20)         13.6582         estimate D2E/DX2                !
 ! D53   D(11,18,19,21)       -167.864          estimate D2E/DX2                !
 ! D54   D(22,18,19,20)        137.2239         estimate D2E/DX2                !
 ! D55   D(22,18,19,21)        -44.2983         estimate D2E/DX2                !
 ! D56   D(4,18,22,28)         -80.3835         estimate D2E/DX2                !
 ! D57   D(11,18,22,28)        158.0426         estimate D2E/DX2                !
 ! D58   D(19,18,22,28)         41.9272         estimate D2E/DX2                !
 ! D59   D(18,19,20,10)        -10.964          estimate D2E/DX2                !
 ! D60   D(18,19,20,23)        175.716          estimate D2E/DX2                !
 ! D61   D(21,19,20,10)        170.6278         estimate D2E/DX2                !
 ! D62   D(21,19,20,23)         -2.6922         estimate D2E/DX2                !
 ! D63   D(10,20,23,24)        -56.5216         estimate D2E/DX2                !
 ! D64   D(10,20,23,25)         64.4809         estimate D2E/DX2                !
 ! D65   D(10,20,23,26)       -176.0584         estimate D2E/DX2                !
 ! D66   D(19,20,23,24)        115.871          estimate D2E/DX2                !
 ! D67   D(19,20,23,25)       -123.1265         estimate D2E/DX2                !
 ! D68   D(19,20,23,26)         -3.6658         estimate D2E/DX2                !
 ! D69   D(18,22,27,7)          18.5635         estimate D2E/DX2                !
 ! D70   D(18,22,27,29)        127.7274         estimate D2E/DX2                !
 ! D71   D(7,27,29,30)          72.7797         estimate D2E/DX2                !
 ! D72   D(7,27,29,31)        -171.1149         estimate D2E/DX2                !
 ! D73   D(7,27,29,32)         -50.2124         estimate D2E/DX2                !
 ! D74   D(28,27,29,30)        -27.1804         estimate D2E/DX2                !
 ! D75   D(28,27,29,31)         88.925          estimate D2E/DX2                !
 ! D76   D(28,27,29,32)       -150.1725         estimate D2E/DX2                !
 ! D77   D(27,29,32,33)       -177.691          estimate D2E/DX2                !
 ! D78   D(27,29,32,34)        -57.31           estimate D2E/DX2                !
 ! D79   D(27,29,32,35)         62.8235         estimate D2E/DX2                !
 ! D80   D(30,29,32,33)         59.6675         estimate D2E/DX2                !
 ! D81   D(30,29,32,34)       -179.9515         estimate D2E/DX2                !
 ! D82   D(30,29,32,35)        -59.8179         estimate D2E/DX2                !
 ! D83   D(31,29,32,33)        -59.5585         estimate D2E/DX2                !
 ! D84   D(31,29,32,34)         60.8224         estimate D2E/DX2                !
 ! D85   D(31,29,32,35)       -179.044          estimate D2E/DX2                !
 --------------------------------------------------------------------------------
 Trust Radius=3.00D-01 FncErr=1.00D-07 GrdErr=1.00D-06
 Number of steps in this run=    194 maximum allowed number of steps=    210.
 GradGradGradGradGradGradGradGradGradGradGradGradGradGradGradGradGradGrad

                          Input orientation:                          
 ---------------------------------------------------------------------
 Center     Atomic      Atomic             Coordinates (Angstroms)
 Number     Number       Type             X           Y           Z
 ---------------------------------------------------------------------
      1          7           0        1.403057    0.752945    1.558671
      2          8           0        1.192228    1.917385    1.777384
      3          8           0        2.497552    0.274516    1.347806
      4          6           0        0.228139   -0.162251    1.479824
      5          1           0       -0.574751    0.328131    2.037693
      6          1           0        0.524018   -1.116945    1.929008
      7          1           0        3.122672    0.459605   -0.657481
      8          6           0       -4.364127   -1.097844    0.097409
      9          6           0       -3.805674    0.136480   -0.262865
     10          6           0       -2.421056    0.220099   -0.303121
     11          6           0       -1.608909   -0.874088    0.027979
     12          6           0       -2.166669   -2.090701    0.375626
     13          6           0       -3.565042   -2.200028    0.400080
     14          1           0       -5.450144   -1.195861    0.132698
     15          1           0       -4.435861    0.990436   -0.512235
     16          1           0       -1.532071   -2.943242    0.624569
     17          1           0       -4.030412   -3.150316    0.662922
     18          6           0       -0.172635   -0.409478   -0.002674
     19          6           0       -0.304807    0.974880   -0.681475
     20          7           0       -1.627097    1.317019   -0.678218
     21          8           0        0.628426    1.621516   -1.100564
     22          8           0        0.692936   -1.257596   -0.661059
     23          6           0       -2.142651    2.583070   -1.146217
     24          1           0       -2.791307    2.438386   -2.022005
     25          1           0       -2.714837    3.079949   -0.350588
     26          1           0       -1.287505    3.208210   -1.426393
     27          8           0        3.132953   -0.280883   -1.281715
     28          1           0        1.504777   -0.777935   -0.957930
     29          6           0        3.917149   -1.321672   -0.709741
     30          1           0        3.363018   -1.794134    0.118341
     31          1           0        4.044647   -2.074891   -1.499991
     32          6           0        5.262102   -0.818570   -0.225713
     33          1           0        5.863419   -1.646925    0.173274
     34          1           0        5.817266   -0.346074   -1.048236
     35          1           0        5.126073   -0.077782    0.576725
 ---------------------------------------------------------------------
                    Distance matrix (angstroms):
                    1          2          3          4          5
     1  N    0.000000
     2  O    1.203414   0.000000
     3  O    1.212962   2.141828   0.000000
     4  C    1.491386   2.311470   2.314828   0.000000
     5  H    2.078859   2.390754   3.149264   1.093766   0.000000
     6  H    2.099130   3.110732   2.483706   1.095788   1.818612
     7  H    2.820364   3.432245   2.108604   3.651452   4.577356
     8  C    6.230660   6.541177   7.108411   4.886237   4.489708
     9  C    5.552378   5.684476   6.507225   4.404299   3.970914
    10  C    4.286494   4.501678   5.188567   3.216103   2.983274
    11  C    3.749959   4.324247   4.463660   2.447307   2.560032
    12  C    4.714749   5.414044   5.319243   3.266998   3.338775
    13  C    5.894437   6.440627   6.616389   4.439212   4.244432
    14  H    7.266196   7.517872   8.173394   5.926719   5.451698
    15  H    6.199840   6.146298   7.214188   5.200950   4.674286
    16  H    4.811374   5.690034   5.207197   3.400546   3.689886
    17  H    6.749844   7.362037   7.403570   5.266034   5.092267
    18  C    2.504362   3.231988   3.069453   1.555487   2.206550
    19  C    2.825652   3.029095   3.530114   2.499662   2.808029
    20  N    3.808370   3.786689   4.712145   3.207380   3.075956
    21  O    2.902757   2.947541   3.361928   3.162350   3.601269
    22  O    3.077945   4.034328   3.104762   2.449326   3.377103
    23  C    4.820562   4.484640   5.751613   4.478116   4.204800
    24  H    5.766684   5.529498   6.634002   5.305014   5.084038
    25  H    5.100713   4.598367   6.158246   4.745880   4.225678
    26  H    4.709358   4.251999   5.534383   4.701413   4.561005
    27  O    3.482691   4.237556   2.761627   4.009753   5.013625
    28  H    2.947409   3.852840   2.722072   2.819843   3.810719
    29  C    3.971195   4.909427   2.965901   4.443787   5.517917
    30  H    3.521876   4.608701   2.557328   3.787366   4.867643
    31  H    4.932552   5.900487   4.002894   5.206076   6.295122
    32  C    4.532760   5.297332   3.363560   5.355408   6.364494
    33  H    5.251050   6.090772   4.049756   5.972245   6.987627
    34  H    5.243000   5.873530   4.140851   6.137037   7.129894
    35  H    3.938930   4.571368   2.761848   4.981213   5.899033
                    6          7          8          9         10
     6  H    0.000000
     7  H    3.991045   0.000000
     8  C    5.220065   7.684248   0.000000
     9  C    5.012147   6.947094   1.401864   0.000000
    10  C    3.929828   5.560203   2.381790   1.387725   0.000000
    11  C    2.867450   4.963512   2.765161   2.435491   1.402304
    12  C    3.255917   5.962256   2.427342   2.838018   2.421819
    13  C    4.497900   7.274449   1.394617   2.440629   2.767708
    14  H    6.238876   8.766877   1.091002   2.153110   3.371981
    15  H    5.916175   7.578542   2.176632   1.090212   2.167161
    16  H    3.043752   5.906746   3.421101   3.929567   3.414327
    17  H    5.145911   8.120444   2.154951   3.422078   3.857844
    18  C    2.171919   3.470321   4.248820   3.683034   2.354152
    19  C    3.446347   3.466078   4.623951   3.624116   2.278455
    20  N    4.165226   4.826582   3.731554   2.512447   1.405099
    21  O    4.085141   2.787046   5.809961   4.750612   3.449525
    22  O    2.599377   2.975300   5.116120   4.726468   3.465350
    23  C    5.500749   5.698385   4.475566   3.087355   2.524273
    24  H    6.264364   6.383780   4.412550   3.069574   2.830626
    25  H    5.770672   6.406005   4.513847   3.140323   2.875292
    26  H    5.766047   5.253163   5.507239   4.138901   3.387549
    27  O    4.220697   0.968554   7.666526   7.025439   5.661770
    28  H    3.067772   2.058970   5.971609   5.433246   4.103293
    29  C    4.303283   1.951121   8.323528   7.871969   6.535690
    30  H    3.434679   2.395622   7.758481   7.433891   6.139241
    31  H    5.007047   2.825514   8.614742   8.249132   6.964538
    32  C    5.213568   2.529292   9.635699   9.118008   7.753434
    33  H    5.645590   3.555182  10.242555   9.841855   8.505601
    34  H    6.121821   2.839480  10.273190   9.666987   8.291303
    35  H    4.907896   2.413641   9.556891   8.973680   7.604079
                   11         12         13         14         15
    11  C    0.000000
    12  C    1.382788   0.000000
    13  C    2.392286   1.402853   0.000000
    14  H    3.856111   3.411885   2.152546   0.000000
    15  H    3.429277   3.928223   3.430700   2.494915   0.000000
    16  H    2.154814   1.091565   2.176174   4.318168   5.019775
    17  H    3.383496   2.163067   1.090276   2.473190   4.323333
    18  C    1.509863   2.635487   3.857033   5.337492   4.516028
    19  C    2.371221   3.739222   4.677492   5.643535   4.134549
    20  N    2.302172   3.607531   4.157881   4.646272   2.832554
    21  O    3.536568   4.875679   5.868671   6.812310   5.137256
    22  O    2.433175   3.153747   4.488270   6.194457   5.601817
    23  C    3.689927   4.915355   5.224199   5.182225   2.863080
    24  H    4.070993   5.162503   5.289617   4.991985   2.660925
    25  H    4.123202   5.250095   5.400417   5.098825   2.711848
    26  H    4.345533   5.665568   6.145911   6.257329   3.958074
    27  O    4.955042   5.840224   7.167614   8.746845   7.713319
    28  H    3.267461   4.120830   5.437794   7.052309   6.214255
    29  C    5.593021   6.227541   7.614880   9.405940   8.669350
    30  H    5.057144   5.543608   6.945656   8.833457   8.305057
    31  H    5.978237   6.488346   7.844316   9.674163   9.071434
    32  C    6.875917   7.560857   8.956479  10.724879   9.869401
    33  H    7.513593   8.044886   9.447393  11.322624  10.653674
    34  H    7.522308   8.295440   9.672769  11.360954  10.353751
    35  H    6.804058   7.568115   8.948218  10.644418   9.682846
                   16         17         18         19         20
    16  H    0.000000
    17  H    2.507201   0.000000
    18  C    2.943036   4.778876   0.000000
    19  C    4.308551   5.718809   1.547478   0.000000
    20  N    4.456019   5.247062   2.356398   1.365841   0.000000
    21  O    5.336745   6.898191   2.443767   1.210247   2.314839
    22  O    3.073255   5.257883   1.379126   2.445375   3.465760
    23  C    5.835119   6.301455   3.760851   2.485947   1.444889
    24  H    6.127965   6.322800   4.364112   3.181439   2.102050
    25  H    6.215199   6.447801   4.331274   3.216993   2.097246
    26  H    6.488961   7.233231   4.044450   2.551149   2.061963
    27  O    5.699520   7.957956   3.546744   3.708830   5.057230
    28  H    4.051580   6.236479   1.965194   2.534439   3.778321
    29  C    5.839852   8.269938   4.249515   4.806232   6.140224
    30  H    5.053574   7.536485   3.799047   4.664771   5.934225
    31  H    6.030553   8.428601   4.775042   5.374832   6.659508
    32  C    7.169240   9.621722   5.454674   5.866401   7.226795
    33  H    7.521793  10.019373   6.164104   6.756587   8.100483
    34  H    7.972221  10.381165   6.080800   6.273692   7.636840
    35  H    7.248726   9.658629   5.340602   5.673237   7.008970
                   21         22         23         24         25
    21  O    0.000000
    22  O    2.913179   0.000000
    23  C    2.933520   4.798609   0.000000
    24  H    3.634681   5.258556   1.099406   0.000000
    25  H    3.723828   5.524817   1.098777   1.791950   0.000000
    26  H    2.508895   4.944826   1.095707   1.791313   1.791950
    27  O    3.150332   2.700531   6.004380   6.560435   6.808732
    28  H    2.558457   0.988581   4.963420   5.471135   5.749546
    29  C    4.430666   3.225217   7.222098   7.801503   7.967841
    30  H    4.542069   2.832786   7.146427   7.769879   7.804928
    31  H    5.049112   3.550457   7.752704   8.208071   8.578119
    32  C    5.309457   4.610808   8.200540   8.870841   8.879504
    33  H    6.301628   5.251817   9.150468   9.819027   9.808376
    34  H    5.549613   5.219151   8.482321   9.099944   9.220690
    35  H    5.092125   4.751502   7.929881   8.704562   8.503590
                   26         27         28         29         30
    26  H    0.000000
    27  O    5.633396   0.000000
    28  H    4.889340   1.732875   0.000000
    29  C    6.936991   1.423151   2.485314   0.000000
    30  H    7.002643   2.074371   2.375727   1.102724   0.000000
    31  H    7.506558   2.024178   2.902906   1.099131   1.778325
    32  C    7.781641   2.436703   3.828222   1.515353   2.162549
    33  H    8.790164   3.382086   4.586123   2.161821   2.505333
    34  H    7.953220   2.695236   4.334999   2.162594   3.079142
    35  H    7.479586   2.732687   3.994892   2.159573   2.502867
                   31         32         33         34         35
    31  H    0.000000
    32  C    2.164330   0.000000
    33  H    2.508167   1.098610   0.000000
    34  H    2.516956   1.099092   1.785057   0.000000
    35  H    3.077446   1.100535   1.780073   1.786121   0.000000
 Stoichiometry    C12H16N2O5
 Framework group  C1[X(C12H16N2O5)]
 Deg. of freedom    99
 Full point group                 C1      NOp   1
 Largest Abelian subgroup         C1      NOp   1
 Largest concise Abelian subgroup C1      NOp   1
                         Standard orientation:                         
 ---------------------------------------------------------------------
 Center     Atomic      Atomic             Coordinates (Angstroms)
 Number     Number       Type             X           Y           Z
 ---------------------------------------------------------------------
      1          7           0        1.392094    0.612632    1.623750
      2          8           0        1.178416    1.747568    1.962078
      3          8           0        2.486508    0.163999    1.354930
      4          6           0        0.220411   -0.295960    1.462964
      5          1           0       -0.579044    0.130724    2.075449
      6          1           0        0.524818   -1.289901    1.809619
      7          1           0        3.091018    0.555907   -0.626783
      8          6           0       -4.381190   -1.110010    0.035414
      9          6           0       -3.831643    0.157556   -0.202279
     10          6           0       -2.447862    0.252172   -0.246768
     11          6           0       -1.627781   -0.865758   -0.036645
     12          6           0       -2.176836   -2.114415    0.190287
     13          6           0       -3.574416   -2.233066    0.216564
     14          1           0       -5.466373   -1.216862    0.070695
     15          1           0       -4.467933    1.029141   -0.357315
     16          1           0       -1.536145   -2.984525    0.345002
     17          1           0       -4.033070   -3.207653    0.385441
     18          6           0       -0.193895   -0.392848   -0.033199
     19          6           0       -0.338720    1.052791   -0.565965
     20          7           0       -1.662376    1.385810   -0.515430
     21          8           0        0.587538    1.743722   -0.925628
     22          8           0        0.668788   -1.164817   -0.782752
     23          6           0       -2.187973    2.690237   -0.846979
     24          1           0       -2.844605    2.632178   -1.726840
     25          1           0       -2.754421    3.100361    0.000515
     26          1           0       -1.338334    3.345205   -1.069921
     27          8           0        3.098333   -0.117005   -1.323370
     28          1           0        1.475587   -0.653094   -1.036737
     29          6           0        3.892611   -1.206526   -0.867930
     30          1           0        3.348715   -1.763891   -0.087210
     31          1           0        4.015554   -1.874553   -1.732057
     32          6           0        5.240091   -0.748290   -0.347729
     33          1           0        5.848879   -1.609816   -0.040981
     34          1           0        5.785074   -0.191453   -1.122925
     35          1           0        5.108791   -0.093917    0.527334
 ---------------------------------------------------------------------
 Rotational constants (GHZ):      0.6915192      0.2386030      0.2154935
 Standard basis: def2SVP (5D, 7F)
 There are   365 symmetry adapted cartesian basis functions of A   symmetry.
 There are   346 symmetry adapted basis functions of A   symmetry.
   346 basis functions,   587 primitive gaussians,   365 cartesian basis functions
    71 alpha electrons       71 beta electrons
       nuclear repulsion energy      1547.3214923910 Hartrees.
 NAtoms=   35 NActive=   35 NUniq=   35 SFac= 1.00D+00 NAtFMM=   60 NAOKFM=F Big=F
 Integral buffers will be    131072 words long.
 Raffenetti 2 integral format.
 Two-electron integral symmetry is turned on.
 ------------------------------------------------------------------------------
 Polarizable Continuum Model (PCM)
 =================================
 Model                : C-PCM.
 Atomic radii         : UFF (Universal Force Field).
 Polarization charges : Total charges.
 Charge compensation  : None.
 Solution method      : On-the-fly selection.
 Cavity type          : Scaled VdW (van der Waals Surface) (Alpha=1.100).
 Cavity algorithm     : GePol (No added spheres)
                        Default sphere list used, NSphG=   35.
                        Lebedev-Laikov grids with approx.  5.0 points / Ang**2.
                        Smoothing algorithm: Karplus/York (Gamma=1.0000).
                        Polarization charges: spherical gaussians, with
                                              point-specific exponents (IZeta= 3).
                        Self-potential: point-specific (ISelfS= 7).
                        Self-field    : sphere-specific E.n sum rule (ISelfD= 2).
 1st derivatives      : Analytical E(r).r(x)/FMM algorithm (CHGder, D1EAlg=3).
                        Cavity 1st derivative terms included.
 Solvent              : Ethanol, Eps=  24.852000 Eps(inf)=   1.852593
 ------------------------------------------------------------------------------
 One-electron integrals computed using PRISM.
   1 Symmetry operations used in ECPInt.
 ECPInt:  NShTT=   13203 NPrTT=   47881 LenC2=   12050 LenP2D=   30861.
 LDataN:  DoStor=T MaxTD1= 4 Len=   56
 NBasis=   346 RedAO= T EigKep=  2.47D-04  NBF=   346
 NBsUse=   346 1.00D-06 EigRej= -1.00D+00 NBFU=   346
 ExpMin= 1.22D-01 ExpMax= 2.27D+03 ExpMxC= 3.41D+02 IAcc=1 IRadAn=         1 AccDes= 0.00D+00
 Harris functional with IExCor= 1009 and IRadAn=       1 diagonalized for initial guess.
 HarFok:  IExCor= 1009 AccDes= 0.00D+00 IRadAn=         1 IDoV= 1 UseB2=F ITyADJ=14
 ICtDFT=  3500011 ScaDFX=  1.000000  1.000000  1.000000  1.000000
 FoFCou: FMM=F IPFlag=           0 FMFlag=      100000 FMFlg1=           0
         NFxFlg=           0 DoJE=T BraDBF=F KetDBF=T FulRan=T
         wScrn=  0.000000 ICntrl=     500 IOpCl=  0 I1Cent=   200000004 NGrid=           0
         NMat0=    1 NMatS0=      1 NMatT0=    0 NMatD0=    1 NMtDS0=    0 NMtDT0=    0
 Petite list used in FoFCou.
 Requested convergence on RMS density matrix=1.00D-08 within 128 cycles.
 Requested convergence on MAX density matrix=1.00D-06.
 Requested convergence on             energy=1.00D-06.
 No special actions if energy rises.
 Inv3:  Mode=1 IEnd=    19922787.
 Iteration    1 A*A^-1 deviation from unit magnitude is 1.14D-14 for   2554.
 Iteration    1 A*A^-1 deviation from orthogonality  is 5.85D-15 for   2571     56.
 Iteration    1 A^-1*A deviation from unit magnitude is 1.14D-14 for   2554.
 Iteration    1 A^-1*A deviation from orthogonality  is 2.81D-15 for   2535    705.
 Error on total polarization charges =  0.00994
 SCF Done:  E(RM062X) =  -951.367753561     A.U. after   14 cycles
            NFock= 14  Conv=0.79D-08     -V/T= 2.0090

 **********************************************************************

            Population analysis using the SCF density.

 **********************************************************************

 Orbital symmetries:
       Occupied  (A) (A) (A) (A) (A) (A) (A) (A) (A) (A) (A) (A)
                 (A) (A) (A) (A) (A) (A) (A) (A) (A) (A) (A) (A)
                 (A) (A) (A) (A) (A) (A) (A) (A) (A) (A) (A) (A)
                 (A) (A) (A) (A) (A) (A) (A) (A) (A) (A) (A) (A)
                 (A) (A) (A) (A) (A) (A) (A) (A) (A) (A) (A) (A)
                 (A) (A) (A) (A) (A) (A) (A) (A) (A) (A) (A)
       Virtual   (A) (A) (A) (A) (A) (A) (A) (A) (A) (A) (A) (A)
                 (A) (A) (A) (A) (A) (A) (A) (A) (A) (A) (A) (A)
                 (A) (A) (A) (A) (A) (A) (A) (A) (A) (A) (A) (A)
                 (A) (A) (A) (A) (A) (A) (A) (A) (A) (A) (A) (A)
                 (A) (A) (A) (A) (A) (A) (A) (A) (A) (A) (A) (A)
                 (A) (A) (A) (A) (A) (A) (A) (A) (A) (A) (A) (A)
                 (A) (A) (A) (A) (A) (A) (A) (A) (A) (A) (A) (A)
                 (A) (A) (A) (A) (A) (A) (A) (A) (A) (A) (A) (A)
                 (A) (A) (A) (A) (A) (A) (A) (A) (A) (A) (A) (A)
                 (A) (A) (A) (A) (A) (A) (A) (A) (A) (A) (A) (A)
                 (A) (A) (A) (A) (A) (A) (A) (A) (A) (A) (A) (A)
                 (A) (A) (A) (A) (A) (A) (A) (A) (A) (A) (A) (A)
                 (A) (A) (A) (A) (A) (A) (A) (A) (A) (A) (A) (A)
                 (A) (A) (A) (A) (A) (A) (A) (A) (A) (A) (A) (A)
                 (A) (A) (A) (A) (A) (A) (A) (A) (A) (A) (A) (A)
                 (A) (A) (A) (A) (A) (A) (A) (A) (A) (A) (A) (A)
                 (A) (A) (A) (A) (A) (A) (A) (A) (A) (A) (A) (A)
                 (A) (A) (A) (A) (A) (A) (A) (A) (A) (A) (A) (A)
                 (A) (A) (A) (A) (A) (A) (A) (A) (A) (A) (A) (A)
                 (A) (A) (A) (A) (A) (A) (A) (A) (A) (A) (A) (A)
                 (A) (A) (A) (A) (A) (A) (A) (A) (A) (A) (A) (A)
                 (A) (A) (A) (A) (A) (A) (A) (A) (A) (A) (A) (A)
                 (A) (A) (A) (A) (A) (A) (A) (A) (A) (A) (A)
 The electronic state is 1-A.
 Alpha  occ. eigenvalues --  -19.68575 -19.68312 -19.64260 -19.63763 -19.63575
 Alpha  occ. eigenvalues --  -15.01828 -14.82021 -10.67850 -10.64891 -10.62492
 Alpha  occ. eigenvalues --  -10.61443 -10.59768 -10.59708 -10.57584 -10.57513
 Alpha  occ. eigenvalues --  -10.57224 -10.57144 -10.56472 -10.54378  -1.37977
 Alpha  occ. eigenvalues --   -1.19186  -1.18841  -1.14831  -1.13369  -1.08870
 Alpha  occ. eigenvalues --   -0.96430  -0.93951  -0.88484  -0.85076  -0.83422
 Alpha  occ. eigenvalues --   -0.81381  -0.78398  -0.71328  -0.70559  -0.70408
 Alpha  occ. eigenvalues --   -0.68756  -0.67524  -0.65061  -0.64002  -0.62936
 Alpha  occ. eigenvalues --   -0.62140  -0.58943  -0.57524  -0.56671  -0.55703
 Alpha  occ. eigenvalues --   -0.54863  -0.54104  -0.52779  -0.51946  -0.51891
 Alpha  occ. eigenvalues --   -0.51350  -0.50969  -0.49889  -0.47567  -0.46784
 Alpha  occ. eigenvalues --   -0.45950  -0.45025  -0.44411  -0.43663  -0.43608
 Alpha  occ. eigenvalues --   -0.42167  -0.41024  -0.40209  -0.39684  -0.39254
 Alpha  occ. eigenvalues --   -0.37972  -0.37197  -0.35766  -0.34375  -0.32174
 Alpha  occ. eigenvalues --   -0.28213
 Alpha virt. eigenvalues --   -0.03593   0.00289   0.01343   0.05380   0.09685
 Alpha virt. eigenvalues --    0.10840   0.11217   0.12368   0.14179   0.14289
 Alpha virt. eigenvalues --    0.15122   0.15630   0.16112   0.16960   0.17511
 Alpha virt. eigenvalues --    0.17874   0.18239   0.18488   0.19279   0.19672
 Alpha virt. eigenvalues --    0.20355   0.20972   0.21682   0.22383   0.23674
 Alpha virt. eigenvalues --    0.24505   0.27254   0.28487   0.29038   0.30204
 Alpha virt. eigenvalues --    0.31803   0.33182   0.34606   0.35386   0.35919
 Alpha virt. eigenvalues --    0.37224   0.38787   0.41137   0.43321   0.43649
 Alpha virt. eigenvalues --    0.45229   0.45400   0.47071   0.47652   0.49035
 Alpha virt. eigenvalues --    0.49718   0.50206   0.50991   0.51696   0.52062
 Alpha virt. eigenvalues --    0.52666   0.53048   0.53577   0.54616   0.56745
 Alpha virt. eigenvalues --    0.56893   0.58268   0.59831   0.60118   0.61670
 Alpha virt. eigenvalues --    0.62783   0.64437   0.64776   0.65561   0.66519
 Alpha virt. eigenvalues --    0.67362   0.67481   0.68508   0.68556   0.69505
 Alpha virt. eigenvalues --    0.69941   0.70586   0.70852   0.71576   0.71904
 Alpha virt. eigenvalues --    0.72432   0.72808   0.73136   0.73428   0.74035
 Alpha virt. eigenvalues --    0.74358   0.74703   0.75428   0.75848   0.76487
 Alpha virt. eigenvalues --    0.77336   0.77974   0.79205   0.80067   0.80433
 Alpha virt. eigenvalues --    0.81383   0.83123   0.85446   0.87507   0.88419
 Alpha virt. eigenvalues --    0.91073   0.92994   0.93952   0.95798   0.96535
 Alpha virt. eigenvalues --    0.97775   0.98955   1.01978   1.02263   1.03663
 Alpha virt. eigenvalues --    1.06233   1.07613   1.08747   1.09386   1.11085
 Alpha virt. eigenvalues --    1.12135   1.14269   1.14614   1.16766   1.17656
 Alpha virt. eigenvalues --    1.20538   1.22260   1.24300   1.24865   1.25438
 Alpha virt. eigenvalues --    1.27467   1.28749   1.29823   1.29942   1.30267
 Alpha virt. eigenvalues --    1.31911   1.32743   1.34621   1.35486   1.36176
 Alpha virt. eigenvalues --    1.36376   1.37839   1.38836   1.43002   1.44181
 Alpha virt. eigenvalues --    1.45106   1.48438   1.49264   1.52316   1.53666
 Alpha virt. eigenvalues --    1.55846   1.55941   1.57211   1.58062   1.59012
 Alpha virt. eigenvalues --    1.60462   1.62437   1.66288   1.67273   1.70536
 Alpha virt. eigenvalues --    1.70783   1.71654   1.72492   1.73181   1.74166
 Alpha virt. eigenvalues --    1.74984   1.77235   1.78847   1.79064   1.80131
 Alpha virt. eigenvalues --    1.80501   1.80864   1.82026   1.82558   1.82996
 Alpha virt. eigenvalues --    1.83180   1.83975   1.84259   1.84902   1.85367
 Alpha virt. eigenvalues --    1.86071   1.86807   1.87210   1.88918   1.89726
 Alpha virt. eigenvalues --    1.91759   1.92972   1.93431   1.94797   1.96737
 Alpha virt. eigenvalues --    1.97296   1.98467   1.98740   2.00212   2.00704
 Alpha virt. eigenvalues --    2.01594   2.02301   2.06141   2.06892   2.08043
 Alpha virt. eigenvalues --    2.08725   2.10239   2.12439   2.15237   2.16194
 Alpha virt. eigenvalues --    2.17152   2.18187   2.18622   2.19048   2.22292
 Alpha virt. eigenvalues --    2.22878   2.27789   2.28010   2.28959   2.30254
 Alpha virt. eigenvalues --    2.32057   2.33818   2.35376   2.37295   2.38512
 Alpha virt. eigenvalues --    2.40359   2.41472   2.42208   2.43446   2.46064
 Alpha virt. eigenvalues --    2.48348   2.49338   2.49829   2.51799   2.55556
 Alpha virt. eigenvalues --    2.56646   2.58669   2.60537   2.61228   2.62837
 Alpha virt. eigenvalues --    2.63130   2.66802   2.67530   2.68076   2.68974
 Alpha virt. eigenvalues --    2.70641   2.71949   2.72210   2.72937   2.74707
 Alpha virt. eigenvalues --    2.75951   2.78030   2.80832   2.81435   2.82093
 Alpha virt. eigenvalues --    2.84253   2.86115   2.87723   2.89873   2.91781
 Alpha virt. eigenvalues --    2.92089   2.94702   2.95344   2.95653   2.98300
 Alpha virt. eigenvalues --    2.98879   3.02684   3.05574   3.06590   3.10141
 Alpha virt. eigenvalues --    3.10651   3.12265   3.12993   3.18717   3.19996
 Alpha virt. eigenvalues --    3.21563   3.23569   3.24477   3.34823   3.36106
 Alpha virt. eigenvalues --    3.38674   3.48119   3.49080   3.51519   3.64843
 Alpha virt. eigenvalues --    3.71309   3.77241   3.80086   3.83358   3.83613
          Condensed to atoms (all electrons):
               1          2          3          4          5          6
     1  N    6.042526   0.288430   0.259947   0.271438  -0.017857  -0.011439
     2  O    0.288430   8.121395  -0.107764  -0.064080   0.005520   0.003940
     3  O    0.259947  -0.107764   8.173954  -0.072460   0.005404   0.002540
     4  C    0.271438  -0.064080  -0.072460   4.792197   0.364324   0.368711
     5  H   -0.017857   0.005520   0.005404   0.364324   0.572982  -0.015528
     6  H   -0.011439   0.003940   0.002540   0.368711  -0.015528   0.548071
     7  H    0.001299  -0.000685   0.016854  -0.000679  -0.000019  -0.000132
     8  C    0.000000   0.000000   0.000000   0.000082  -0.000016  -0.000012
     9  C    0.000003   0.000002   0.000000  -0.000893  -0.000095   0.000026
    10  C    0.000097  -0.000029  -0.000020   0.005993   0.002519  -0.000990
    11  C    0.007449  -0.000403   0.000276  -0.102780   0.003280  -0.013860
    12  C    0.000137   0.000007  -0.000002  -0.020980  -0.001998   0.006225
    13  C   -0.000001   0.000000   0.000000  -0.000056   0.000088  -0.000005
    14  H    0.000000   0.000000   0.000000   0.000001  -0.000003   0.000000
    15  H    0.000000   0.000000   0.000000   0.000002   0.000006   0.000001
    16  H   -0.000027   0.000000   0.000001  -0.000369   0.000147   0.000830
    17  H    0.000000   0.000000   0.000000   0.000010   0.000002   0.000001
    18  C   -0.027696  -0.018801   0.010275   0.291052  -0.007976   0.001072
    19  C   -0.010542   0.024713  -0.006123  -0.058869   0.001761   0.009415
    20  N   -0.000782  -0.000478  -0.000036   0.006667  -0.000595  -0.000273
    21  O    0.009270  -0.005053  -0.000577  -0.008183  -0.000020  -0.000187
    22  O   -0.003541   0.000084   0.000304  -0.053662   0.003074   0.000991
    23  C   -0.000001   0.000054   0.000000  -0.001030  -0.000048   0.000024
    24  H   -0.000002   0.000001   0.000000   0.000020   0.000009   0.000000
    25  H    0.000017   0.000013   0.000000   0.000064  -0.000042  -0.000003
    26  H   -0.000013   0.000017   0.000002  -0.000174   0.000022   0.000003
    27  O    0.000303   0.000019  -0.006060  -0.000646  -0.000003   0.000066
    28  H    0.000135   0.000004   0.004263   0.005165   0.000017  -0.001594
    29  C   -0.000243  -0.000012   0.001005   0.000306  -0.000006  -0.000074
    30  H   -0.000841   0.000071   0.007438   0.000309   0.000042   0.000543
    31  H   -0.000002   0.000001   0.000243  -0.000013   0.000000   0.000007
    32  C    0.000201  -0.000003  -0.006075  -0.000042   0.000001   0.000021
    33  H   -0.000001   0.000000  -0.000029   0.000001   0.000000  -0.000001
    34  H   -0.000004   0.000000   0.000012   0.000003   0.000000  -0.000001
    35  H   -0.000192   0.000007   0.007041   0.000054  -0.000002   0.000000
               7          8          9         10         11         12
     1  N    0.001299   0.000000   0.000003   0.000097   0.007449   0.000137
     2  O   -0.000685   0.000000   0.000002  -0.000029  -0.000403   0.000007
     3  O    0.016854   0.000000   0.000000  -0.000020   0.000276  -0.000002
     4  C   -0.000679   0.000082  -0.000893   0.005993  -0.102780  -0.020980
     5  H   -0.000019  -0.000016  -0.000095   0.002519   0.003280  -0.001998
     6  H   -0.000132  -0.000012   0.000026  -0.000990  -0.013860   0.006225
     7  H    0.481991   0.000000   0.000000  -0.000017   0.000262   0.000003
     8  C    0.000000   5.141665   0.223953   0.152057  -0.188638   0.112041
     9  C    0.000000   0.223953   5.188755   0.289746   0.065493  -0.133549
    10  C   -0.000017   0.152057   0.289746   5.138473   0.212865   0.080765
    11  C    0.000262  -0.188638   0.065493   0.212865   5.796092   0.259112
    12  C    0.000003   0.112041  -0.133549   0.080765   0.259112   5.165611
    13  C    0.000000   0.253416   0.091163  -0.166310   0.115415   0.241202
    14  H    0.000000   0.452155  -0.065863   0.014233  -0.001308   0.013158
    15  H    0.000000  -0.074946   0.470410  -0.078259   0.019042  -0.002888
    16  H   -0.000001   0.012932  -0.001682   0.014663  -0.075576   0.464309
    17  H    0.000000  -0.070374   0.013613  -0.001575   0.015565  -0.070902
    18  C    0.000787  -0.001264   0.019211  -0.046493   0.060309  -0.078840
    19  C   -0.000254  -0.000112   0.003113  -0.076147  -0.065019   0.014395
    20  N    0.000131   0.007925  -0.081854   0.315212  -0.040420   0.007956
    21  O    0.010100   0.000001  -0.000058   0.001267   0.008341  -0.000047
    22  O    0.001720  -0.000033  -0.000022   0.003467  -0.075803  -0.002448
    23  C   -0.000003  -0.000139   0.002502  -0.045406   0.007015  -0.000043
    24  H    0.000000   0.000206   0.003108  -0.003866  -0.000150  -0.000041
    25  H    0.000000   0.000218   0.001270  -0.006986   0.000836   0.000029
    26  H   -0.000009  -0.000009   0.000513   0.005661  -0.001200   0.000020
    27  O    0.325296   0.000000   0.000000   0.000002  -0.000013   0.000001
    28  H   -0.007121  -0.000001   0.000007  -0.000076   0.006989  -0.000613
    29  C   -0.039120   0.000000   0.000000   0.000000  -0.000018  -0.000001
    30  H   -0.000134   0.000000   0.000000  -0.000003  -0.000006   0.000013
    31  H    0.007343   0.000000   0.000000   0.000000  -0.000001   0.000000
    32  C   -0.006907   0.000000   0.000000   0.000000  -0.000001   0.000000
    33  H    0.000278   0.000000   0.000000   0.000000   0.000000   0.000000
    34  H   -0.000514   0.000000   0.000000   0.000000   0.000000   0.000000
    35  H    0.006311   0.000000   0.000000   0.000000   0.000000   0.000000
              13         14         15         16         17         18
     1  N   -0.000001   0.000000   0.000000  -0.000027   0.000000  -0.027696
     2  O    0.000000   0.000000   0.000000   0.000000   0.000000  -0.018801
     3  O    0.000000   0.000000   0.000000   0.000001   0.000000   0.010275
     4  C   -0.000056   0.000001   0.000002  -0.000369   0.000010   0.291052
     5  H    0.000088  -0.000003   0.000006   0.000147   0.000002  -0.007976
     6  H   -0.000005   0.000000   0.000001   0.000830   0.000001   0.001072
     7  H    0.000000   0.000000   0.000000  -0.000001   0.000000   0.000787
     8  C    0.253416   0.452155  -0.074946   0.012932  -0.070374  -0.001264
     9  C    0.091163  -0.065863   0.470410  -0.001682   0.013613   0.019211
    10  C   -0.166310   0.014233  -0.078259   0.014663  -0.001575  -0.046493
    11  C    0.115415  -0.001308   0.019042  -0.075576   0.015565   0.060309
    12  C    0.241202   0.013158  -0.002888   0.464309  -0.070902  -0.078840
    13  C    5.140409  -0.067767   0.013928  -0.063990   0.457494   0.015558
    14  H   -0.067767   0.630763  -0.010543  -0.000197  -0.011513   0.000016
    15  H    0.013928  -0.010543   0.640807   0.000014  -0.000153  -0.000378
    16  H   -0.063990  -0.000197   0.000014   0.633917  -0.010171  -0.014982
    17  H    0.457494  -0.011513  -0.000153  -0.010171   0.636980  -0.000357
    18  C    0.015558   0.000016  -0.000378  -0.014982  -0.000357   5.806405
    19  C   -0.000726   0.000002  -0.000096   0.000457   0.000012   0.081410
    20  N   -0.000314  -0.000108  -0.012254  -0.000171   0.000010  -0.198899
    21  O    0.000000   0.000000  -0.000001   0.000001   0.000000  -0.095599
    22  O    0.000296   0.000000   0.000002   0.002677   0.000000   0.354752
    23  C    0.000055  -0.000023   0.006970   0.000009   0.000000   0.010744
    24  H   -0.000021   0.000006  -0.000092   0.000000   0.000000  -0.000289
    25  H   -0.000024   0.000003   0.000068   0.000000   0.000000  -0.001103
    26  H    0.000002   0.000000  -0.000123   0.000000   0.000000   0.004368
    27  O    0.000000   0.000000   0.000000   0.000001   0.000000   0.001888
    28  H    0.000009   0.000000   0.000000  -0.000101   0.000000  -0.047165
    29  C    0.000000   0.000000   0.000000   0.000000   0.000000   0.000735
    30  H    0.000000   0.000000   0.000000   0.000001   0.000000  -0.000851
    31  H    0.000000   0.000000   0.000000   0.000000   0.000000   0.000098
    32  C    0.000000   0.000000   0.000000   0.000000   0.000000  -0.000010
    33  H    0.000000   0.000000   0.000000   0.000000   0.000000   0.000000
    34  H    0.000000   0.000000   0.000000   0.000000   0.000000  -0.000004
    35  H    0.000000   0.000000   0.000000   0.000000   0.000000   0.000011
              19         20         21         22         23         24
     1  N   -0.010542  -0.000782   0.009270  -0.003541  -0.000001  -0.000002
     2  O    0.024713  -0.000478  -0.005053   0.000084   0.000054   0.000001
     3  O   -0.006123  -0.000036  -0.000577   0.000304   0.000000   0.000000
     4  C   -0.058869   0.006667  -0.008183  -0.053662  -0.001030   0.000020
     5  H    0.001761  -0.000595  -0.000020   0.003074  -0.000048   0.000009
     6  H    0.009415  -0.000273  -0.000187   0.000991   0.000024   0.000000
     7  H   -0.000254   0.000131   0.010100   0.001720  -0.000003   0.000000
     8  C   -0.000112   0.007925   0.000001  -0.000033  -0.000139   0.000206
     9  C    0.003113  -0.081854  -0.000058  -0.000022   0.002502   0.003108
    10  C   -0.076147   0.315212   0.001267   0.003467  -0.045406  -0.003866
    11  C   -0.065019  -0.040420   0.008341  -0.075803   0.007015  -0.000150
    12  C    0.014395   0.007956  -0.000047  -0.002448  -0.000043  -0.000041
    13  C   -0.000726  -0.000314   0.000000   0.000296   0.000055  -0.000021
    14  H    0.000002  -0.000108   0.000000   0.000000  -0.000023   0.000006
    15  H   -0.000096  -0.012254  -0.000001   0.000002   0.006970  -0.000092
    16  H    0.000457  -0.000171   0.000001   0.002677   0.000009   0.000000
    17  H    0.000012   0.000010   0.000000   0.000000   0.000000   0.000000
    18  C    0.081410  -0.198899  -0.095599   0.354752   0.010744  -0.000289
    19  C    4.855524   0.319220   0.730072  -0.029589  -0.027003   0.000259
    20  N    0.319220   6.887753  -0.090529   0.002320   0.281284  -0.026025
    21  O    0.730072  -0.090529   7.699624  -0.002131  -0.004897   0.000106
    22  O   -0.029589   0.002320  -0.002131   7.818824  -0.000108   0.000008
    23  C   -0.027003   0.281284  -0.004897  -0.000108   4.498615   0.408567
    24  H    0.000259  -0.026025   0.000106   0.000008   0.408567   0.582507
    25  H    0.003733  -0.025070   0.000250   0.000000   0.407113  -0.027979
    26  H   -0.003291  -0.027621   0.015176  -0.000019   0.396659  -0.017722
    27  O   -0.000324  -0.000004  -0.001713  -0.026437   0.000000   0.000000
    28  H   -0.006640   0.001237   0.012192   0.322655  -0.000050   0.000011
    29  C   -0.000225  -0.000001  -0.000197   0.001259   0.000000   0.000000
    30  H    0.000038  -0.000002   0.000019   0.008870   0.000000   0.000000
    31  H   -0.000012   0.000000  -0.000009   0.000105   0.000000   0.000000
    32  C    0.000003   0.000000  -0.000014   0.000079   0.000000   0.000000
    33  H    0.000000   0.000000   0.000000   0.000004   0.000000   0.000000
    34  H    0.000000   0.000000   0.000001  -0.000001   0.000000   0.000000
    35  H   -0.000002   0.000000  -0.000013   0.000006   0.000000   0.000000
              25         26         27         28         29         30
     1  N    0.000017  -0.000013   0.000303   0.000135  -0.000243  -0.000841
     2  O    0.000013   0.000017   0.000019   0.000004  -0.000012   0.000071
     3  O    0.000000   0.000002  -0.006060   0.004263   0.001005   0.007438
     4  C    0.000064  -0.000174  -0.000646   0.005165   0.000306   0.000309
     5  H   -0.000042   0.000022  -0.000003   0.000017  -0.000006   0.000042
     6  H   -0.000003   0.000003   0.000066  -0.001594  -0.000074   0.000543
     7  H    0.000000  -0.000009   0.325296  -0.007121  -0.039120  -0.000134
     8  C    0.000218  -0.000009   0.000000  -0.000001   0.000000   0.000000
     9  C    0.001270   0.000513   0.000000   0.000007   0.000000   0.000000
    10  C   -0.006986   0.005661   0.000002  -0.000076   0.000000  -0.000003
    11  C    0.000836  -0.001200  -0.000013   0.006989  -0.000018  -0.000006
    12  C    0.000029   0.000020   0.000001  -0.000613  -0.000001   0.000013
    13  C   -0.000024   0.000002   0.000000   0.000009   0.000000   0.000000
    14  H    0.000003   0.000000   0.000000   0.000000   0.000000   0.000000
    15  H    0.000068  -0.000123   0.000000   0.000000   0.000000   0.000000
    16  H    0.000000   0.000000   0.000001  -0.000101   0.000000   0.000001
    17  H    0.000000   0.000000   0.000000   0.000000   0.000000   0.000000
    18  C   -0.001103   0.004368   0.001888  -0.047165   0.000735  -0.000851
    19  C    0.003733  -0.003291  -0.000324  -0.006640  -0.000225   0.000038
    20  N   -0.025070  -0.027621  -0.000004   0.001237  -0.000001  -0.000002
    21  O    0.000250   0.015176  -0.001713   0.012192  -0.000197   0.000019
    22  O    0.000000  -0.000019  -0.026437   0.322655   0.001259   0.008870
    23  C    0.407113   0.396659   0.000000  -0.000050   0.000000   0.000000
    24  H   -0.027979  -0.017722   0.000000   0.000011   0.000000   0.000000
    25  H    0.580705  -0.015815   0.000000  -0.000003   0.000000   0.000000
    26  H   -0.015815   0.561577   0.000001  -0.000047   0.000000   0.000000
    27  O    0.000000   0.000001   7.859650   0.077594   0.276872  -0.038164
    28  H   -0.000003  -0.000047   0.077594   0.437737  -0.007504  -0.006013
    29  C    0.000000   0.000000   0.276872  -0.007504   4.512161   0.383272
    30  H    0.000000   0.000000  -0.038164  -0.006013   0.383272   0.686419
    31  H    0.000000   0.000000  -0.030350  -0.001378   0.386209  -0.037138
    32  C    0.000000   0.000000  -0.041666   0.001800   0.442179  -0.035501
    33  H    0.000000   0.000000   0.003785  -0.000146  -0.014084  -0.001187
    34  H    0.000000   0.000000   0.003462  -0.000014  -0.022729   0.009089
    35  H    0.000000   0.000000  -0.003499  -0.000204  -0.024380  -0.011897
              31         32         33         34         35
     1  N   -0.000002   0.000201  -0.000001  -0.000004  -0.000192
     2  O    0.000001  -0.000003   0.000000   0.000000   0.000007
     3  O    0.000243  -0.006075  -0.000029   0.000012   0.007041
     4  C   -0.000013  -0.000042   0.000001   0.000003   0.000054
     5  H    0.000000   0.000001   0.000000   0.000000  -0.000002
     6  H    0.000007   0.000021  -0.000001  -0.000001   0.000000
     7  H    0.007343  -0.006907   0.000278  -0.000514   0.006311
     8  C    0.000000   0.000000   0.000000   0.000000   0.000000
     9  C    0.000000   0.000000   0.000000   0.000000   0.000000
    10  C    0.000000   0.000000   0.000000   0.000000   0.000000
    11  C   -0.000001  -0.000001   0.000000   0.000000   0.000000
    12  C    0.000000   0.000000   0.000000   0.000000   0.000000
    13  C    0.000000   0.000000   0.000000   0.000000   0.000000
    14  H    0.000000   0.000000   0.000000   0.000000   0.000000
    15  H    0.000000   0.000000   0.000000   0.000000   0.000000
    16  H    0.000000   0.000000   0.000000   0.000000   0.000000
    17  H    0.000000   0.000000   0.000000   0.000000   0.000000
    18  C    0.000098  -0.000010   0.000000  -0.000004   0.000011
    19  C   -0.000012   0.000003   0.000000   0.000000  -0.000002
    20  N    0.000000   0.000000   0.000000   0.000000   0.000000
    21  O   -0.000009  -0.000014   0.000000   0.000001  -0.000013
    22  O    0.000105   0.000079   0.000004  -0.000001   0.000006
    23  C    0.000000   0.000000   0.000000   0.000000   0.000000
    24  H    0.000000   0.000000   0.000000   0.000000   0.000000
    25  H    0.000000   0.000000   0.000000   0.000000   0.000000
    26  H    0.000000   0.000000   0.000000   0.000000   0.000000
    27  O   -0.030350  -0.041666   0.003785   0.003462  -0.003499
    28  H   -0.001378   0.001800  -0.000146  -0.000014  -0.000204
    29  C    0.386209   0.442179  -0.014084  -0.022729  -0.024380
    30  H   -0.037138  -0.035501  -0.001187   0.009089  -0.011897
    31  H    0.650448  -0.017961  -0.003934  -0.011843   0.007480
    32  C   -0.017961   4.625351   0.379346   0.386213   0.396167
    33  H   -0.003934   0.379346   0.612630  -0.016610  -0.017660
    34  H   -0.011843   0.386213  -0.016610   0.626813  -0.028738
    35  H    0.007480   0.396167  -0.017660  -0.028738   0.618087
 Mulliken charges:
               1
     1  N    0.191933
     2  O   -0.246969
     3  O   -0.290412
     4  C    0.278517
     5  H    0.085010
     6  H    0.101613
     7  H    0.203219
     8  C   -0.021108
     9  C   -0.088872
    10  C    0.189159
    11  C   -0.013143
    12  C   -0.052633
    13  C   -0.029824
    14  H    0.046987
    15  H    0.028483
    16  H    0.037308
    17  H    0.041360
    18  C   -0.117982
    19  C    0.240845
    20  N   -0.324277
    21  O   -0.277189
    22  O   -0.327703
    23  C    0.059141
    24  H    0.081378
    25  H    0.082704
    26  H    0.082023
    27  O   -0.400060
    28  H    0.208854
    29  C    0.104599
    30  H    0.035615
    31  H    0.050709
    32  C   -0.123182
    33  H    0.057609
    34  H    0.054865
    35  H    0.051423
 Sum of Mulliken charges =   0.00000
 Mulliken charges with hydrogens summed into heavy atoms:
               1
     1  N    0.191933
     2  O   -0.246969
     3  O   -0.290412
     4  C    0.465139
     8  C    0.025879
     9  C   -0.060388
    10  C    0.189159
    11  C   -0.013143
    12  C   -0.015325
    13  C    0.011537
    18  C   -0.117982
    19  C    0.240845
    20  N   -0.324277
    21  O   -0.277189
    22  O   -0.118849
    23  C    0.305246
    27  O   -0.196841
    29  C    0.190923
    32  C    0.040716
 Electronic spatial extent (au):  <R**2>=           5401.6533
 Charge=              0.0000 electrons
 Dipole moment (field-independent basis, Debye):
    X=             -5.3247    Y=             -1.5725    Z=              2.3673  Tot=              6.0357
 Quadrupole moment (field-independent basis, Debye-Ang):
   XX=            -93.1498   YY=           -106.8993   ZZ=           -115.6970
   XY=            -10.7156   XZ=              1.3693   YZ=             -6.6225
 Traceless Quadrupole moment (field-independent basis, Debye-Ang):
   XX=             12.0989   YY=             -1.6506   ZZ=            -10.4483
   XY=            -10.7156   XZ=              1.3693   YZ=             -6.6225
 Octapole moment (field-independent basis, Debye-Ang**2):
  XXX=             -5.8680  YYY=              3.4981  ZZZ=             12.4232  XYY=            -19.6332
  XXY=             -6.3008  XXZ=             -9.1384  XZZ=              8.0458  YZZ=             -0.9641
  YYZ=             -2.8453  XYZ=              9.4471
 Hexadecapole moment (field-independent basis, Debye-Ang**3):
 XXXX=          -4526.3750 YYYY=          -1257.3073 ZZZZ=           -681.5629 XXXY=            -71.3186
 XXXZ=            -16.3022 YYYX=            -35.4581 YYYZ=            -33.5220 ZZZX=             19.4781
 ZZZY=             -4.3177 XXYY=           -946.2882 XXZZ=          -1022.6649 YYZZ=           -357.7138
 XXYZ=            -15.6068 YYXZ=             -6.7747 ZZXY=            -41.7356
 N-N= 1.547321492391D+03 E-N=-5.314114772631D+03  KE= 9.428688863917D+02
   1 Symmetry operations used in ECPInt.
 ECPInt:  NShTT=   13203 NPrTT=   47881 LenC2=   12050 LenP2D=   30861.
 LDataN:  DoStor=T MaxTD1= 5 Len=  102
 D1PCM: C-PCM CHGder 1st derivatives, ID1Alg=3 FixD1E=F DoIter=F DoCFld=F I1PDM=0.
 Calling FoFJK, ICntrl=      2127 FMM=F ISym2X=0 I1Cent= 0 IOpClX= 0 NMat=1 NMatS=1 NMatT=0.
 ***** Axes restored to original set *****
 -------------------------------------------------------------------
 Center     Atomic                   Forces (Hartrees/Bohr)
 Number     Number              X              Y              Z
 -------------------------------------------------------------------
      1        7           0.000027837   -0.000117597    0.000220803
      2        8           0.000416545   -0.000280350    0.001062077
      3        8           0.000051698    0.000233327   -0.000634363
      4        6          -0.000068403   -0.000075740    0.000151170
      5        1           0.000143635   -0.000113460    0.000064680
      6        1          -0.000027645    0.000058030    0.000073530
      7        1          -0.000108054    0.000083272    0.000071497
      8        6           0.000067365   -0.000220386   -0.000224386
      9        6           0.000084789    0.000024226   -0.000597125
     10        6           0.000135881   -0.000160957    0.000031239
     11        6          -0.000177193    0.000187162   -0.000012868
     12        6          -0.000151897    0.000056777    0.000446841
     13        6          -0.000102670    0.000277907    0.000115375
     14        1           0.000009038   -0.000010626   -0.000041751
     15        1          -0.000008852   -0.000074796   -0.000014386
     16        1           0.000061965    0.000064680    0.000037214
     17        1          -0.000006578   -0.000036670    0.000002211
     18        6          -0.000014507   -0.000006725    0.000415925
     19        6           0.000120072    0.000106830    0.000224858
     20        7          -0.000018255   -0.000111087   -0.000400169
     21        8           0.000180443    0.000275503    0.000604941
     22        8          -0.000179477    0.000263791    0.000407260
     23        6           0.000055642   -0.000239000   -0.000632581
     24        1           0.000016280    0.000037620   -0.000060923
     25        1          -0.000074188   -0.000061031   -0.000081474
     26        1           0.000000937    0.000003090   -0.000104928
     27        8          -0.000182557   -0.000324781   -0.000641552
     28        1           0.000029927   -0.000217895   -0.000063736
     29        6          -0.000036037    0.000022888   -0.000116718
     30        1          -0.000043031    0.000128448    0.000022143
     31        1          -0.000024862   -0.000003988   -0.000007186
     32        6          -0.000168993    0.000355160   -0.000228174
     33        1           0.000035310   -0.000008042   -0.000028482
     34        1          -0.000000709   -0.000050809   -0.000009706
     35        1          -0.000043457   -0.000064769   -0.000051257
 -------------------------------------------------------------------
 Cartesian Forces:  Max     0.001062077 RMS     0.000227782

 GradGradGradGradGradGradGradGradGradGradGradGradGradGradGradGradGradGrad
 Berny optimization.
 FormGI is forming the generalized inverse of G from B-inverse, IUseBI=4.
 Internal  Forces:  Max     0.003954483 RMS     0.000631154
 Search for a local minimum.
 Step number   1 out of a maximum of  194
 All quantities printed in internal units (Hartrees-Bohrs-Radians)
 Mixed Optimization -- En-DIIS/RFO-DIIS
 Second derivative matrix not updated -- first step.
 ITU=  0
     Eigenvalues ---    0.00230   0.00230   0.00230   0.00230   0.00483
     Eigenvalues ---    0.00494   0.00563   0.00759   0.01054   0.01098
     Eigenvalues ---    0.01386   0.01520   0.01588   0.01825   0.01968
     Eigenvalues ---    0.02005   0.02090   0.02116   0.02117   0.02166
     Eigenvalues ---    0.02187   0.02214   0.04420   0.04479   0.05314
     Eigenvalues ---    0.05561   0.05625   0.05720   0.05774   0.05775
     Eigenvalues ---    0.06872   0.06946   0.07539   0.07853   0.09021
     Eigenvalues ---    0.09487   0.09645   0.11394   0.12463   0.12746
     Eigenvalues ---    0.12882   0.15999   0.15999   0.16000   0.16000
     Eigenvalues ---    0.16000   0.16000   0.16000   0.16000   0.16000
     Eigenvalues ---    0.16000   0.16000   0.16000   0.19425   0.21964
     Eigenvalues ---    0.21999   0.22120   0.22600   0.24500   0.24733
     Eigenvalues ---    0.24811   0.24985   0.25000   0.25000   0.27190
     Eigenvalues ---    0.27280   0.30314   0.30819   0.33298   0.33383
     Eigenvalues ---    0.33623   0.33748   0.33778   0.33783   0.33818
     Eigenvalues ---    0.33836   0.34152   0.34161   0.34381   0.34632
     Eigenvalues ---    0.34697   0.34781   0.34788   0.38922   0.39445
     Eigenvalues ---    0.41914   0.41989   0.42528   0.44613   0.45891
     Eigenvalues ---    0.46949   0.47998   0.49262   0.49753   0.49759
     Eigenvalues ---    0.53674   0.98571   0.99838   1.03126
 RFO step:  Lambda=-5.14082045D-03 EMin= 2.30000000D-03
 Linear search not attempted -- first point.
 Maximum step size (   0.300) exceeded in Quadratic search.
    -- Step size scaled by   0.450
 Iteration  1 RMS(Cart)=  0.16681235 RMS(Int)=  0.01232972
 Iteration  2 RMS(Cart)=  0.11996427 RMS(Int)=  0.00336530
 Iteration  3 RMS(Cart)=  0.00765175 RMS(Int)=  0.00019829
 Iteration  4 RMS(Cart)=  0.00002453 RMS(Int)=  0.00019808
 Iteration  5 RMS(Cart)=  0.00000001 RMS(Int)=  0.00019808
 Variable       Old X    -DE/DX   Delta X   Delta X   Delta X     New X
                                 (Linear)    (Quad)   (Total)
    R1        2.27412  -0.00016   0.00000  -0.00007  -0.00007   2.27405
    R2        2.29217   0.00007   0.00000   0.00003   0.00003   2.29220
    R3        2.81831   0.00029   0.00000   0.00039   0.00039   2.81870
    R4        2.06692  -0.00013   0.00000  -0.00016  -0.00016   2.06675
    R5        2.07074  -0.00002   0.00000  -0.00003  -0.00003   2.07071
    R6        2.93945   0.00106   0.00000   0.00172   0.00172   2.94116
    R7        1.83030   0.00012   0.00000   0.00010   0.00010   1.83040
    R8        2.64914   0.00001   0.00000  -0.00005  -0.00005   2.64909
    R9        2.63544  -0.00016   0.00000  -0.00026  -0.00025   2.63519
   R10        2.06170  -0.00001   0.00000  -0.00001  -0.00001   2.06168
   R11        2.62242  -0.00009   0.00000  -0.00003  -0.00004   2.62238
   R12        2.06020  -0.00005   0.00000  -0.00006  -0.00006   2.06014
   R13        2.64997   0.00002   0.00000  -0.00002  -0.00002   2.64995
   R14        2.65525   0.00003   0.00000  -0.00028  -0.00024   2.65501
   R15        2.61309   0.00000   0.00000   0.00007   0.00006   2.61315
   R16        2.85323   0.00017   0.00000   0.00051   0.00049   2.85372
   R17        2.65101   0.00003   0.00000  -0.00002  -0.00002   2.65099
   R18        2.06276  -0.00001   0.00000  -0.00001  -0.00001   2.06275
   R19        2.06032   0.00004   0.00000   0.00004   0.00004   2.06037
   R20        2.92431  -0.00001   0.00000   0.00044   0.00042   2.92473
   R21        2.60617  -0.00033   0.00000  -0.00030  -0.00030   2.60587
   R22        2.58106  -0.00020   0.00000  -0.00023  -0.00022   2.58084
   R23        2.28704   0.00008   0.00000   0.00003   0.00003   2.28707
   R24        2.73044   0.00006   0.00000   0.00007   0.00007   2.73051
   R25        1.86815  -0.00011   0.00000  -0.00010  -0.00011   1.86804
   R26        2.07758   0.00002   0.00000   0.00003   0.00003   2.07760
   R27        2.07639  -0.00003   0.00000  -0.00004  -0.00004   2.07634
   R28        2.07059   0.00003   0.00000   0.00004   0.00004   2.07062
   R29        3.27466  -0.00030   0.00000  -0.00180  -0.00179   3.27287
   R30        2.68937  -0.00063   0.00000  -0.00067  -0.00067   2.68870
   R31        2.08385  -0.00002   0.00000  -0.00003  -0.00003   2.08382
   R32        2.07706   0.00001   0.00000   0.00001   0.00001   2.07707
   R33        2.86360  -0.00018   0.00000  -0.00027  -0.00027   2.86334
   R34        2.07607   0.00001   0.00000   0.00002   0.00002   2.07609
   R35        2.07698  -0.00001   0.00000  -0.00001  -0.00001   2.07697
   R36        2.07971  -0.00008   0.00000  -0.00010  -0.00010   2.07961
    A1        2.17893  -0.00033   0.00000  -0.00038  -0.00041   2.17851
    A2        2.05485   0.00039   0.00000   0.00089   0.00086   2.05571
    A3        2.04837  -0.00004   0.00000   0.00014   0.00011   2.04848
    A4        1.85064  -0.00053   0.00000   0.00140   0.00138   1.85202
    A5        1.87575  -0.00061   0.00000  -0.00314  -0.00313   1.87262
    A6        1.92933   0.00176   0.00000   0.00391   0.00390   1.93322
    A7        1.96032   0.00015   0.00000  -0.00104  -0.00104   1.95928
    A8        1.94791   0.00031   0.00000   0.00354   0.00352   1.95143
    A9        1.89841  -0.00103   0.00000  -0.00459  -0.00459   1.89382
   A10        2.12161   0.00001   0.00000  -0.00009  -0.00009   2.12152
   A11        2.07597   0.00000   0.00000   0.00005   0.00005   2.07602
   A12        2.08557   0.00000   0.00000   0.00005   0.00005   2.08562
   A13        2.04652  -0.00004   0.00000   0.00017   0.00015   2.04667
   A14        2.11553  -0.00003   0.00000  -0.00020  -0.00020   2.11534
   A15        2.12106   0.00007   0.00000   0.00005   0.00006   2.12112
   A16        2.12232   0.00007   0.00000   0.00009   0.00009   2.12242
   A17        2.23772  -0.00015   0.00000  -0.00102  -0.00097   2.23675
   A18        1.92295   0.00007   0.00000   0.00089   0.00084   1.92379
   A19        2.10862  -0.00006   0.00000  -0.00028  -0.00028   2.10834
   A20        1.88181   0.00002   0.00000   0.00172   0.00159   1.88340
   A21        2.29100   0.00008   0.00000  -0.00064  -0.00060   2.29041
   A22        2.06578  -0.00002   0.00000   0.00025   0.00024   2.06602
   A23        2.10599  -0.00007   0.00000  -0.00035  -0.00035   2.10564
   A24        2.11141   0.00009   0.00000   0.00010   0.00011   2.11152
   A25        2.10108   0.00004   0.00000   0.00001   0.00001   2.10109
   A26        2.09046  -0.00001   0.00000   0.00003   0.00003   2.09049
   A27        2.09163  -0.00003   0.00000  -0.00002  -0.00003   2.09160
   A28        1.84903   0.00032   0.00000   0.00329   0.00330   1.85233
   A29        1.87328   0.00120   0.00000   0.00645   0.00646   1.87974
   A30        1.97254  -0.00012   0.00000  -0.00005  -0.00006   1.97248
   A31        1.77515  -0.00013   0.00000   0.00192   0.00181   1.77697
   A32        2.00148  -0.00041   0.00000  -0.00538  -0.00536   1.99612
   A33        1.97615  -0.00072   0.00000  -0.00501  -0.00499   1.97116
   A34        1.88151   0.00028   0.00000   0.00270   0.00252   1.88403
   A35        2.17004  -0.00024   0.00000  -0.00128  -0.00127   2.16877
   A36        2.23129  -0.00002   0.00000  -0.00094  -0.00093   2.23036
   A37        1.93063  -0.00010   0.00000   0.00117   0.00110   1.93173
   A38        2.17596   0.00010   0.00000  -0.00037  -0.00034   2.17562
   A39        2.17021  -0.00003   0.00000  -0.00073  -0.00070   2.16951
   A40        1.93949   0.00029   0.00000   0.00079   0.00079   1.94027
   A41        1.93181   0.00003   0.00000   0.00001   0.00001   1.93183
   A42        1.92571   0.00001   0.00000   0.00007   0.00007   1.92578
   A43        1.87996   0.00004   0.00000   0.00015   0.00015   1.88012
   A44        1.90614  -0.00005   0.00000  -0.00020  -0.00020   1.90593
   A45        1.90907  -0.00008   0.00000  -0.00031  -0.00031   1.90876
   A46        1.91089   0.00005   0.00000   0.00029   0.00029   1.91117
   A47        1.65981  -0.00016   0.00000   0.00010   0.00023   1.66004
   A48        1.88172  -0.00018   0.00000  -0.00033  -0.00178   1.87995
   A49        1.80582   0.00109   0.00000   0.00315   0.00296   1.80878
   A50        1.91585   0.00016   0.00000   0.00014   0.00014   1.91599
   A51        1.85056   0.00022   0.00000   0.00015   0.00015   1.85071
[...]
 016253,0.02209645,0.13637761,0.00068926,-0.00077684,-0.00056964,0.0000
 2184,0.00016205,0.00006012,0.00131649,-0.00128239,-0.00090891,-0.00000
 155,0.00000470,-0.00000122,0.00000387,0.00000368,0.00001059,0.00000208
 ,0.00000445,-0.00000454,0.00014761,-0.00107782,-0.00094156,-0.00000752
 ,0.00000152,-0.00000038,-0.00002114,-0.00001078,-0.00000084,0.00004053
 ,0.00006261,-0.00003655,-0.00000742,0.00002080,0.00004386,-0.00000362,
 0.00001963,-0.00001347,-0.00001126,-0.00001071,0.00000216,-0.00000281,
 -0.00000133,0.00000025,-0.00000177,0.00000142,-0.00000185,0.00000499,-
 0.00000023,0.00000122,-0.00000499,-0.00000130,0.00000023,0.00011173,-0
 .00017828,-0.00009529,0.00053850,0.00009856,0.00000913,-0.00025998,0.0
 0001869,-0.00005658,-0.00052348,0.00012347,0.00014706,-0.00094698,-0.0
 0024712,0.00040640,-0.00000263,-0.00004626,0.00002120,-0.00000519,0.00
 001094,-0.00000915,-0.00000705,0.00001075,-0.00000405,0.00000505,-0.00
 000443,0.00000269,-0.01148023,0.00858445,-0.00522916,0.00115847,0.0008
 6853,-0.00079554,0.03969336,0.11617531,-0.23232789,-0.03418524,-0.1283
 0171,0.24798102,0.00028711,-0.00042055,-0.00034562,-0.00003471,0.00032
 586,0.00013506,-0.00027216,0.00016015,0.00026871,0.00002937,0.00000959
 ,-0.00000917,0.00000327,0.00000353,0.00001315,-0.00000120,0.00000116,-
 0.00000463,-0.00466304,-0.00142174,-0.00048121,-0.00001068,-0.00000167
 ,0.00000190,-0.00003774,-0.00002119,0.00000221,0.00008793,0.00014520,-
 0.00008537,0.00001185,-0.00001700,0.00005669,-0.00000470,0.00003529,-0
 .00001956,-0.00002734,-0.00001746,0.00000361,-0.00000612,-0.00000264,0
 .00000092,-0.00000187,0.00000229,-0.00000261,0.00000749,-0.00000129,0.
 00000207,-0.00000776,-0.00000250,0.00000032,0.00017682,-0.00017547,-0.
 00013120,0.00114579,0.00028655,-0.00000087,-0.00057529,0.00001789,-0.0
 0011560,-0.00143162,0.00044573,0.00033067,-0.00085848,-0.00029458,0.00
 036916,-0.00000488,-0.00009557,0.00004505,-0.00001090,0.00002240,-0.00
 001878,-0.00001474,0.00002133,-0.00000800,0.00001058,-0.00000961,0.000
 00696,-0.02084631,0.02890404,0.01771235,0.00128526,0.00088366,-0.00042
 066,-0.07266678,0.04560887,0.06087411,0.00003464,0.00294712,0.00511608
 ,0.09121259,-0.00003483,0.00017588,0.00017254,-0.00006225,0.00003546,0
 .00002321,-0.00029224,0.00022749,0.00000219,0.00000938,-0.00000149,0.0
 0001165,-0.00001102,-0.00000635,-0.00000857,-0.00000622,-0.00000089,-0
 .00000121,0.00210486,0.00135936,0.00059845,0.00000519,-0.00000180,0.00
 000019,0.00002207,0.00001322,-0.00000138,-0.00005132,-0.00007752,0.000
 04497,-0.00000084,0.00000230,-0.00004047,0.00000397,-0.00001526,0.0000
 0956,0.00001121,0.00001080,-0.00000245,0.00000272,0.00000135,-0.000000
 63,0.00000076,-0.00000154,0.00000151,-0.00000342,0.00000049,-0.0000011
 0,0.00000379,0.00000125,-0.00000018,-0.00010625,0.00011771,0.00011256,
 -0.00060569,-0.00016096,0.00001442,0.00029939,-0.00000297,0.00005919,0
 .00072846,-0.00018761,-0.00019989,0.00050835,0.00014882,-0.00026720,0.
 00000181,0.00004903,-0.00002268,0.00000565,-0.00001140,0.00000958,0.00
 000728,-0.00001083,0.00000398,-0.00000525,0.00000467,-0.00000376,0.011
 34991,-0.01122629,-0.00716717,-0.00083425,-0.00053894,0.00045434,0.049
 16392,-0.14258992,-0.11313907,-0.00547426,0.01141243,0.01182595,-0.060
 96520,0.15581881,-0.00055923,0.00055364,0.00030948,0.00017647,-0.00055
 702,-0.00027001,0.00105590,-0.00046337,-0.00057403,-0.00002327,-0.0000
 5269,0.00001586,0.00002897,0.00001096,0.00000165,0.00001700,-0.0000023
 8,0.00001029,-0.00231359,0.00172833,0.00022724,0.00000577,0.00000066,0
 .00000125,0.00000146,-0.00000470,0.00000098,0.00001129,0.00002074,-0.0
 0001433,-0.00001229,-0.00001038,0.00002819,0.00000326,-0.00000639,0.00
 000450,0.00000061,-0.00000164,-0.00000073,0.00000029,-0.00000018,0.000
 00018,0.00000223,-0.00000112,0.00000019,-0.00000268,-0.00000114,0.0000
 0028,0.00000241,0.00000036,-0.00000040,-0.00003935,0.00003132,-0.00004
 760,0.00006938,0.00012861,-0.00005363,-0.00005213,-0.00003268,-0.00000
 467,-0.00028170,0.00009126,0.00012240,0.00011025,-0.00000004,0.0000042
 4,0.00000170,-0.00000067,-0.00000054,0.00000115,-0.00000009,0.00000008
 ,-0.00000020,-0.00000113,0.00000079,0.00000038,-0.00000100,0.00000060,
 -0.00707250,0.01071645,0.01306488,-0.00031807,-0.00004410,-0.00004759,
 0.06803822,-0.12020577,-0.20237531,0.00708255,-0.01517599,-0.01667715,
 -0.06562515,0.12544362,0.20705258,0.00011783,-0.00059157,-0.00030496,0
 .00009161,0.00020797,0.00010603,-0.00042514,-0.00009355,0.00075524,-0.
 00001698,0.00008257,0.00001971,0.00000757,0.00001328,0.00002098,0.0000
 0545,0.00000757,-0.00001792,0.00178809,-0.00279186,-0.00088805,-0.0000
 1244,-0.00001022,0.00000346,-0.00000949,0.00000093,-0.00000882,-0.0000
 0478,0.00003323,-0.00002191,-0.00002148,0.00006729,0.00007483,0.000006
 97,0.00003542,-0.00002616,-0.00002318,-0.00000314,-0.00000360,-0.00000
 503,-0.00000118,0.00000004,-0.00000499,0.00000154,-0.00000203,0.000010
 38,-0.00000005,0.00000171,-0.00000836,-0.00000288,0.00000063,0.0002839
 2,-0.00047791,-0.00033283,0.00044529,-0.00008393,0.00010075,-0.0001999
 7,0.00007585,-0.00008328,-0.00034597,0.00026354,0.00004839,-0.00175035
 ,-0.00039286,0.00108524,-0.00000850,-0.00005322,0.00001709,-0.00000668
 ,0.00001356,-0.00001065,-0.00000861,0.00001246,-0.00000407,0.00000542,
 -0.00000304,0.00000153,-0.04472300,-0.02084199,-0.01321688,0.00223816,
 0.00112454,-0.00185205,-0.13212464,-0.06341044,-0.01170771,-0.00297241
 ,-0.00593792,-0.00104086,0.00853046,0.00681903,0.00138233,0.56144386,0
 .00040182,-0.00061306,-0.00044208,-0.00008259,0.00019997,0.00028476,-0
 .00106727,-0.00013223,0.00059959,-0.00003319,0.00009050,-0.00008169,-0
 .00005070,-0.00001926,-0.00003157,-0.00000650,0.00000336,0.00000912,0.
 00014266,0.00402139,0.00120081,0.00000416,0.00000286,-0.00000147,0.000
 00726,0.00000373,0.00000802,-0.00000517,-0.00002342,0.00001645,0.00002
 015,-0.00005552,-0.00008143,-0.00000203,-0.00001886,0.00001227,0.00001
 163,0.00000528,0.00000336,0.00000301,0.00000048,-0.00000055,0.00000255
 ,-0.00000071,0.00000154,-0.00000572,0.00000089,-0.00000219,0.00000367,
 0.00000133,-0.00000048,-0.00024306,0.00037039,0.00031942,-0.00037341,0
 .00003186,-0.00001443,0.00013480,-0.00004185,0.00005576,0.00025774,-0.
 00021590,-0.00009694,0.00130910,0.00031863,-0.00081781,0.00000511,0.00
 003280,-0.00000792,0.00000410,-0.00000893,0.00000711,0.00000540,-0.000
 00709,0.00000217,-0.00000304,0.00000228,-0.00000144,0.01887836,0.01209
 977,0.00384787,-0.00174753,-0.00102430,0.00130460,-0.07882029,-0.17514
 414,-0.02174236,-0.01203450,-0.01277303,-0.00522635,-0.01387298,-0.013
 31036,-0.00140260,-0.04461506,0.54212094,0.00031666,-0.00015738,-0.000
 29629,-0.00006040,0.00010919,0.00013192,-0.00001374,-0.00035028,0.0004
 1167,-0.00001138,0.00001685,-0.00007066,0.00000308,0.00000839,0.000009
 31,-0.00000469,0.00000439,-0.00000342,0.00215004,0.00020925,0.00234593
 ,-0.00000703,0.00000162,-0.00000136,-0.00001968,-0.00000962,0.00000130
 ,0.00003378,0.00005766,-0.00002994,0.00000629,0.00000658,0.00002440,-0
 .00000485,0.00001771,-0.00001185,-0.00001090,-0.00000783,0.00000221,-0
 .00000245,-0.00000123,0.00000044,-0.00000222,0.00000217,-0.00000153,0.
 00000473,-0.00000050,0.00000076,-0.00000487,-0.00000183,0.00000065,0.0
 0007928,-0.00013482,-0.00007244,0.00045779,0.00007062,-0.00000553,-0.0
 0024697,0.00002562,-0.00005028,-0.00049081,0.00007193,0.00003601,-0.00
 064538,-0.00020500,0.00036203,-0.00000246,-0.00004430,0.00001873,-0.00
 000583,0.00001006,-0.00000874,-0.00000627,0.00001052,-0.00000368,0.000
 00494,-0.00000411,0.00000334,-0.01513492,-0.00941727,-0.00213919,0.000
 66396,0.00053524,-0.00068854,-0.01349781,-0.01638593,-0.08842036,0.018
 85875,0.01998101,0.00728563,-0.01782854,-0.01777300,-0.00307885,-0.007
 16675,-0.01785030,0.58444710,0.00028490,-0.00046519,-0.00028433,-0.000
 03325,0.00028078,0.00013906,-0.00040438,0.00006809,0.00037909,0.000002
 31,0.00004393,-0.00001221,-0.00000648,0.00000102,0.00000869,-0.0000045
 9,0.00000279,-0.00000789,0.00103619,-0.00110375,-0.00029920,-0.0000084
 2,-0.00000122,-0.00000002,-0.00001591,-0.00000385,-0.00000165,0.000025
 34,0.00003955,-0.00002266,0.00000266,0.00001697,0.00002276,-0.00000280
 ,0.00001782,-0.00001127,-0.00001031,-0.00000662,0.00000171,-0.00000273
 ,-0.00000085,0.00000014,-0.00000231,0.00000126,-0.00000125,0.00000468,
 0.00000035,0.00000036,-0.00000418,-0.00000083,0.00000002,0.00011037,-0
 .00016897,-0.00009872,0.00036447,0.00001314,0.00003542,-0.00018203,0.0
 0002943,-0.00004498,-0.00032772,0.00010304,0.00005816,-0.00062199,-0.0
 0013795,0.00033470,-0.00000360,-0.00003660,0.00001569,-0.00000450,0.00
 000898,-0.00000698,-0.00000542,0.00000839,-0.00000360,0.00000396,-0.00
 000314,0.00000197,-0.00546510,-0.00345493,-0.00122036,0.00096511,0.000
 46440,-0.00056228,-0.01336235,0.01279722,-0.00387575,0.00052748,-0.000
 10703,0.00055276,0.00067217,-0.00007779,-0.00022455,-0.25990062,0.0935
 5312,-0.07063936,0.27760345,-0.00005513,0.00003538,0.00003810,0.000007
 99,0.00000179,-0.00002843,0.00017495,0.00005332,-0.00008808,0.00000148
 ,-0.00000501,0.00002140,0.00001001,0.00000497,0.00001011,0.00000108,-0
 .00000090,-0.00000461,-0.00000255,-0.00094810,-0.00024317,-0.00000324,
 -0.00000145,0.00000067,-0.00000405,-0.00000172,-0.00000208,0.00000442,
 0.00001348,-0.00000889,-0.00000506,0.00001687,0.00002558,0.00000063,0.
 00000900,-0.00000600,-0.00000552,-0.00000179,-0.00000083,-0.00000113,-
 0.00000038,0.00000012,-0.00000124,0.00000050,-0.00000071,0.00000254,0.
 ,0.00000059,-0.00000213,-0.00000083,0.00000017,0.00009051,-0.00013558,
 -0.00009890,0.00016928,-0.00000707,0.00001166,-0.00007035,0.00001637,-
 0.00002604,-0.00013759,0.00009421,0.00005088,-0.00046978,-0.00011177,0
 .00028603,-0.00000207,-0.00001708,0.00000576,-0.00000219,0.00000441,-0
 .00000343,-0.00000275,0.00000382,-0.00000139,0.00000133,-0.00000112,0.
 00000088,-0.00728763,-0.00279289,-0.00184246,0.00064367,0.00036916,-0.
 00047082,-0.01882158,0.01326078,-0.00643405,0.00073477,0.00058653,0.00
 074926,0.00092100,0.00073750,-0.00018776,0.09645512,-0.08934605,0.0322
 8674,-0.10081573,0.09054402,-0.00013446,0.00017903,0.00012829,0.000010
 13,-0.00008788,-0.00007427,0.00026062,0.00006745,-0.00024200,0.0000024
 0,-0.00001656,0.00003146,0.00001080,0.00000325,0.00000667,0.00000277,-
 0.00000313,-0.00000223,-0.00007533,-0.00017176,-0.00050084,-0.00000163
 ,-0.00000066,0.00000032,-0.00000143,-0.00000038,-0.00000206,0.00000223
 ,0.00000208,-0.00000183,-0.00000659,0.00001281,0.00001982,0.00000035,0
 .00000236,-0.00000202,-0.00000105,-0.00000099,-0.00000076,-0.00000048,
 0.00000002,0.00000014,-0.00000031,0.00000011,-0.00000025,0.00000086,0.
 00000048,0.00000031,-0.00000046,0.00000002,0.,0.00004793,-0.00008121,-
 0.00006303,0.00004136,-0.00000625,0.00000409,-0.00001641,0.00000603,-0
 .00000903,-0.00004217,0.00004198,0.00002439,-0.00025177,-0.00003644,0.
 00013843,-0.00000075,-0.00000461,0.00000075,-0.00000040,0.00000138,-0.
 00000087,-0.00000073,0.00000071,-0.00000031,0.00000049,-0.00000038,0.0
 0000012,-0.00231610,-0.00118348,0.00137060,0.00036924,0.00015663,-0.00
 020037,-0.00289058,0.00350241,-0.00375770,-0.00001159,-0.00020952,0.00
 017463,0.00028143,0.00024130,0.00008794,-0.07068416,0.03119754,-0.0681
 2522,0.07719316,-0.03337675,0.06836838,0.00020804,-0.00027881,-0.00016
 319,-0.00004037,0.00016291,0.00010304,-0.00038074,0.00006972,0.0001525
 6,-0.00000298,0.00002929,-0.00001512,-0.00001617,-0.00000689,-0.000005
 21,-0.00000496,0.00000135,-0.00000103,-0.00054483,0.00025517,0.0004931
 2,-0.00000039,0.00000003,-0.00000037,0.00000176,0.00000130,0.00000111,
 -0.00000682,-0.00001134,0.00000588,0.00000474,-0.00000618,-0.00001836,
 -0.00000025,-0.00000125,0.00000095,0.00000098,0.00000200,0.00000009,0.
 00000036,0.00000014,-0.00000008,-0.00000043,0.00000021,0.00000010,-0.0
 0000024,0.00000009,-0.00000032,0.00000018,0.,0.00000006,-0.00002535,0.
 00005181,0.00005616,-0.00005979,-0.00002552,0.00000788,0.00003145,0.00
 000359,0.00000626,0.00005246,0.00000089,-0.00004538,0.00021075,0.00005
 352,-0.00012322,-0.00000011,0.00000396,-0.00000072,0.,-0.00000097,0.00
 000081,0.00000062,-0.00000051,-0.00000005,-0.00000090,0.00000086,-0.00
 000009,0.00311915,0.00139307,0.00012442,-0.00028671,-0.00016639,0.0001
 8927,-0.00409689,-0.01258662,0.01887268,-0.00234515,-0.00343089,-0.001
 18427,0.00059260,0.00090151,-0.00047587,-0.05224843,-0.01981615,0.0320
 1566,0.00606120,0.01432129,-0.02243301,0.05183106,0.00003515,0.0000248
 8,0.00002231,-0.00003286,0.00007204,0.00001493,0.00010560,0.00013680,-
 0.00005731,0.00001963,-0.00001105,0.00000615,0.00000324,0.00000173,0.0
 0000253,0.00000019,-0.00000067,-0.00000276,-0.00015679,0.00010850,-0.0
 0009293,-0.00000055,0.00000030,-0.00000023,-0.00000386,-0.00000201,0.0
 0000027,0.00000611,0.00000978,-0.00000619,0.00000211,0.00000175,0.0000
 0472,-0.00000025,0.00000317,-0.00000172,-0.00000247,-0.00000107,-0.000
 00011,-0.00000066,-0.00000011,0.00000016,-0.00000052,0.00000057,-0.000
 00035,0.00000086,-0.00000033,0.00000038,-0.00000062,-0.00000039,0.0000
 0024,0.00003305,-0.00002483,-0.00002260,0.00008635,0.00001650,0.000004
 01,-0.00004236,0.00000298,-0.00000890,-0.00009578,0.00001186,0.0000321
 6,-0.00003637,0.00001127,0.00001312,-0.00000028,-0.00000827,0.00000404
 ,-0.00000123,0.00000179,-0.00000167,-0.00000134,0.00000201,-0.00000068
 ,0.00000101,-0.00000063,0.00000066,0.00151715,0.00234006,-0.00116141,0
 .00016302,0.00000893,-0.00001422,-0.00203080,-0.01547650,0.02242338,-0
 .00390527,-0.00287944,-0.00178358,0.00080963,0.00076388,0.00009061,-0.
 02126637,-0.12976933,0.12305538,-0.00292151,-0.00604275,0.00754496,0.0
 2610928,0.13924382,-0.00026239,0.00040908,0.00024848,0.00003106,-0.000
 20844,-0.00012538,0.00052297,0.00001007,-0.00030410,0.00000669,-0.0000
 4345,0.00001669,0.00001674,0.00000605,0.00000259,0.00000580,-0.0000028
 0,0.00000199,0.00017866,0.00042518,-0.00020588,0.00000218,-0.00000046,
 0.00000078,0.00000377,0.00000132,-0.00000105,-0.00000139,-0.00000203,0
 .00000142,-0.00000592,0.00000095,0.00001124,0.00000111,-0.00000442,0.0
 0000271,0.00000238,-0.00000042,-0.00000026,0.00000061,0.00000012,-0.00
 000002,0.00000122,-0.00000090,0.00000046,-0.00000142,0.00000027,0.0000
 0005,0.00000115,0.00000060,-0.00000042,-0.00001264,0.00000244,-0.00002
 483,-0.00006803,0.00001775,-0.00001568,0.00002905,-0.00001315,0.000009
 47,0.00004815,-0.00003485,0.00002112,0.00008231,0.00005131,-0.00002638
 ,0.00000090,0.00000858,-0.00000453,0.00000144,-0.00000186,0.00000169,0
 .00000142,-0.00000238,0.00000090,-0.00000066,0.00000063,-0.00000056,0.
 00170263,-0.00044805,0.00048138,-0.00012490,-0.00009774,0.00006357,-0.
 00227103,-0.00525876,0.00687371,-0.00149333,-0.00097606,0.00090874,0.0
 0058288,0.00037533,0.00097778,0.03297022,0.12517031,-0.23571697,0.0020
 4674,0.00258578,-0.00548084,-0.03533537,-0.13490994,0.24742440,-0.0007
 2524,0.00128701,0.00068390,0.00023886,-0.00060845,-0.00050099,0.000716
 78,-0.00046660,-0.00065019,0.00001153,-0.00013667,0.00007401,0.0000500
 6,0.00001541,0.00001570,0.00001175,-0.00000783,0.00000397,-0.00037313,
 0.00111657,-0.00004331,0.00000767,0.00000730,-0.00000219,0.00000388,-0
 .00000231,-0.00000118,-0.00000040,-0.00001414,0.00000837,-0.00001637,0
 .00001145,0.00003702,-0.00000211,-0.00001899,0.00001166,0.00001437,-0.
 00000173,-0.00000073,0.00000235,0.00000072,0.00000043,0.00000255,-0.00
 000108,0.00000080,-0.00000443,0.00000026,0.00000051,0.00000403,0.00000
 106,-0.00000043,-0.00000403,0.00000158,-0.00012557,-0.00020711,0.00005
 004,-0.00002590,0.00009412,-0.00004244,0.00001633,0.00017216,-0.000011
 03,0.00009484,0.00013755,0.00007583,-0.00000606,0.00000251,0.00002459,
 -0.00001352,0.00000380,-0.00000542,0.00000491,0.00000368,-0.00000708,0
 .00000293,-0.00000235,0.00000129,-0.00000081,0.00362160,-0.00036059,0.
 00072932,-0.00017440,-0.00011820,0.00008744,0.00625486,-0.01425537,-0.
 01821278,0.00084862,0.00104668,0.00029537,-0.00261163,-0.00341841,-0.0
 0099102,-0.08015395,0.05803454,0.07121230,-0.00729559,0.01414964,0.020
 64562,-0.00205383,0.00160749,0.00133701,0.08142186,-0.00080097,0.00176
 575,0.00094188,0.00006122,-0.00088513,-0.00046298,0.00142862,-0.000599
 33,-0.00092956,0.00004586,-0.00018369,0.00003440,0.00007506,0.00002728
 ,0.00001852,0.00002054,-0.00001027,0.00000569,-0.00070010,0.00018717,-
 0.00056994,0.00000820,0.00000220,0.00000068,0.00000527,-0.00000278,-0.
 00000235,0.00000302,0.00000192,-0.00000063,-0.00002123,0.00001198,0.00
 005438,0.00000238,-0.00001120,0.00000689,0.00000516,-0.00000151,-0.000
 00225,0.00000096,0.00000031,0.00000030,0.00000256,-0.00000150,0.000000
 29,-0.00000308,-0.00000074,0.00000099,0.00000350,0.00000079,-0.0000004
 1,0.00002184,-0.00006130,-0.00015154,-0.00005256,0.00007720,-0.0000701
 8,0.00003019,-0.00002943,0.00000905,-0.00005892,-0.00001222,0.00009675
 ,-0.00005477,0.00003899,0.00010224,0.00000209,0.00001213,-0.00001037,0
 .00000258,-0.00000257,0.00000218,0.00000198,-0.00000435,0.00000235,-0.
 00000104,0.00000022,-0.00000042,0.00077071,0.00200201,0.00195634,0.000
 11227,0.00002728,-0.00008876,0.01033287,-0.01676947,-0.01914879,0.0007
 5430,0.00072942,0.00020235,-0.00423183,-0.00273632,-0.00066370,0.05536
 328,-0.13680239,-0.11413753,0.00185569,-0.00633761,-0.00778052,-0.0070
 3049,0.01145477,0.01293994,-0.05795514,0.14811238,-0.00011098,-0.00010
 204,0.00007542,-0.00011791,0.00001317,-0.00004427,0.00014901,0.0004147
 0,-0.00031413,0.00003451,0.00000902,0.00007690,-0.00000663,-0.00000762
 ,-0.00000029,-0.00000703,-0.00000738,-0.00000315,-0.00116335,-0.000522
 81,-0.00099539,0.00000103,-0.00000106,0.00000051,0.00000733,0.00000413
 ,-0.00000117,-0.00001936,-0.00002801,0.00001245,0.00000018,0.00000519,
 -0.00000965,0.00000202,-0.00000200,0.00000192,0.00000218,0.00000389,-0
 .00000148,0.00000036,0.00000044,-0.00000027,-0.00000029,-0.00000053,0.
 00000028,-0.00000037,0.00000009,-0.00000006,0.00000095,0.00000024,-0.0
 0000009,0.00001206,0.00001687,0.00002497,-0.00017011,-0.00005399,0.000
 02888,0.00009364,0.00000088,0.00000956,0.00018143,0.00002348,-0.000019
 36,0.00006438,0.00002225,-0.00005198,-0.00000035,0.00001196,-0.0000045
 1,0.00000138,-0.00000271,0.00000238,0.00000138,-0.00000265,0.00000084,
 -0.00000175,0.00000145,-0.00000117,0.00020583,0.00102215,0.00071624,-0
 .00010021,-0.00005919,0.00006272,0.00189261,-0.00331288,-0.00416368,-0
 .00064060,0.00032783,0.00061883,-0.00070636,-0.00077576,0.00123342,0.0
 7078450,-0.11623910,-0.19635658,-0.00347336,0.00675068,0.00810730,0.00
 777163,-0.01515541,-0.01514231,-0.07468776,0.12764473,0.20613691\\0.00
 000094,-0.00000746,0.00000207,0.00000354,-0.00001289,0.00000429,-0.000
 00087,-0.00001156,0.00000003,-0.00000251,-0.00000821,-0.00000630,0.,-0
 .00000650,0.00000226,-0.00000325,-0.00000705,-0.00000287,0.00000007,-0
 .00000461,0.00000203,-0.00000164,0.00001224,-0.00000410,0.00000053,0.0
 0001151,0.00000138,0.00000133,0.00000870,0.00000144,-0.00000060,-0.000
 00001,-0.00000315,-0.00000611,0.00000438,-0.00000569,-0.00000407,0.000
 00872,-0.00000495,-0.00000173,0.00001524,-0.00000285,0.00000359,0.0000
 1408,0.00000296,-0.00000672,0.00000168,-0.00000908,-0.00000712,0.00000
 901,-0.00000942,-0.00000320,0.00000958,0.00001138,0.00000622,-0.000002
 22,-0.00000594,0.00000179,0.00000942,0.00000838,0.00000187,-0.00000310
 ,0.00000733,-0.00000549,-0.00000352,-0.00001316,0.00000646,0.00000789,
 0.00000533,0.00000799,0.00001387,0.00000587,0.00000727,0.00000724,0.00
 000925,0.00000825,0.00000803,0.00001096,-0.00000270,-0.00000132,-0.000
 00363,-0.00000070,-0.00000066,-0.00000071,0.00000007,-0.00000912,0.000
 00003,-0.00000384,-0.00000991,-0.00000501,-0.00000352,-0.00000534,-0.0
 0000428,-0.00000038,-0.00001221,0.00000082,-0.00000056,-0.00001443,-0.
 00000006,0.00000230,-0.00000891,0.00000330,0.00000280,-0.00001255,0.00
 000211\\\@


 Children are likely to live up to what you believe of them.
 -- Lady Bird Johnson
 Job cpu time:       0 days  2 hours  5 minutes 51.9 seconds.
 File lengths (MBytes):  RWF=    529 Int=      0 D2E=      0 Chk=     19 Scr=      1
 Normal termination of Gaussian 09 at Sat Nov  7 10:26:24 2020.
