 Entering Gaussian System, Link 0=g09
 Input=MeNO2_EtOH_TS3_freq.com
 Output=MeNO2_EtOH_TS3_freq.log
 Initial command:
 /apps/applications/gaussian/G09.D01/2/default/g09/l1.exe "/nobackup/chmbnn/Gau-109909.inp" -scrdir="/nobackup/chmbnn/"
 Entering Link 1 = /apps/applications/gaussian/G09.D01/2/default/g09/l1.exe PID=    109910.
  
 Copyright (c) 1988,1990,1992,1993,1995,1998,2003,2009,2013,
            Gaussian, Inc.  All Rights Reserved.
  
 This is part of the Gaussian(R) 09 program.  It is based on
 the Gaussian(R) 03 system (copyright 2003, Gaussian, Inc.),
 the Gaussian(R) 98 system (copyright 1998, Gaussian, Inc.),
 the Gaussian(R) 94 system (copyright 1995, Gaussian, Inc.),
 the Gaussian 92(TM) system (copyright 1992, Gaussian, Inc.),
 the Gaussian 90(TM) system (copyright 1990, Gaussian, Inc.),
 the Gaussian 88(TM) system (copyright 1988, Gaussian, Inc.),
 the Gaussian 86(TM) system (copyright 1986, Carnegie Mellon
 University), and the Gaussian 82(TM) system (copyright 1983,
 Carnegie Mellon University). Gaussian is a federally registered
 trademark of Gaussian, Inc.
  
 This software contains proprietary and confidential information,
 including trade secrets, belonging to Gaussian, Inc.
  
 This software is provided under written license and may be
 used, copied, transmitted, or stored only in accord with that
 written license.
  
 The following legend is applicable only to US Government
 contracts under FAR:
  
                    RESTRICTED RIGHTS LEGEND
  
 Use, reproduction and disclosure by the US Government is
 subject to restrictions as set forth in subparagraphs (a)
 and (c) of the Commercial Computer Software - Restricted
 Rights clause in FAR 52.227-19.
  
 Gaussian, Inc.
 340 Quinnipiac St., Bldg. 40, Wallingford CT 06492
  
  
 ---------------------------------------------------------------
 Warning -- This program may not be used in any manner that
 competes with the business of Gaussian, Inc. or will provide
 assistance to any competitor of Gaussian, Inc.  The licensee
 of this program is prohibited from giving any competitor of
 Gaussian, Inc. access to this program.  By using this program,
 the user acknowledges that Gaussian, Inc. is engaged in the
 business of creating and licensing software in the field of
 computational chemistry and represents and warrants to the
 licensee that it is not a competitor of Gaussian, Inc. and that
 it will not use this program in any manner prohibited above.
 ---------------------------------------------------------------
  

 Cite this work as:
 Gaussian 09, Revision D.01,
 M. J. Frisch, G. W. Trucks, H. B. Schlegel, G. E. Scuseria, 
 M. A. Robb, J. R. Cheeseman, G. Scalmani, V. Barone, B. Mennucci, 
 G. A. Petersson, H. Nakatsuji, M. Caricato, X. Li, H. P. Hratchian, 
 A. F. Izmaylov, J. Bloino, G. Zheng, J. L. Sonnenberg, M. Hada, 
 M. Ehara, K. Toyota, R. Fukuda, J. Hasegawa, M. Ishida, T. Nakajima, 
 Y. Honda, O. Kitao, H. Nakai, T. Vreven, J. A. Montgomery, Jr., 
 J. E. Peralta, F. Ogliaro, M. Bearpark, J. J. Heyd, E. Brothers, 
 K. N. Kudin, V. N. Staroverov, T. Keith, R. Kobayashi, J. Normand, 
 K. Raghavachari, A. Rendell, J. C. Burant, S. S. Iyengar, J. Tomasi, 
 M. Cossi, N. Rega, J. M. Millam, M. Klene, J. E. Knox, J. B. Cross, 
 V. Bakken, C. Adamo, J. Jaramillo, R. Gomperts, R. E. Stratmann, 
 O. Yazyev, A. J. Austin, R. Cammi, C. Pomelli, J. W. Ochterski, 
 R. L. Martin, K. Morokuma, V. G. Zakrzewski, G. A. Voth, 
 P. Salvador, J. J. Dannenberg, S. Dapprich, A. D. Daniels, 
 O. Farkas, J. B. Foresman, J. V. Ortiz, J. Cioslowski, 
 and D. J. Fox, Gaussian, Inc., Wallingford CT, 2013.
 
 ******************************************
 Gaussian 09:  ES64L-G09RevD.01 24-Apr-2013
                 6-Nov-2020 
 ******************************************
 %nprocshared=4
 Will use up to    4 processors via shared memory.
 %chk=MeNO2_EtOH_TS3_freq.chk
 --------------------------------------------------------
 # freq scrf=(cpcm,solvent=ethanol) pop=nbo def2svp m062x
 --------------------------------------------------------
 1/10=4,30=1,38=1/1,3;
 2/12=2,17=6,18=5,40=1/2;
 3/5=43,7=101,11=2,16=1,25=1,30=1,70=2101,71=2,72=4,74=-55,140=1/1,2,3;
 4//1;
 5/5=2,38=5,53=4,98=1/2;
 8/6=4,10=90,11=11/1;
 11/6=1,8=1,9=11,15=111,16=1/1,2,10;
 10/6=1/2;
 6/7=2,8=2,9=2,10=2,18=1,28=1,40=1/1,7;
 7/8=1,10=1,25=1/1,2,3,16;
 1/10=4,30=1/3;
 99//99;
 --------------------
 MeNO2+2EtOH TS3 freq
 --------------------
 Symbolic Z-matrix:
 Charge =  0 Multiplicity = 1
 N                     2.3297   -0.12401   0.12836 
 O                     3.36393   0.3192   -0.34345 
 O                     1.96715  -1.30359  -0.17731 
 C                     1.51157   0.63879   0.92774 
 H                     0.92831   0.03662   1.6266 
 H                     2.01045   1.53167   1.30299 
 H                     0.26269   1.07436  -0.1008 
 O                    -0.62701   1.02482  -0.67729 
 H                    -0.70116  -0.12181  -0.71237 
 O                    -0.50217  -1.37031  -0.62296 
 H                     0.51463  -1.4202   -0.44868 
 C                    -1.70624   1.66778   0.02303 
 H                    -1.7762    1.25535   1.04246 
 H                    -2.62624   1.41129  -0.51826 
 C                    -1.48344   3.16248   0.04776 
 H                    -1.41051   3.55513  -0.97507 
 H                    -2.32136   3.65716   0.55613 
 H                    -0.55863   3.41009   0.58801 
 C                    -1.19948  -2.02428   0.44086 
 H                    -0.76853  -3.02868   0.55793 
 H                    -1.03844  -1.48048   1.38719 
 C                    -2.67179  -2.10813   0.10816 
 H                    -2.82039  -2.65572  -0.83211 
 H                    -3.2098   -2.63145   0.9094 
 H                    -3.11159  -1.1059    0.00078 
 

 GradGradGradGradGradGradGradGradGradGradGradGradGradGradGradGradGradGrad
 Berny optimization.
 Initialization pass.
 Trust Radius=3.00D-01 FncErr=1.00D-07 GrdErr=1.00D-07
 Number of steps in this run=      2 maximum allowed number of steps=      2.
 GradGradGradGradGradGradGradGradGradGradGradGradGradGradGradGradGradGrad

                          Input orientation:                          
 ---------------------------------------------------------------------
 Center     Atomic      Atomic             Coordinates (Angstroms)
 Number     Number       Type             X           Y           Z
 ---------------------------------------------------------------------
      1          7           0        2.329702   -0.124014    0.128362
      2          8           0        3.363927    0.319198   -0.343450
      3          8           0        1.967147   -1.303592   -0.177307
      4          6           0        1.511569    0.638794    0.927742
      5          1           0        0.928305    0.036616    1.626596
      6          1           0        2.010449    1.531670    1.302992
      7          1           0        0.262693    1.074362   -0.100802
      8          8           0       -0.627011    1.024818   -0.677287
      9          1           0       -0.701160   -0.121813   -0.712369
     10          8           0       -0.502171   -1.370314   -0.622957
     11          1           0        0.514630   -1.420198   -0.448675
     12          6           0       -1.706238    1.667777    0.023029
     13          1           0       -1.776204    1.255354    1.042459
     14          1           0       -2.626235    1.411291   -0.518262
     15          6           0       -1.483438    3.162477    0.047757
     16          1           0       -1.410508    3.555129   -0.975073
     17          1           0       -2.321360    3.657155    0.556127
     18          1           0       -0.558630    3.410094    0.588005
     19          6           0       -1.199484   -2.024284    0.440862
     20          1           0       -0.768534   -3.028680    0.557927
     21          1           0       -1.038437   -1.480484    1.387185
     22          6           0       -2.671786   -2.108131    0.108157
     23          1           0       -2.820387   -2.655724   -0.832105
     24          1           0       -3.209803   -2.631454    0.909401
     25          1           0       -3.111595   -1.105896    0.000783
 ---------------------------------------------------------------------
                    Distance matrix (angstroms):
                    1          2          3          4          5
     1  N    0.000000
     2  O    1.220109   0.000000
     3  O    1.271332   2.147567   0.000000
     4  C    1.374855   2.269207   2.280690   0.000000
     5  H    2.057771   3.145344   2.475766   1.091427   0.000000
     6  H    2.054986   2.452093   3.198730   1.089459   1.873751
     7  H    2.400239   3.201063   2.926719   1.675504   2.122230
     8  O    3.272772   4.066563   3.521524   2.701603   2.950157
     9  H    3.145307   4.105548   2.966944   2.857386   2.854998
    10  O    3.183905   4.228391   2.510097   3.239804   3.014333
    11  H    2.303812   3.339920   1.482243   2.669805   2.569082
    12  C    4.417060   5.259234   4.728946   3.497370   3.488973
    13  H    4.426815   5.405375   4.695605   3.347052   3.023393
    14  H    5.228441   6.091409   5.346588   4.450742   4.373203
    15  C    5.034636   5.633314   5.648271   4.014152   4.252087
    16  H    5.361234   5.802192   5.970942   4.545795   4.961720
    17  H    6.009376   6.653847   6.598350   4.892846   4.981418
    18  H    4.587336   5.080128   5.402230   3.475809   3.830144
    19  C    4.020427   5.189583   3.305916   3.831298   3.190730
    20  H    4.268568   5.394256   3.316692   4.334282   3.662971
    21  H    3.843047   5.061103   3.393002   3.347381   2.495393
    22  C    5.380707   6.521174   4.716829   5.071270   4.457157
    23  H    5.818545   6.880021   5.017719   5.719856   5.229397
    24  H    6.130530   7.313680   5.453894   5.743362   4.975631
    25  H    5.530649   6.639411   5.085707   5.027608   4.502154
                    6          7          8          9         10
     6  H    0.000000
     7  H    2.287885   0.000000
     8  O    3.336855   1.061302   0.000000
     9  H    3.761450   1.653439   1.149561   0.000000
    10  O    4.294654   2.614212   2.398999   1.267417   0.000000
    11  H    3.744240   2.531268   2.708083   1.798189   1.032834
    12  C    3.933267   2.060137   1.438252   2.180281   3.331227
    13  H    3.805650   2.344548   2.081182   2.476233   3.360194
    14  H    4.983001   2.938316   2.042437   2.468603   3.501419
    15  C    4.054922   2.726035   2.414279   3.460681   4.686036
    16  H    4.581148   3.117396   2.665524   3.753943   5.020862
    17  H    4.882629   3.712103   3.364718   4.302875   5.474955
    18  H    3.261878   2.569955   2.700959   3.766385   4.931726
    19  C    4.867417   3.468857   3.297727   2.279839   1.430256
    20  H    5.392092   4.281624   4.239885   3.173022   2.053196
    21  H    4.286708   3.230214   3.272286   2.523464   2.083360
    22  C    6.049720   4.333947   3.822747   2.915834   2.405438
    23  H    6.740169   4.894255   4.287337   3.305475   2.658975
    24  H    6.688613   5.178012   4.749391   3.901503   3.357062
    25  H    5.906593   4.018664   3.342586   2.699482   2.695934
                   11         12         13         14         15
    11  H    0.000000
    12  C    3.832799   0.000000
    13  H    3.824916   1.101919   0.000000
    14  H    4.229327   1.097805   1.784018   0.000000
    15  C    5.023906   1.511416   2.170775   2.166337   0.000000
    16  H    5.360702   2.155403   3.081093   2.506533   1.098033
    17  H    5.901862   2.149464   2.510451   2.508220   1.097843
    18  H    5.055523   2.161451   2.516331   3.081238   1.099296
    19  C    2.023458   3.750026   3.383866   3.841707   5.209381
    20  H    2.290627   4.818933   4.427541   4.931793   6.253142
    21  H    2.405418   3.495487   2.854461   3.809750   4.852750
    22  C    3.307047   3.898334   3.603889   3.575025   5.403252
    23  H    3.577133   4.545904   4.461036   4.083724   6.034323
    24  H    4.145228   4.640016   4.144899   4.326957   6.106751
    25  H    3.667466   3.109467   2.905832   2.615571   4.568600
                   16         17         18         19         20
    16  H    0.000000
    17  H    1.784554   0.000000
    18  H    1.786041   1.780245   0.000000
    19  C    5.760143   5.792292   5.474012   0.000000
    20  H    6.790343   6.863794   6.442265   1.099197   0.000000
    21  H    5.574594   5.360213   4.978620   1.103260   1.776915
    22  C    5.902264   5.793272   5.928447   1.511753   2.161498
    23  H    6.370470   6.482951   6.627700   2.155571   2.506269
    24  H    6.712862   6.360875   6.605476   2.151643   2.498223
    25  H    5.056792   4.859993   5.220788   2.166397   3.081792
                   21         22         23         24         25
    21  H    0.000000
    22  C    2.167414   0.000000
    23  H    3.079250   1.098195   0.000000
    24  H    2.503565   1.097871   1.784678   0.000000
    25  H    2.521985   1.099744   1.783388   1.778358   0.000000
 Stoichiometry    C5H15NO4
 Framework group  C1[X(C5H15NO4)]
 Deg. of freedom    69
 Full point group                 C1      NOp   1
 Largest Abelian subgroup         C1      NOp   1
 Largest concise Abelian subgroup C1      NOp   1
                         Standard orientation:                         
 ---------------------------------------------------------------------
 Center     Atomic      Atomic             Coordinates (Angstroms)
 Number     Number       Type             X           Y           Z
 ---------------------------------------------------------------------
      1          7           0        2.329702   -0.124015    0.128362
      2          8           0        3.363927    0.319197   -0.343450
      3          8           0        1.967146   -1.303593   -0.177307
      4          6           0        1.511569    0.638793    0.927742
      5          1           0        0.928305    0.036616    1.626596
      6          1           0        2.010449    1.531669    1.302992
      7          1           0        0.262693    1.074362   -0.100802
      8          8           0       -0.627011    1.024818   -0.677287
      9          1           0       -0.701160   -0.121813   -0.712369
     10          8           0       -0.502172   -1.370314   -0.622957
     11          1           0        0.514629   -1.420198   -0.448675
     12          6           0       -1.706238    1.667778    0.023029
     13          1           0       -1.776204    1.255355    1.042459
     14          1           0       -2.626235    1.411292   -0.518262
     15          6           0       -1.483437    3.162478    0.047757
     16          1           0       -1.410507    3.555130   -0.975073
     17          1           0       -2.321359    3.657156    0.556127
     18          1           0       -0.558629    3.410094    0.588005
     19          6           0       -1.199485   -2.024284    0.440862
     20          1           0       -0.768535   -3.028680    0.557927
     21          1           0       -1.038438   -1.480484    1.387185
     22          6           0       -2.671787   -2.108130    0.108157
     23          1           0       -2.820388   -2.655723   -0.832105
     24          1           0       -3.209804   -2.631453    0.909401
     25          1           0       -3.111596   -1.105895    0.000783
 ---------------------------------------------------------------------
 Rotational constants (GHZ):      1.1203442      0.8237875      0.5140761
 Standard basis: def2SVP (5D, 7F)
 There are   225 symmetry adapted cartesian basis functions of A   symmetry.
 There are   215 symmetry adapted basis functions of A   symmetry.
   215 basis functions,   355 primitive gaussians,   225 cartesian basis functions
    42 alpha electrons       42 beta electrons
       nuclear repulsion energy       604.7753994440 Hartrees.
 NAtoms=   25 NActive=   25 NUniq=   25 SFac= 1.00D+00 NAtFMM=   60 NAOKFM=F Big=F
 Integral buffers will be    131072 words long.
 Raffenetti 2 integral format.
 Two-electron integral symmetry is turned on.
 Force inversion solution in PCM.
 ------------------------------------------------------------------------------
 Polarizable Continuum Model (PCM)
 =================================
 Model                : C-PCM.
 Atomic radii         : UFF (Universal Force Field).
 Polarization charges : Total charges.
 Charge compensation  : None.
 Solution method      : Matrix inversion.
 Cavity type          : Scaled VdW (van der Waals Surface) (Alpha=1.100).
 Cavity algorithm     : GePol (No added spheres)
                        Default sphere list used, NSphG=   25.
                        Lebedev-Laikov grids with approx.  5.0 points / Ang**2.
                        Smoothing algorithm: Karplus/York (Gamma=1.0000).
                        Polarization charges: spherical gaussians, with
                                              point-specific exponents (IZeta= 3).
                        Self-potential: point-specific (ISelfS= 7).
                        Self-field    : sphere-specific E.n sum rule (ISelfD= 2).
 1st derivatives      : Analytical E(r).r(x)/FMM algorithm (CHGder, D1EAlg=3).
                        Cavity 1st derivative terms included.
 2nd derivatives      : Analytical E(r).r(xy)/FMM algorithm (CHGder, D2EAlg=3).
                        Cavity 2nd derivative terms included.
 Solvent              : Ethanol, Eps=  24.852000 Eps(inf)=   1.852593
 ------------------------------------------------------------------------------
 One-electron integrals computed using PRISM.
   1 Symmetry operations used in ECPInt.
 ECPInt:  NShTT=    5565 NPrTT=   19285 LenC2=    5405 LenP2D=   14279.
 LDataN:  DoStor=T MaxTD1= 4 Len=   56
 NBasis=   215 RedAO= T EigKep=  3.13D-03  NBF=   215
 NBsUse=   215 1.00D-06 EigRej= -1.00D+00 NBFU=   215
 ExpMin= 1.22D-01 ExpMax= 2.27D+03 ExpMxC= 3.41D+02 IAcc=1 IRadAn=         1 AccDes= 0.00D+00
 Harris functional with IExCor= 1009 and IRadAn=       1 diagonalized for initial guess.
 HarFok:  IExCor= 1009 AccDes= 0.00D+00 IRadAn=         1 IDoV= 1 UseB2=F ITyADJ=14
 ICtDFT=  3500011 ScaDFX=  1.000000  1.000000  1.000000  1.000000
 FoFCou: FMM=F IPFlag=           0 FMFlag=      100000 FMFlg1=           0
         NFxFlg=           0 DoJE=T BraDBF=F KetDBF=T FulRan=T
         wScrn=  0.000000 ICntrl=     500 IOpCl=  0 I1Cent=   200000004 NGrid=           0
         NMat0=    1 NMatS0=      1 NMatT0=    0 NMatD0=    1 NMtDS0=    0 NMtDT0=    0
 Petite list used in FoFCou.
 Requested convergence on RMS density matrix=1.00D-08 within 128 cycles.
 Requested convergence on MAX density matrix=1.00D-06.
 Requested convergence on             energy=1.00D-06.
 No special actions if energy rises.
 Inv3:  Mode=1 IEnd=    10738992.
 Iteration    1 A*A^-1 deviation from unit magnitude is 8.22D-15 for   1891.
 Iteration    1 A*A^-1 deviation from orthogonality  is 3.22D-15 for   1892    609.
 Iteration    1 A^-1*A deviation from unit magnitude is 8.66D-15 for   1891.
 Iteration    1 A^-1*A deviation from orthogonality  is 1.87D-15 for   1803   1436.
 Error on total polarization charges =  0.00778
 SCF Done:  E(RM062X) =  -554.395549313     A.U. after   14 cycles
            NFock= 14  Conv=0.32D-08     -V/T= 2.0086
 DoSCS=F DFT=T ScalE2(SS,OS)=  1.000000  1.000000
 Range of M.O.s used for correlation:     1   215
 NBasis=   215 NAE=    42 NBE=    42 NFC=     0 NFV=     0
 NROrb=    215 NOA=    42 NOB=    42 NVA=   173 NVB=   173
   1 Symmetry operations used in ECPInt.
 ECPInt:  NShTT=    5565 NPrTT=   19285 LenC2=    5405 LenP2D=   14279.
 LDataN:  DoStor=T MaxTD1= 5 Len=  102
 Number of processors reduced to   3 by ecpmxn.
 Symmetrizing basis deriv contribution to polar:
 IMax=3 JMax=2 DiffMx= 0.00D+00
 G2DrvN: will do    26 centers at a time, making    1 passes.
 Calling FoFCou, ICntrl=  3107 FMM=F I1Cent=   0 AccDes= 0.00D+00.
 NEqPCM:  Using equilibrium solvation (IEInf=0, Eps=  24.8520, EpsInf=   1.8526)
 G2PCM: DoFxE=T DoFxN=T DoGrad=T DoDP/DQ/DG/TGxP=FFFF NFrqRd=   0 IEInf=0 SqF1=F DoCFld=F IF1Alg=4.
 End of G2Drv F.D. properties file   721 does not exist.
 End of G2Drv F.D. properties file   722 does not exist.
 End of G2Drv F.D. properties file   788 does not exist.
          IDoAtm=1111111111111111111111111
 NEqPCM:  Using equilibrium solvation (IEInf=0, Eps=  24.8520, EpsInf=   1.8526)
          Differentiating once with respect to electric field.
                with respect to dipole field.
          Differentiating once with respect to nuclear coordinates.
          There are    78 degrees of freedom in the 1st order CPHF.  IDoFFX=6 NUNeed=     3.
     75 vectors produced by pass  0 Test12= 9.32D-15 1.28D-09 XBig12= 5.31D+01 4.40D+00.
 AX will form    75 AO Fock derivatives at one time.
     75 vectors produced by pass  1 Test12= 9.32D-15 1.28D-09 XBig12= 6.61D+00 7.44D-01.
     75 vectors produced by pass  2 Test12= 9.32D-15 1.28D-09 XBig12= 1.80D-01 5.10D-02.
     75 vectors produced by pass  3 Test12= 9.32D-15 1.28D-09 XBig12= 1.31D-03 5.05D-03.
     75 vectors produced by pass  4 Test12= 9.32D-15 1.28D-09 XBig12= 4.57D-06 1.45D-04.
     75 vectors produced by pass  5 Test12= 9.32D-15 1.28D-09 XBig12= 1.26D-08 9.87D-06.
     30 vectors produced by pass  6 Test12= 9.32D-15 1.28D-09 XBig12= 2.81D-11 4.39D-07.
      3 vectors produced by pass  7 Test12= 9.32D-15 1.28D-09 XBig12= 5.93D-14 2.17D-08.
 InvSVY:  IOpt=1 It=  1 EMax= 7.11D-15
 Solved reduced A of dimension   483 with    78 vectors.
 Isotropic polarizability for W=    0.000000      109.13 Bohr**3.
 End of Minotr F.D. properties file   721 does not exist.
 End of Minotr F.D. properties file   722 does not exist.
 End of Minotr F.D. properties file   788 does not exist.

 **********************************************************************

            Population analysis using the SCF density.

 **********************************************************************

 Orbital symmetries:
       Occupied  (A) (A) (A) (A) (A) (A) (A) (A) (A) (A) (A) (A)
                 (A) (A) (A) (A) (A) (A) (A) (A) (A) (A) (A) (A)
                 (A) (A) (A) (A) (A) (A) (A) (A) (A) (A) (A) (A)
                 (A) (A) (A) (A) (A) (A)
       Virtual   (A) (A) (A) (A) (A) (A) (A) (A) (A) (A) (A) (A)
                 (A) (A) (A) (A) (A) (A) (A) (A) (A) (A) (A) (A)
                 (A) (A) (A) (A) (A) (A) (A) (A) (A) (A) (A) (A)
                 (A) (A) (A) (A) (A) (A) (A) (A) (A) (A) (A) (A)
                 (A) (A) (A) (A) (A) (A) (A) (A) (A) (A) (A) (A)
                 (A) (A) (A) (A) (A) (A) (A) (A) (A) (A) (A) (A)
                 (A) (A) (A) (A) (A) (A) (A) (A) (A) (A) (A) (A)
                 (A) (A) (A) (A) (A) (A) (A) (A) (A) (A) (A) (A)
                 (A) (A) (A) (A) (A) (A) (A) (A) (A) (A) (A) (A)
                 (A) (A) (A) (A) (A) (A) (A) (A) (A) (A) (A) (A)
                 (A) (A) (A) (A) (A) (A) (A) (A) (A) (A) (A) (A)
                 (A) (A) (A) (A) (A) (A) (A) (A) (A) (A) (A) (A)
                 (A) (A) (A) (A) (A) (A) (A) (A) (A) (A) (A) (A)
                 (A) (A) (A) (A) (A) (A) (A) (A) (A) (A) (A) (A)
                 (A) (A) (A) (A) (A)
 The electronic state is 1-A.
 Alpha  occ. eigenvalues --  -19.68352 -19.66285 -19.63183 -19.63092 -14.97496
 Alpha  occ. eigenvalues --  -10.62198 -10.61433 -10.55629 -10.55426 -10.55217
 Alpha  occ. eigenvalues --   -1.31630  -1.19193  -1.15336  -1.11988  -0.89575
 Alpha  occ. eigenvalues --   -0.86145  -0.84857  -0.72522  -0.71045  -0.68549
 Alpha  occ. eigenvalues --   -0.64160  -0.62402  -0.61937  -0.58881  -0.58054
 Alpha  occ. eigenvalues --   -0.57090  -0.55525  -0.53710  -0.51315  -0.48116
 Alpha  occ. eigenvalues --   -0.47391  -0.46857  -0.45655  -0.44918  -0.43005
 Alpha  occ. eigenvalues --   -0.42147  -0.41003  -0.37965  -0.37274  -0.36296
 Alpha  occ. eigenvalues --   -0.34844  -0.28517
 Alpha virt. eigenvalues --    0.00506   0.08059   0.11018   0.11481   0.13452
 Alpha virt. eigenvalues --    0.14328   0.15563   0.16470   0.17265   0.18021
 Alpha virt. eigenvalues --    0.18530   0.19592   0.20243   0.21487   0.23300
 Alpha virt. eigenvalues --    0.24496   0.25559   0.26082   0.26699   0.30059
 Alpha virt. eigenvalues --    0.30994   0.37733   0.40078   0.42259   0.44231
 Alpha virt. eigenvalues --    0.46402   0.46461   0.48389   0.48870   0.52394
 Alpha virt. eigenvalues --    0.53583   0.54664   0.55355   0.58726   0.58946
 Alpha virt. eigenvalues --    0.60802   0.63327   0.65486   0.67688   0.68678
 Alpha virt. eigenvalues --    0.68979   0.69902   0.71148   0.71461   0.71875
 Alpha virt. eigenvalues --    0.72842   0.73035   0.73793   0.74337   0.75077
 Alpha virt. eigenvalues --    0.75388   0.76215   0.76910   0.79169   0.79998
 Alpha virt. eigenvalues --    0.81747   0.83692   0.87785   0.91758   0.95765
 Alpha virt. eigenvalues --    0.97823   0.99255   1.03984   1.05173   1.07411
 Alpha virt. eigenvalues --    1.08088   1.09519   1.11090   1.12151   1.15514
 Alpha virt. eigenvalues --    1.15970   1.18589   1.22548   1.25235   1.28286
 Alpha virt. eigenvalues --    1.31070   1.35160   1.37734   1.39266   1.40962
 Alpha virt. eigenvalues --    1.41442   1.44359   1.44671   1.47158   1.52364
 Alpha virt. eigenvalues --    1.53221   1.57836   1.58024   1.59026   1.61803
 Alpha virt. eigenvalues --    1.64383   1.66287   1.69432   1.72156   1.73871
 Alpha virt. eigenvalues --    1.74867   1.78433   1.79579   1.80579   1.81752
 Alpha virt. eigenvalues --    1.82516   1.82789   1.83551   1.84448   1.85095
 Alpha virt. eigenvalues --    1.85714   1.86365   1.87346   1.89233   1.90644
 Alpha virt. eigenvalues --    1.92628   1.94263   1.97476   1.98297   1.99241
 Alpha virt. eigenvalues --    2.01319   2.02572   2.05913   2.09237   2.10522
 Alpha virt. eigenvalues --    2.15262   2.16047   2.19209   2.22222   2.23824
 Alpha virt. eigenvalues --    2.25290   2.28437   2.34613   2.37842   2.38990
 Alpha virt. eigenvalues --    2.39630   2.41298   2.43434   2.43702   2.51808
 Alpha virt. eigenvalues --    2.52697   2.53797   2.57012   2.57645   2.59443
 Alpha virt. eigenvalues --    2.63970   2.71044   2.72491   2.73477   2.74600
 Alpha virt. eigenvalues --    2.80557   2.82481   2.82651   2.85760   2.89549
 Alpha virt. eigenvalues --    2.89786   2.91811   2.94546   2.95292   2.95666
 Alpha virt. eigenvalues --    2.98105   3.00770   3.05453   3.09355   3.12782
 Alpha virt. eigenvalues --    3.17064   3.19039   3.24566   3.26904   3.28838
 Alpha virt. eigenvalues --    3.33882   3.40563   3.48891   3.65686   3.72267
 Alpha virt. eigenvalues --    3.81826   3.83610   4.03393
          Condensed to atoms (all electrons):
               1          2          3          4          5          6
     1  N    5.821134   0.313324   0.224151   0.411037  -0.017926  -0.017822
     2  O    0.313324   8.230707  -0.105386  -0.082367   0.003961   0.006190
     3  O    0.224151  -0.105386   8.346498  -0.085638   0.001981   0.005586
     4  C    0.411037  -0.082367  -0.085638   5.257853   0.372657   0.382379
     5  H   -0.017926   0.003961   0.001981   0.372657   0.576147  -0.023761
     6  H   -0.017822   0.006190   0.005586   0.382379  -0.023761   0.573259
     7  H    0.003176  -0.000941  -0.000700   0.095442  -0.001700   0.002085
     8  O   -0.000672   0.000131   0.000315  -0.088946  -0.000459   0.000404
     9  H    0.001269  -0.000141   0.002338   0.007111   0.000012  -0.000103
    10  O   -0.000510  -0.000047  -0.050341   0.005967  -0.000837   0.000190
    11  H   -0.010771   0.000823   0.107159  -0.001486  -0.000937  -0.000324
    12  C   -0.000130  -0.000004  -0.000042   0.009646   0.000088  -0.000124
    13  H    0.000076  -0.000001  -0.000026   0.001031   0.001291  -0.000174
    14  H   -0.000007   0.000000   0.000002  -0.000439  -0.000011   0.000002
    15  C    0.000011   0.000001   0.000001  -0.001879  -0.000104   0.000081
    16  H    0.000003   0.000000   0.000000   0.000093   0.000010  -0.000014
    17  H    0.000000   0.000000   0.000000   0.000016   0.000004  -0.000007
    18  H   -0.000032  -0.000004  -0.000001   0.001352  -0.000159   0.000365
    19  C   -0.000236   0.000015   0.004181   0.000208   0.001081   0.000091
    20  H   -0.000064   0.000002   0.001208   0.000150  -0.000117   0.000000
    21  H    0.000346   0.000002  -0.000301  -0.001805   0.003572  -0.000126
    22  C   -0.000007   0.000000   0.000121   0.000198   0.000004   0.000001
    23  H    0.000001   0.000000  -0.000006  -0.000014   0.000006   0.000000
    24  H    0.000000   0.000000   0.000005  -0.000007   0.000006   0.000000
    25  H    0.000000   0.000000  -0.000002  -0.000019  -0.000014   0.000000
               7          8          9         10         11         12
     1  N    0.003176  -0.000672   0.001269  -0.000510  -0.010771  -0.000130
     2  O   -0.000941   0.000131  -0.000141  -0.000047   0.000823  -0.000004
     3  O   -0.000700   0.000315   0.002338  -0.050341   0.107159  -0.000042
     4  C    0.095442  -0.088946   0.007111   0.005967  -0.001486   0.009646
     5  H   -0.001700  -0.000459   0.000012  -0.000837  -0.000937   0.000088
     6  H    0.002085   0.000404  -0.000103   0.000190  -0.000324  -0.000124
     7  H    0.389119   0.283355  -0.013768   0.007399   0.000740  -0.024714
     8  O    0.283355   7.849881   0.221027  -0.084680   0.006174   0.235988
     9  H   -0.013768   0.221027   0.342817   0.177765  -0.007752  -0.008498
    10  O    0.007399  -0.084680   0.177765   7.920692   0.289793   0.002368
    11  H    0.000740   0.006174  -0.007752   0.289793   0.370119  -0.000605
    12  C   -0.024714   0.235988  -0.008498   0.002368  -0.000605   4.559071
    13  H    0.002777  -0.033221   0.002443   0.000000  -0.000152   0.393194
    14  H    0.005349  -0.023080  -0.005386   0.000440   0.000064   0.392912
    15  C   -0.007271  -0.044208   0.002735  -0.000059   0.000016   0.435970
    16  H    0.000110   0.002539   0.000188  -0.000001  -0.000003  -0.021064
    17  H    0.000269   0.003471  -0.000059   0.000007  -0.000002  -0.013652
    18  H    0.004982  -0.003322  -0.000343  -0.000005   0.000003  -0.022160
    19  C   -0.001335   0.006930  -0.017162   0.247848  -0.013878   0.002018
    20  H    0.000001  -0.000239   0.002947  -0.023096  -0.007356   0.000074
    21  H   -0.000338   0.001057   0.000902  -0.036714   0.004106  -0.000829
    22  C    0.000023  -0.000453  -0.002518  -0.052226   0.003179  -0.001239
    23  H   -0.000003   0.000047  -0.000057   0.003222   0.000288  -0.000084
    24  H   -0.000004   0.000004   0.000081   0.003550  -0.000104   0.000020
    25  H    0.000007  -0.000991   0.002669  -0.001527  -0.000354   0.002666
              13         14         15         16         17         18
     1  N    0.000076  -0.000007   0.000011   0.000003   0.000000  -0.000032
     2  O   -0.000001   0.000000   0.000001   0.000000   0.000000  -0.000004
     3  O   -0.000026   0.000002   0.000001   0.000000   0.000000  -0.000001
     4  C    0.001031  -0.000439  -0.001879   0.000093   0.000016   0.001352
     5  H    0.001291  -0.000011  -0.000104   0.000010   0.000004  -0.000159
     6  H   -0.000174   0.000002   0.000081  -0.000014  -0.000007   0.000365
     7  H    0.002777   0.005349  -0.007271   0.000110   0.000269   0.004982
     8  O   -0.033221  -0.023080  -0.044208   0.002539   0.003471  -0.003322
     9  H    0.002443  -0.005386   0.002735   0.000188  -0.000059  -0.000343
    10  O    0.000000   0.000440  -0.000059  -0.000001   0.000007  -0.000005
    11  H   -0.000152   0.000064   0.000016  -0.000003  -0.000002   0.000003
    12  C    0.393194   0.392912   0.435970  -0.021064  -0.013652  -0.022160
    13  H    0.636096  -0.034792  -0.034225   0.008024  -0.001840  -0.010431
    14  H   -0.034792   0.599670  -0.016052  -0.010800  -0.003728   0.006298
    15  C   -0.034225  -0.016052   4.581075   0.390277   0.385278   0.402668
    16  H    0.008024  -0.010800   0.390277   0.605929  -0.014945  -0.025525
    17  H   -0.001840  -0.003728   0.385278  -0.014945   0.592885  -0.017028
    18  H   -0.010431   0.006298   0.402668  -0.025525  -0.017028   0.600508
    19  C   -0.000605   0.000038   0.000079  -0.000004  -0.000004   0.000002
    20  H   -0.000012  -0.000001   0.000000   0.000000   0.000000   0.000000
    21  H    0.000491   0.000101  -0.000020   0.000000  -0.000005   0.000007
    22  C    0.000226  -0.000620   0.000043   0.000000   0.000001  -0.000002
    23  H   -0.000002   0.000049  -0.000003   0.000000   0.000000   0.000000
    24  H   -0.000029   0.000009  -0.000001   0.000000   0.000000   0.000000
    25  H    0.000046   0.002814   0.000113  -0.000001   0.000004   0.000004
              19         20         21         22         23         24
     1  N   -0.000236  -0.000064   0.000346  -0.000007   0.000001   0.000000
     2  O    0.000015   0.000002   0.000002   0.000000   0.000000   0.000000
     3  O    0.004181   0.001208  -0.000301   0.000121  -0.000006   0.000005
     4  C    0.000208   0.000150  -0.001805   0.000198  -0.000014  -0.000007
     5  H    0.001081  -0.000117   0.003572   0.000004   0.000006   0.000006
     6  H    0.000091   0.000000  -0.000126   0.000001   0.000000   0.000000
     7  H   -0.001335   0.000001  -0.000338   0.000023  -0.000003  -0.000004
     8  O    0.006930  -0.000239   0.001057  -0.000453   0.000047   0.000004
     9  H   -0.017162   0.002947   0.000902  -0.002518  -0.000057   0.000081
    10  O    0.247848  -0.023096  -0.036714  -0.052226   0.003222   0.003550
    11  H   -0.013878  -0.007356   0.004106   0.003179   0.000288  -0.000104
    12  C    0.002018   0.000074  -0.000829  -0.001239  -0.000084   0.000020
    13  H   -0.000605  -0.000012   0.000491   0.000226  -0.000002  -0.000029
    14  H    0.000038  -0.000001   0.000101  -0.000620   0.000049   0.000009
    15  C    0.000079   0.000000  -0.000020   0.000043  -0.000003  -0.000001
    16  H   -0.000004   0.000000   0.000000   0.000000   0.000000   0.000000
    17  H   -0.000004   0.000000  -0.000005   0.000001   0.000000   0.000000
    18  H    0.000002   0.000000   0.000007  -0.000002   0.000000   0.000000
    19  C    4.542075   0.390541   0.395640   0.426205  -0.020095  -0.013202
    20  H    0.390541   0.625868  -0.035992  -0.014012  -0.011101  -0.003795
    21  H    0.395640  -0.035992   0.651888  -0.038981   0.008471  -0.001888
    22  C    0.426205  -0.014012  -0.038981   4.612163   0.386642   0.383651
    23  H   -0.020095  -0.011101   0.008471   0.386642   0.610979  -0.015189
    24  H   -0.013202  -0.003795  -0.001888   0.383651  -0.015189   0.597278
    25  H   -0.024800   0.007139  -0.011027   0.402586  -0.025923  -0.017047
              25
     1  N    0.000000
     2  O    0.000000
     3  O   -0.000002
     4  C   -0.000019
     5  H   -0.000014
     6  H    0.000000
     7  H    0.000007
     8  O   -0.000991
     9  H    0.002669
    10  O   -0.001527
    11  H   -0.000354
    12  C    0.002666
    13  H    0.000046
    14  H    0.002814
    15  C    0.000113
    16  H   -0.000001
    17  H    0.000004
    18  H    0.000004
    19  C   -0.024800
    20  H    0.007139
    21  H   -0.011027
    22  C    0.402586
    23  H   -0.025923
    24  H   -0.017047
    25  H    0.609916
 Mulliken charges:
               1
     1  N    0.273649
     2  O   -0.366265
     3  O   -0.451103
     4  C   -0.282543
     5  H    0.085205
     6  H    0.071823
     7  H    0.255942
     8  O   -0.331050
     9  H    0.291482
    10  O   -0.409198
    11  H    0.261262
    12  C    0.059132
    13  H    0.069815
    14  H    0.087167
    15  C   -0.094526
    16  H    0.065186
    17  H    0.069336
    18  H    0.062823
    19  C    0.074369
    20  H    0.067855
    21  H    0.061445
    22  C   -0.104985
    23  H    0.062773
    24  H    0.066664
    25  H    0.053742
 Sum of Mulliken charges =   0.00000
 Mulliken charges with hydrogens summed into heavy atoms:
               1
     1  N    0.273649
     2  O   -0.366265
     3  O   -0.451103
     4  C   -0.125515
     8  O    0.216374
    10  O   -0.147936
    12  C    0.216115
    15  C    0.102819
    19  C    0.203669
    22  C    0.078193
 APT charges:
               1
     1  N    1.937622
     2  O   -1.068277
     3  O   -1.184755
     4  C   -0.917114
     5  H    0.129723
     6  H    0.121024
     7  H    0.843588
     8  O   -1.411267
     9  H    0.894132
    10  O   -1.249046
    11  H    0.758711
    12  C    0.660566
    13  H   -0.044323
    14  H   -0.030029
    15  C   -0.032010
    16  H    0.011177
    17  H    0.020152
    18  H    0.009475
    19  C    0.639797
    20  H   -0.037982
    21  H   -0.057763
    22  C   -0.018770
    23  H    0.005757
    24  H    0.017753
    25  H    0.001860
 Sum of APT charges =   0.00000
 APT charges with hydrogens summed into heavy atoms:
               1
     1  N    1.937622
     2  O   -1.068277
     3  O   -1.184755
     4  C   -0.666367
     8  O    0.326452
    10  O   -0.490335
    12  C    0.586214
    15  C    0.008794
    19  C    0.544052
    22  C    0.006599
 Electronic spatial extent (au):  <R**2>=           2223.0896
 Charge=              0.0000 electrons
 Dipole moment (field-independent basis, Debye):
    X=             -9.2719    Y=              1.6242    Z=              3.1732  Tot=              9.9336
 Quadrupole moment (field-independent basis, Debye-Ang):
   XX=            -76.9838   YY=            -56.9430   ZZ=            -63.1827
   XY=              1.1509   XZ=              2.2991   YZ=             -1.0630
 Traceless Quadrupole moment (field-independent basis, Debye-Ang):
   XX=            -11.2806   YY=              8.7601   ZZ=              2.5205
   XY=              1.1509   XZ=              2.2991   YZ=             -1.0630
 Octapole moment (field-independent basis, Debye-Ang**2):
  XXX=            -76.5629  YYY=              0.0793  ZZZ=             -3.9319  XYY=            -18.3054
  XXY=              3.9127  XXZ=             11.5616  XZZ=              2.1622  YZZ=             -1.2646
  YYZ=              5.5947  XYZ=              2.2132
 Hexadecapole moment (field-independent basis, Debye-Ang**3):
 XXXX=          -1679.3808 YYYY=          -1121.7294 ZZZZ=           -173.8719 XXXY=            -20.5235
 XXXZ=             34.3109 YYYX=             -1.3587 YYYZ=             -4.0617 ZZZX=             -5.4965
 ZZZY=             -2.1353 XXYY=           -422.5777 XXZZ=           -271.6507 YYZZ=           -222.1849
 XXYZ=             -1.8345 YYXZ=             -4.2737 ZZXY=              0.6833
 N-N= 6.047753994440D+02 E-N=-2.505581341965D+03  KE= 5.496546485861D+02
  Exact polarizability: 127.362  -2.413 113.297  -7.184   5.246  86.728
 Approx polarizability: 114.735  -1.254 101.842  -8.715   4.589  83.215
 ******************************Gaussian NBO Version 3.1******************************
             N A T U R A L   A T O M I C   O R B I T A L   A N D
          N A T U R A L   B O N D   O R B I T A L   A N A L Y S I S
 ******************************Gaussian NBO Version 3.1******************************
       /RESON  / : Allow strongly delocalized NBO set

 Analyzing the SCF density

 Job title: MeNO2+2EtOH TS3 freq                                            

 Storage needed:    140790 in NPA,    186184 in NBO (  33551057 available)


 NATURAL POPULATIONS:  Natural atomic orbital occupancies 
                                                          
   NAO  Atom  No  lang   Type(AO)    Occupancy      Energy
 ----------------------------------------------------------
     1    N    1  S      Cor( 1S)     1.99928     -14.82888
     2    N    1  S      Val( 2S)     1.06350      -0.50169
     3    N    1  S      Ryd( 3S)     0.00502       0.82778
     4    N    1  px     Val( 2p)     1.11405      -0.28895
     5    N    1  px     Ryd( 3p)     0.01069       0.95471
     6    N    1  py     Val( 2p)     1.08205      -0.27935
     7    N    1  py     Ryd( 3p)     0.01025       1.00484
     8    N    1  pz     Val( 2p)     1.19634      -0.31841
     9    N    1  pz     Ryd( 3p)     0.00466       0.92294
    10    N    1  dxy    Ryd( 3d)     0.00385       2.68864
    11    N    1  dxz    Ryd( 3d)     0.00250       2.62826
    12    N    1  dyz    Ryd( 3d)     0.00318       2.54435
    13    N    1  dx2y2  Ryd( 3d)     0.00411       2.67456
    14    N    1  dz2    Ryd( 3d)     0.00287       2.41245

    15    O    2  S      Cor( 1S)     1.99975     -19.41866
    16    O    2  S      Val( 2S)     1.71825      -0.92999
    17    O    2  S      Ryd( 3S)     0.00313       1.27383
    18    O    2  px     Val( 2p)     1.37372      -0.28375
    19    O    2  px     Ryd( 3p)     0.00163       1.09048
    20    O    2  py     Val( 2p)     1.77178      -0.33493
    21    O    2  py     Ryd( 3p)     0.00296       1.11478
    22    O    2  pz     Val( 2p)     1.59798      -0.31151
    23    O    2  pz     Ryd( 3p)     0.00259       1.09248
    24    O    2  dxy    Ryd( 3d)     0.00137       3.06499
    25    O    2  dxz    Ryd( 3d)     0.00145       3.07861
    26    O    2  dyz    Ryd( 3d)     0.00065       2.81093
    27    O    2  dx2y2  Ryd( 3d)     0.00165       3.03111
    28    O    2  dz2    Ryd( 3d)     0.00102       2.85199

    29    O    3  S      Cor( 1S)     1.99976     -19.44366
    30    O    3  S      Val( 2S)     1.71938      -0.93733
    31    O    3  S      Ryd( 3S)     0.00330       1.37752
    32    O    3  px     Val( 2p)     1.77397      -0.34530
    33    O    3  px     Ryd( 3p)     0.00252       1.36841
    34    O    3  py     Val( 2p)     1.34990      -0.28838
    35    O    3  py     Ryd( 3p)     0.00178       1.13059
    36    O    3  pz     Val( 2p)     1.74941      -0.34088
    37    O    3  pz     Ryd( 3p)     0.00242       1.12159
    38    O    3  dxy    Ryd( 3d)     0.00127       3.00914
    39    O    3  dxz    Ryd( 3d)     0.00014       2.76716
    40    O    3  dyz    Ryd( 3d)     0.00149       2.97396
    41    O    3  dx2y2  Ryd( 3d)     0.00141       3.15555
    42    O    3  dz2    Ryd( 3d)     0.00068       2.90073

    43    C    4  S      Cor( 1S)     1.99928     -10.44775
    44    C    4  S      Val( 2S)     1.10037      -0.24934
    45    C    4  S      Ryd( 3S)     0.00523       0.82074
    46    C    4  px     Val( 2p)     1.17270      -0.10113
    47    C    4  px     Ryd( 3p)     0.00869       0.63913
    48    C    4  py     Val( 2p)     1.13349      -0.07528
    49    C    4  py     Ryd( 3p)     0.00446       0.65010
    50    C    4  pz     Val( 2p)     1.14429      -0.09451
    51    C    4  pz     Ryd( 3p)     0.00876       0.62175
    52    C    4  dxy    Ryd( 3d)     0.00103       2.35620
    53    C    4  dxz    Ryd( 3d)     0.00058       2.30401
    54    C    4  dyz    Ryd( 3d)     0.00078       2.34983
    55    C    4  dx2y2  Ryd( 3d)     0.00013       2.23377
    56    C    4  dz2    Ryd( 3d)     0.00069       2.08027

    57    H    5  S      Val( 1S)     0.77562       0.08497
    58    H    5  S      Ryd( 2S)     0.00140       0.43602
    59    H    5  px     Ryd( 2p)     0.00030       1.95952
    60    H    5  py     Ryd( 2p)     0.00030       1.97070
    61    H    5  pz     Ryd( 2p)     0.00041       2.07807

    62    H    6  S      Val( 1S)     0.76985       0.09848
    63    H    6  S      Ryd( 2S)     0.00157       0.36464
    64    H    6  px     Ryd( 2p)     0.00025       1.90726
    65    H    6  py     Ryd( 2p)     0.00054       2.20764
    66    H    6  pz     Ryd( 2p)     0.00016       1.88160

    67    H    7  S      Val( 1S)     0.48902       0.09444
    68    H    7  S      Ryd( 2S)     0.00306       0.61540
    69    H    7  px     Ryd( 2p)     0.00163       2.22628
    70    H    7  py     Ryd( 2p)     0.00058       1.85160
    71    H    7  pz     Ryd( 2p)     0.00100       1.94628

    72    O    8  S      Cor( 1S)     1.99976     -19.48787
    73    O    8  S      Val( 2S)     1.64898      -1.01260
    74    O    8  S      Ryd( 3S)     0.00118       1.56166
    75    O    8  px     Val( 2p)     1.57663      -0.40903
    76    O    8  px     Ryd( 3p)     0.00071       1.33875
    77    O    8  py     Val( 2p)     1.73539      -0.42718
    78    O    8  py     Ryd( 3p)     0.00127       1.35755
    79    O    8  pz     Val( 2p)     1.84096      -0.44143
    80    O    8  pz     Ryd( 3p)     0.00147       1.16505
    81    O    8  dxy    Ryd( 3d)     0.00017       2.91309
    82    O    8  dxz    Ryd( 3d)     0.00118       3.22156
    83    O    8  dyz    Ryd( 3d)     0.00063       2.83077
    84    O    8  dx2y2  Ryd( 3d)     0.00048       3.24964
    85    O    8  dz2    Ryd( 3d)     0.00079       2.91542

    86    H    9  S      Val( 1S)     0.43476       0.13629
    87    H    9  S      Ryd( 2S)     0.00261       0.58029
    88    H    9  px     Ryd( 2p)     0.00053       1.88887
    89    H    9  py     Ryd( 2p)     0.00202       2.66292
    90    H    9  pz     Ryd( 2p)     0.00070       1.78438

    91    O   10  S      Cor( 1S)     1.99977     -19.47263
    92    O   10  S      Val( 2S)     1.64964      -0.99012
    93    O   10  S      Ryd( 3S)     0.00122       1.56279
    94    O   10  px     Val( 2p)     1.63917      -0.39818
    95    O   10  px     Ryd( 3p)     0.00126       1.33935
    96    O   10  py     Val( 2p)     1.77252      -0.40860
    97    O   10  py     Ryd( 3p)     0.00132       1.37302
    98    O   10  pz     Val( 2p)     1.75761      -0.40768
    99    O   10  pz     Ryd( 3p)     0.00135       1.19046
   100    O   10  dxy    Ryd( 3d)     0.00007       2.88513
   101    O   10  dxz    Ryd( 3d)     0.00081       2.99164
   102    O   10  dyz    Ryd( 3d)     0.00069       2.89386
   103    O   10  dx2y2  Ryd( 3d)     0.00052       3.33655
   104    O   10  dz2    Ryd( 3d)     0.00091       3.03368

   105    H   11  S      Val( 1S)     0.45188       0.15559
   106    H   11  S      Ryd( 2S)     0.00340       0.57761
   107    H   11  px     Ryd( 2p)     0.00210       2.62750
   108    H   11  py     Ryd( 2p)     0.00061       1.85709
   109    H   11  pz     Ryd( 2p)     0.00079       1.80925

   110    C   12  S      Cor( 1S)     1.99917     -10.51289
   111    C   12  S      Val( 2S)     1.01017      -0.25021
   112    C   12  S      Ryd( 3S)     0.00129       0.80886
   113    C   12  px     Val( 2p)     0.92170      -0.08011
   114    C   12  px     Ryd( 3p)     0.00195       0.60774
   115    C   12  py     Val( 2p)     1.01501      -0.09896
   116    C   12  py     Ryd( 3p)     0.00110       0.60983
   117    C   12  pz     Val( 2p)     1.10164      -0.09442
   118    C   12  pz     Ryd( 3p)     0.00305       0.65290
   119    C   12  dxy    Ryd( 3d)     0.00128       2.16424
   120    C   12  dxz    Ryd( 3d)     0.00129       2.29003
   121    C   12  dyz    Ryd( 3d)     0.00099       2.21183
   122    C   12  dx2y2  Ryd( 3d)     0.00114       2.30577
   123    C   12  dz2    Ryd( 3d)     0.00092       2.30127

   124    H   13  S      Val( 1S)     0.79361       0.07600
   125    H   13  S      Ryd( 2S)     0.00242       0.41325
   126    H   13  px     Ryd( 2p)     0.00008       1.80976
   127    H   13  py     Ryd( 2p)     0.00017       1.88310
   128    H   13  pz     Ryd( 2p)     0.00074       2.30127

   129    H   14  S      Val( 1S)     0.77921       0.08765
   130    H   14  S      Ryd( 2S)     0.00218       0.39594
   131    H   14  px     Ryd( 2p)     0.00061       2.21712
   132    H   14  py     Ryd( 2p)     0.00012       1.85132
   133    H   14  pz     Ryd( 2p)     0.00027       1.94780

   134    C   15  S      Cor( 1S)     1.99932     -10.43604
   135    C   15  S      Val( 2S)     1.09575      -0.25987
   136    C   15  S      Ryd( 3S)     0.00068       0.85870
   137    C   15  px     Val( 2p)     1.23527      -0.09535
   138    C   15  px     Ryd( 3p)     0.00168       0.62346
   139    C   15  py     Val( 2p)     1.08589      -0.09113
   140    C   15  py     Ryd( 3p)     0.00146       0.54013
   141    C   15  pz     Val( 2p)     1.23758      -0.09439
   142    C   15  pz     Ryd( 3p)     0.00167       0.62368
   143    C   15  dxy    Ryd( 3d)     0.00028       2.22473
   144    C   15  dxz    Ryd( 3d)     0.00049       2.37100
   145    C   15  dyz    Ryd( 3d)     0.00036       2.23011
   146    C   15  dx2y2  Ryd( 3d)     0.00058       2.33645
   147    C   15  dz2    Ryd( 3d)     0.00047       2.34610

   148    H   16  S      Val( 1S)     0.77072       0.09376
   149    H   16  S      Ryd( 2S)     0.00212       0.38173
   150    H   16  px     Ryd( 2p)     0.00011       1.81297
   151    H   16  py     Ryd( 2p)     0.00017       1.86543
   152    H   16  pz     Ryd( 2p)     0.00065       2.30982

   153    H   17  S      Val( 1S)     0.76105       0.09494
   154    H   17  S      Ryd( 2S)     0.00094       0.38073
   155    H   17  px     Ryd( 2p)     0.00047       2.14104
   156    H   17  py     Ryd( 2p)     0.00025       1.89310
   157    H   17  pz     Ryd( 2p)     0.00025       1.93701

   158    H   18  S      Val( 1S)     0.77398       0.08989
   159    H   18  S      Ryd( 2S)     0.00115       0.41280
   160    H   18  px     Ryd( 2p)     0.00055       2.22524
   161    H   18  py     Ryd( 2p)     0.00014       1.80904
   162    H   18  pz     Ryd( 2p)     0.00026       1.94994

   163    C   19  S      Cor( 1S)     1.99919     -10.50524
   164    C   19  S      Val( 2S)     1.00433      -0.24075
   165    C   19  S      Ryd( 3S)     0.00175       0.81212
   166    C   19  px     Val( 2p)     0.99542      -0.08873
   167    C   19  px     Ryd( 3p)     0.00156       0.58673
   168    C   19  py     Val( 2p)     1.11369      -0.09314
   169    C   19  py     Ryd( 3p)     0.00181       0.67441
   170    C   19  pz     Val( 2p)     0.92917      -0.06793
   171    C   19  pz     Ryd( 3p)     0.00251       0.59081
   172    C   19  dxy    Ryd( 3d)     0.00105       2.21223
   173    C   19  dxz    Ryd( 3d)     0.00127       2.18299
   174    C   19  dyz    Ryd( 3d)     0.00119       2.30167
   175    C   19  dx2y2  Ryd( 3d)     0.00091       2.31007
   176    C   19  dz2    Ryd( 3d)     0.00133       2.29421

   177    H   20  S      Val( 1S)     0.78645       0.08932
   178    H   20  S      Ryd( 2S)     0.00224       0.36711
   179    H   20  px     Ryd( 2p)     0.00021       1.88823
   180    H   20  py     Ryd( 2p)     0.00072       2.29438
   181    H   20  pz     Ryd( 2p)     0.00010       1.82520

   182    H   21  S      Val( 1S)     0.80404       0.07643
   183    H   21  S      Ryd( 2S)     0.00249       0.44698
   184    H   21  px     Ryd( 2p)     0.00012       1.80905
   185    H   21  py     Ryd( 2p)     0.00028       1.95847
   186    H   21  pz     Ryd( 2p)     0.00061       2.24451

   187    C   22  S      Cor( 1S)     1.99931     -10.43376
   188    C   22  S      Val( 2S)     1.09392      -0.25648
   189    C   22  S      Ryd( 3S)     0.00066       0.86316
   190    C   22  px     Val( 2p)     1.09506      -0.08953
   191    C   22  px     Ryd( 3p)     0.00148       0.54999
   192    C   22  py     Val( 2p)     1.23172      -0.09157
   193    C   22  py     Ryd( 3p)     0.00156       0.62003
   194    C   22  pz     Val( 2p)     1.23169      -0.09237
   195    C   22  pz     Ryd( 3p)     0.00167       0.62310
   196    C   22  dxy    Ryd( 3d)     0.00039       2.25938
   197    C   22  dxz    Ryd( 3d)     0.00033       2.23048
   198    C   22  dyz    Ryd( 3d)     0.00048       2.38253
   199    C   22  dx2y2  Ryd( 3d)     0.00052       2.32129
   200    C   22  dz2    Ryd( 3d)     0.00048       2.33169

   201    H   23  S      Val( 1S)     0.77204       0.09470
   202    H   23  S      Ryd( 2S)     0.00220       0.38330
   203    H   23  px     Ryd( 2p)     0.00010       1.79589
   204    H   23  py     Ryd( 2p)     0.00026       1.95756
   205    H   23  pz     Ryd( 2p)     0.00057       2.24177

   206    H   24  S      Val( 1S)     0.76283       0.09583
   207    H   24  S      Ryd( 2S)     0.00095       0.38222
   208    H   24  px     Ryd( 2p)     0.00027       1.92361
   209    H   24  py     Ryd( 2p)     0.00027       1.94869
   210    H   24  pz     Ryd( 2p)     0.00043       2.10717

   211    H   25  S      Val( 1S)     0.78188       0.08785
   212    H   25  S      Ryd( 2S)     0.00149       0.47815
   213    H   25  px     Ryd( 2p)     0.00022       1.89097
   214    H   25  py     Ryd( 2p)     0.00059       2.28628
   215    H   25  pz     Ryd( 2p)     0.00013       1.80960


 Summary of Natural Population Analysis:                  
                                                          
                                       Natural Population 
                Natural  -----------------------------------------------
    Atom  No    Charge         Core      Valence    Rydberg      Total
 -----------------------------------------------------------------------
      N    1    0.49766      1.99928     4.45593    0.04713     6.50234
      O    2   -0.47795      1.99975     6.46173    0.01646     8.47795
      O    3   -0.60743      1.99976     6.59266    0.01501     8.60743
      C    4   -0.58048      1.99928     4.55086    0.03034     6.58048
      H    5    0.22197      0.00000     0.77562    0.00241     0.77803
      H    6    0.22763      0.00000     0.76985    0.00252     0.77237
      H    7    0.50472      0.00000     0.48902    0.00626     0.49528
      O    8   -0.80958      1.99976     6.80195    0.00787     8.80958
      H    9    0.55938      0.00000     0.43476    0.00586     0.44062
      O   10   -0.82684      1.99977     6.81893    0.00814     8.82684
      H   11    0.54122      0.00000     0.45188    0.00690     0.45878
      C   12   -0.06069      1.99917     4.04851    0.01301     6.06069
      H   13    0.20297      0.00000     0.79361    0.00342     0.79703
      H   14    0.21762      0.00000     0.77921    0.00318     0.78238
      C   15   -0.66145      1.99932     4.65448    0.00765     6.66145
      H   16    0.22622      0.00000     0.77072    0.00306     0.77378
      H   17    0.23704      0.00000     0.76105    0.00191     0.76296
      H   18    0.22391      0.00000     0.77398    0.00210     0.77609
      C   19   -0.05518      1.99919     4.04260    0.01338     6.05518
      H   20    0.21028      0.00000     0.78645    0.00327     0.78972
      H   21    0.19247      0.00000     0.80404    0.00349     0.80753
      C   22   -0.65927      1.99931     4.65239    0.00757     6.65927
      H   23    0.22483      0.00000     0.77204    0.00313     0.77517
      H   24    0.23526      0.00000     0.76283    0.00191     0.76474
      H   25    0.21568      0.00000     0.78188    0.00243     0.78432
 =======================================================================
   * Total *    0.00000     19.99458    63.78699    0.21843    84.00000

                                 Natural Population      
 --------------------------------------------------------
   Core                      19.99458 ( 99.9729% of  20)
   Valence                   63.78699 ( 99.6672% of  64)
   Natural Minimal Basis     83.78157 ( 99.7400% of  84)
   Natural Rydberg Basis      0.21843 (  0.2600% of  84)
 --------------------------------------------------------

    Atom  No          Natural Electron Configuration
 ----------------------------------------------------------------------------
      N    1      [core]2S( 1.06)2p( 3.39)3S( 0.01)3p( 0.03)3d( 0.02)
      O    2      [core]2S( 1.72)2p( 4.74)3p( 0.01)3d( 0.01)
      O    3      [core]2S( 1.72)2p( 4.87)3p( 0.01)
      C    4      [core]2S( 1.10)2p( 3.45)3S( 0.01)3p( 0.02)
      H    5            1S( 0.78)
      H    6            1S( 0.77)
      H    7            1S( 0.49)
      O    8      [core]2S( 1.65)2p( 5.15)
      H    9            1S( 0.43)
      O   10      [core]2S( 1.65)2p( 5.17)
      H   11            1S( 0.45)
      C   12      [core]2S( 1.01)2p( 3.04)3p( 0.01)3d( 0.01)
      H   13            1S( 0.79)
      H   14            1S( 0.78)
      C   15      [core]2S( 1.10)2p( 3.56)
      H   16            1S( 0.77)
      H   17            1S( 0.76)
      H   18            1S( 0.77)
      C   19      [core]2S( 1.00)2p( 3.04)3p( 0.01)3d( 0.01)
      H   20            1S( 0.79)
      H   21            1S( 0.80)
      C   22      [core]2S( 1.09)2p( 3.56)
      H   23            1S( 0.77)
      H   24            1S( 0.76)
      H   25            1S( 0.78)


 NATURAL BOND ORBITAL ANALYSIS:

                       Occupancies       Lewis Structure    Low   High
           Occ.    -------------------  -----------------   occ   occ
  Cycle   Thresh.   Lewis   Non-Lewis     CR  BD  3C  LP    (L)   (NL)   Dev
 =============================================================================
   1(1)    1.90    81.75833   2.24167     10  24   0   8     6      6    0.52
   2(2)    1.90    81.96261   2.03739     10  24   0   8     6      6    0.29
   3(3)    1.90    81.90552   2.09448     10  24   0   8     6      6    0.38
   4(4)    1.90    81.96261   2.03739     10  24   0   8     6      6    0.29
   5(1)    1.80    82.30461   1.69539     10  23   0   9     2      4    0.29
   6(2)    1.80    82.30461   1.69539     10  23   0   9     2      4    0.29
   7(1)    1.70    82.05195   1.94805     10  22   0  10     2      4    0.38
   8(2)    1.70    82.05195   1.94805     10  22   0  10     2      4    0.38
   9(1)    1.60    81.63671   2.36329     10  21   0  11     0      4    0.52
  10(2)    1.60    81.63671   2.36329     10  21   0  11     0      4    0.52
  11(1)    1.50    81.41116   2.58884     10  20   0  12     0      4    0.52
  12(2)    1.50    81.41116   2.58884     10  20   0  12     0      4    0.52
  13(1)    1.80    82.30461   1.69539     10  23   0   9     2      4    0.29
 -----------------------------------------------------------------------------

 Structure accepted: RESONANCE keyword permits strongly delocalized structure

 --------------------------------------------------------
   Core                     19.99458 ( 99.973% of  20)
   Valence Lewis            62.31003 ( 97.359% of  64)
  ==================       ============================
   Total Lewis              82.30461 ( 97.982% of  84)
  -----------------------------------------------------
   Valence non-Lewis         1.55545 (  1.852% of  84)
   Rydberg non-Lewis         0.13995 (  0.167% of  84)
  ==================       ============================
   Total non-Lewis           1.69539 (  2.018% of  84)
 --------------------------------------------------------


       (Occupancy)   Bond orbital/ Coefficients/ Hybrids
 ---------------------------------------------------------------------------------
     1. (1.99598) BD ( 1) N   1 - O   2  
                ( 48.44%)   0.6960* N   1 s( 30.42%)p 2.28( 69.44%)d 0.00(  0.14%)
                                            0.0000  0.5505  0.0344  0.7300 -0.0468
                                            0.2572 -0.0073 -0.3038  0.0278  0.0178
                                           -0.0209 -0.0085  0.0202 -0.0107
                ( 51.56%)   0.7181* O   2 s( 28.44%)p 2.51( 71.41%)d 0.01(  0.16%)
                                            0.0000  0.5313 -0.0461 -0.6936  0.0239
                                           -0.3223  0.0154  0.3581 -0.0097  0.0215
                                           -0.0220 -0.0116  0.0194 -0.0098
     2. (1.99236) BD ( 2) N   1 - O   2  
                ( 36.01%)   0.6001* N   1 s(  0.01%)p99.99( 99.64%)d31.59(  0.35%)
                                            0.0000  0.0098  0.0036  0.4641  0.0186
                                           -0.4209 -0.0071  0.7765  0.0209 -0.0089
                                            0.0264  0.0257  0.0324 -0.0314
                ( 63.99%)   0.8000* O   2 s(  0.06%)p99.99( 99.75%)d 3.40(  0.19%)
                                            0.0000 -0.0236  0.0013  0.5443 -0.0056
                                           -0.3829  0.0023  0.7447 -0.0084  0.0054
                                           -0.0185 -0.0179 -0.0260  0.0229
     3. (1.99500) BD ( 1) N   1 - O   3  
                ( 47.61%)   0.6900* N   1 s( 27.82%)p 2.59( 72.03%)d 0.01(  0.15%)
                                           -0.0001 -0.5270 -0.0214  0.2440  0.0033
                                            0.7635 -0.0424  0.2753 -0.0152 -0.0188
                                           -0.0093 -0.0214  0.0200  0.0141
                ( 52.39%)   0.7238* O   3 s( 25.88%)p 2.86( 73.97%)d 0.01(  0.15%)
                                            0.0000 -0.5073 -0.0372 -0.1391 -0.0172
                                           -0.8455 -0.0268 -0.0668 -0.0039 -0.0122
                                           -0.0037 -0.0103  0.0300  0.0188
     4. (1.99430) BD ( 1) N   1 - C   4  
                ( 65.41%)   0.8088* N   1 s( 41.60%)p 1.40( 58.38%)d 0.00(  0.02%)
                                            0.0000 -0.6439  0.0363  0.4334  0.0226
                                           -0.4120 -0.0140 -0.4745 -0.0181  0.0090
                                            0.0089 -0.0079 -0.0007 -0.0006
                ( 34.59%)   0.5881* C   4 s( 25.62%)p 2.90( 74.22%)d 0.01(  0.16%)
                                           -0.0002 -0.5044 -0.0429 -0.5262 -0.0543
                                            0.4839  0.0449  0.4735  0.0443  0.0241
                                            0.0231 -0.0211 -0.0015  0.0042
     5. (1.97457) BD ( 1) C   4 - H   5  
                ( 61.04%)   0.7813* C   4 s( 34.38%)p 1.91( 65.58%)d 0.00(  0.04%)
                                           -0.0003  0.5863 -0.0037 -0.5196 -0.0026
                                           -0.4121  0.0022  0.4632  0.0380  0.0090
                                           -0.0073 -0.0139 -0.0063  0.0003
                ( 38.96%)   0.6242* H   5 s( 99.91%)p 0.00(  0.09%)
                                            0.9995 -0.0010  0.0147  0.0159 -0.0218
     6. (1.98130) BD ( 1) C   4 - H   6  
                ( 61.35%)   0.7833* C   4 s( 34.08%)p 1.93( 65.88%)d 0.00(  0.04%)
                                           -0.0003  0.5837  0.0081  0.3117  0.0051
                                            0.7094  0.0184  0.2403  0.0190  0.0149
                                            0.0061  0.0074 -0.0006 -0.0061
                ( 38.65%)   0.6217* H   6 s( 99.90%)p 0.00(  0.10%)
                                            0.9995 -0.0011 -0.0138 -0.0249 -0.0120
     7. (1.98269) BD ( 1) H   7 - O   8  
                ( 17.24%)   0.4152* H   7 s( 99.49%)p 0.01(  0.51%)
                                            0.9971  0.0280 -0.0619 -0.0060 -0.0347
                ( 82.76%)   0.9097* O   8 s( 25.39%)p 2.94( 74.56%)d 0.00(  0.05%)
                                            0.0000  0.5039  0.0009  0.7532  0.0138
                                            0.1228  0.0054  0.4035 -0.0074 -0.0025
                                            0.0200  0.0029  0.0059  0.0056
     8. (1.98587) BD ( 1) O   8 - H   9  
                ( 86.50%)   0.9300* O   8 s( 25.30%)p 2.95( 74.67%)d 0.00(  0.03%)
                                           -0.0001 -0.5029  0.0051  0.1247  0.0014
                                            0.8437 -0.0024  0.1382  0.0126 -0.0030
                                            0.0007  0.0111  0.0098  0.0107
                ( 13.50%)   0.3674* H   9 s( 99.58%)p 0.00(  0.42%)
                                           -0.9976 -0.0230 -0.0073 -0.0635 -0.0097
     9. (1.99572) BD ( 1) O   8 - C  12  
                ( 70.38%)   0.8390* O   8 s( 31.23%)p 2.20( 68.71%)d 0.00(  0.06%)
                                            0.0001  0.5589  0.0012 -0.6382 -0.0089
                                            0.3644  0.0020  0.3833 -0.0022 -0.0075
                                           -0.0177  0.0110  0.0075  0.0026
                ( 29.62%)   0.5442* C  12 s( 18.97%)p 4.26( 80.74%)d 0.02(  0.29%)
                                           -0.0001  0.4346  0.0271  0.6771  0.0217
                                           -0.4083 -0.0193 -0.4246 -0.0346 -0.0320
                                           -0.0335  0.0199  0.0171 -0.0089
    10. (1.98411) BD ( 1) O  10 - H  11  
                ( 82.01%)   0.9056* O  10 s( 31.71%)p 2.15( 68.24%)d 0.00(  0.05%)
                                            0.0000  0.5631  0.0042  0.8234  0.0175
                                            0.0217 -0.0042  0.0590 -0.0137 -0.0006
                                            0.0147 -0.0019  0.0131 -0.0080
                ( 17.99%)   0.4242* H  11 s( 99.58%)p 0.00(  0.42%)
                                            0.9974 -0.0326 -0.0637  0.0099 -0.0070
    11. (1.99583) BD ( 1) O  10 - C  19  
                ( 69.66%)   0.8346* O  10 s( 31.30%)p 2.19( 68.64%)d 0.00(  0.06%)
                                            0.0000  0.5594  0.0027 -0.4157 -0.0069
                                           -0.3798 -0.0041  0.6077  0.0029  0.0034
                                           -0.0121 -0.0150  0.0007  0.0138
                ( 30.34%)   0.5508* C  19 s( 19.62%)p 4.08( 80.10%)d 0.01(  0.28%)
                                            0.0000  0.4419  0.0298  0.4428  0.0186
                                            0.4170  0.0106 -0.6552 -0.0362  0.0210
                                           -0.0329 -0.0320  0.0005  0.0165
    12. (1.98846) BD ( 1) C  12 - H  13  
                ( 60.68%)   0.7790* C  12 s( 25.26%)p 2.96( 74.70%)d 0.00(  0.04%)
                                           -0.0001  0.5022 -0.0188 -0.0298 -0.0177
                                           -0.3425  0.0045  0.7927 -0.0044 -0.0002
                                            0.0011 -0.0139 -0.0033  0.0151
                ( 39.32%)   0.6270* H  13 s( 99.90%)p 0.00(  0.10%)
                                            0.9995 -0.0042  0.0035  0.0107 -0.0292
    13. (1.98315) BD ( 1) C  12 - H  14  
                ( 61.16%)   0.7821* C  12 s( 24.83%)p 3.03( 75.13%)d 0.00(  0.04%)
                                           -0.0002  0.4983 -0.0038 -0.7191  0.0106
                                           -0.2127  0.0016 -0.4343  0.0115  0.0082
                                            0.0162  0.0056  0.0089 -0.0005
                ( 38.84%)   0.6232* H  14 s( 99.90%)p 0.00(  0.10%)
                                            0.9995 -0.0035  0.0271  0.0063  0.0142
    14. (1.99217) BD ( 1) C  12 - C  15  
                ( 50.53%)   0.7108* C  12 s( 31.04%)p 2.22( 68.92%)d 0.00(  0.04%)
                                            0.0002  0.5570  0.0117  0.1400 -0.0120
                                            0.8182 -0.0011  0.0060 -0.0002  0.0086
                                           -0.0011 -0.0010 -0.0148 -0.0107
                ( 49.47%)   0.7034* C  15 s( 28.61%)p 2.49( 71.34%)d 0.00(  0.04%)
                                            0.0003  0.5347  0.0160 -0.1216 -0.0045
                                           -0.8356 -0.0140 -0.0135  0.0009  0.0045
                                            0.0001  0.0006 -0.0174 -0.0106
    15. (1.98715) BD ( 1) C  15 - H  16  
                ( 61.42%)   0.7837* C  15 s( 23.88%)p 3.19( 76.08%)d 0.00(  0.03%)
                                            0.0000  0.4887 -0.0050  0.0596  0.0007
                                            0.3167  0.0121 -0.8104  0.0096  0.0002
                                           -0.0019 -0.0088 -0.0019  0.0162
                ( 38.58%)   0.6211* H  16 s( 99.91%)p 0.00(  0.09%)
                                            0.9996 -0.0020 -0.0022 -0.0116  0.0273
    16. (1.98092) BD ( 1) C  15 - H  17  
                ( 61.69%)   0.7854* C  15 s( 23.75%)p 3.21( 76.21%)d 0.00(  0.04%)
                                            0.0000  0.4874 -0.0022 -0.6628  0.0098
                                            0.4014  0.0094  0.4019 -0.0044 -0.0090
                                           -0.0128  0.0056  0.0081 -0.0033
                ( 38.31%)   0.6190* H  17 s( 99.91%)p 0.00(  0.09%)
                                            0.9996  0.0000  0.0221 -0.0152 -0.0135
    17. (1.98683) BD ( 1) C  15 - H  18  
                ( 61.24%)   0.7826* C  15 s( 23.77%)p 3.21( 76.19%)d 0.00(  0.04%)
                                            0.0000  0.4875 -0.0058  0.7360 -0.0078
                                            0.1974  0.0163  0.4254 -0.0030  0.0037
                                            0.0144  0.0028  0.0111 -0.0027
                ( 38.76%)   0.6226* H  18 s( 99.91%)p 0.00(  0.09%)
                                            0.9996 -0.0010 -0.0246 -0.0085 -0.0144
    18. (1.98485) BD ( 1) C  19 - H  20  
                ( 60.90%)   0.7804* C  19 s( 24.86%)p 3.02( 75.09%)d 0.00(  0.04%)
                                            0.0001 -0.4986  0.0075 -0.3561  0.0037
                                            0.7863 -0.0143 -0.0751 -0.0060  0.0141
                                           -0.0010  0.0006  0.0110  0.0110
                ( 39.10%)   0.6253* H  20 s( 99.90%)p 0.00(  0.10%)
                                           -0.9995  0.0040  0.0117 -0.0285  0.0045
    19. (1.98819) BD ( 1) C  19 - H  21  
                ( 60.22%)   0.7760* C  19 s( 25.08%)p 2.99( 74.88%)d 0.00(  0.04%)
                                           -0.0001  0.5005 -0.0186  0.1466  0.0019
                                            0.4525 -0.0194  0.7226  0.0042  0.0034
                                            0.0053  0.0166 -0.0049  0.0100
                ( 39.78%)   0.6307* H  21 s( 99.91%)p 0.00(  0.09%)
                                            0.9995 -0.0045 -0.0041 -0.0139 -0.0268
    20. (1.99175) BD ( 1) C  19 - C  22  
                ( 50.21%)   0.7086* C  19 s( 30.55%)p 2.27( 69.40%)d 0.00(  0.04%)
                                            0.0001  0.5526  0.0135 -0.8088  0.0025
                                           -0.0350 -0.0078 -0.1964  0.0033 -0.0002
                                            0.0102 -0.0010  0.0160 -0.0070
                ( 49.79%)   0.7056* C  22 s( 28.80%)p 2.47( 71.16%)d 0.00(  0.04%)
                                            0.0003  0.5364  0.0160  0.8213  0.0141
                                            0.0500 -0.0011  0.1855  0.0044  0.0027
                                            0.0074  0.0005  0.0167 -0.0090
    21. (1.98732) BD ( 1) C  22 - H  23  
                ( 61.37%)   0.7834* C  22 s( 23.79%)p 3.20( 76.17%)d 0.00(  0.03%)
                                            0.0000 -0.4878  0.0044  0.1230  0.0130
                                            0.4347 -0.0034  0.7466 -0.0054 -0.0015
                                           -0.0019 -0.0142  0.0036 -0.0114
                ( 38.63%)   0.6215* H  23 s( 99.91%)p 0.00(  0.09%)
                                           -0.9996  0.0021 -0.0048 -0.0147 -0.0253
    22. (1.98206) BD ( 1) C  22 - H  24  
                ( 61.62%)   0.7850* C  22 s( 23.69%)p 3.22( 76.27%)d 0.00(  0.04%)
                                            0.0000 -0.4867  0.0024  0.4349  0.0087
                                            0.4167 -0.0037 -0.6322  0.0099 -0.0064
                                            0.0102  0.0123  0.0004 -0.0075
                ( 38.38%)   0.6195* H  24 s( 99.91%)p 0.00(  0.09%)
                                           -0.9996 -0.0001 -0.0160 -0.0142  0.0209
    23. (1.98724) BD ( 1) C  22 - H  25  
                ( 60.88%)   0.7802* C  22 s( 23.74%)p 3.21( 76.23%)d 0.00(  0.04%)
                                            0.0000 -0.4872  0.0063  0.3462  0.0150
                                           -0.7964  0.0123  0.0883  0.0010  0.0101
                                           -0.0007  0.0027  0.0125  0.0101
                ( 39.12%)   0.6255* H  25 s( 99.92%)p 0.00(  0.08%)
                                           -0.9996  0.0012 -0.0135  0.0255 -0.0030
    24. (1.99928) CR ( 1) N   1           s(100.00%)
                                            1.0000  0.0000  0.0000  0.0000  0.0000
                                            0.0000  0.0000  0.0000  0.0000  0.0000
                                            0.0000  0.0000  0.0000  0.0000
    25. (1.99975) CR ( 1) O   2           s(100.00%)p 0.00(  0.00%)
                                            1.0000 -0.0004  0.0000 -0.0002  0.0000
                                           -0.0002  0.0000  0.0001  0.0000  0.0000
                                            0.0000  0.0000  0.0000  0.0000
    26. (1.99976) CR ( 1) O   3           s(100.00%)p 0.00(  0.00%)
                                            1.0000 -0.0001  0.0000  0.0000  0.0000
                                            0.0001  0.0000  0.0000  0.0000  0.0000
                                            0.0000  0.0000  0.0000  0.0000
    27. (1.99927) CR ( 1) C   4           s(100.00%)p 0.00(  0.00%)
                                            1.0000  0.0003  0.0000 -0.0002  0.0000
                                            0.0002  0.0000  0.0003  0.0000  0.0000
                                            0.0000  0.0000  0.0000  0.0000
    28. (1.99976) CR ( 1) O   8           s(100.00%)
                                            1.0000 -0.0001  0.0000  0.0000  0.0000
                                            0.0000  0.0000  0.0000  0.0000  0.0000
                                            0.0000  0.0000  0.0000  0.0000
    29. (1.99977) CR ( 1) O  10           s(100.00%)
                                            1.0000  0.0000  0.0000  0.0000  0.0000
                                            0.0000  0.0000  0.0000  0.0000  0.0000
                                            0.0000  0.0000  0.0000  0.0000
    30. (1.99917) CR ( 1) C  12           s(100.00%)p 0.00(  0.00%)
                                            1.0000  0.0001  0.0000 -0.0001  0.0000
                                           -0.0002  0.0000  0.0000  0.0000  0.0000
                                            0.0000  0.0000  0.0000  0.0000
    31. (1.99932) CR ( 1) C  15           s(100.00%)p 0.00(  0.00%)
                                            1.0000 -0.0002  0.0000  0.0000  0.0000
                                            0.0003  0.0000  0.0000  0.0000  0.0000
                                            0.0000  0.0000  0.0000  0.0000
    32. (1.99919) CR ( 1) C  19           s(100.00%)p 0.00(  0.00%)
                                            1.0000  0.0000  0.0000  0.0002  0.0000
                                            0.0000  0.0000  0.0001  0.0000  0.0000
                                            0.0000  0.0000  0.0000  0.0000
    33. (1.99931) CR ( 1) C  22           s(100.00%)p 0.00(  0.00%)
                                            1.0000 -0.0002  0.0000 -0.0003  0.0000
                                            0.0000  0.0000 -0.0001  0.0000  0.0000
                                            0.0000  0.0000  0.0000  0.0000
    34. (1.98244) LP ( 1) O   2           s( 71.66%)p 0.40( 28.33%)d 0.00(  0.01%)
                                            0.0004  0.8464  0.0140  0.4541 -0.0037
                                            0.1759 -0.0016 -0.2147  0.0017 -0.0048
                                            0.0058  0.0012 -0.0043  0.0027
    35. (1.91431) LP ( 2) O   2           s(  0.03%)p99.99( 99.89%)d 2.96(  0.08%)
                                            0.0001  0.0163  0.0009 -0.1132 -0.0002
                                            0.8468  0.0076  0.5186  0.0042 -0.0193
                                           -0.0136  0.0043  0.0110  0.0098
    36. (1.96641) LP ( 1) O   3           s( 48.16%)p 1.08( 51.81%)d 0.00(  0.03%)
                                            0.0002  0.6940 -0.0031  0.3970 -0.0065
                                           -0.4496 -0.0065 -0.3979 -0.0010  0.0110
                                            0.0033 -0.0093  0.0078  0.0006
    37. (1.88026) LP ( 2) O   3           s( 26.06%)p 2.84( 73.90%)d 0.00(  0.04%)
                                            0.0001  0.5104 -0.0123 -0.6623  0.0077
                                           -0.2354 -0.0077  0.4948 -0.0038 -0.0126
                                           -0.0005  0.0132  0.0057  0.0031
    38. (1.66526) LP ( 3) O   3           s(  0.05%)p99.99( 99.86%)d 2.11(  0.10%)
                                            0.0000 -0.0138  0.0163  0.6189 -0.0059
                                           -0.1553  0.0108  0.7690 -0.0035  0.0175
                                            0.0063  0.0220  0.0047  0.0105
    39. (1.42632) LP ( 1) C   4           s(  6.02%)p15.61( 93.93%)d 0.01(  0.05%)
                                            0.0000  0.2413 -0.0441 -0.5900  0.0520
                                            0.2987 -0.0129 -0.7050  0.0444  0.0081
                                           -0.0019  0.0085 -0.0002  0.0196
    40. (1.97881) LP ( 1) O   8           s( 18.07%)p 4.53( 81.90%)d 0.00(  0.03%)
                                            0.0001  0.4250  0.0083  0.0936  0.0023
                                            0.3735 -0.0086 -0.8189  0.0077 -0.0018
                                            0.0024  0.0093  0.0015 -0.0145
    41. (1.97700) LP ( 1) O  10           s( 16.63%)p 5.01( 83.34%)d 0.00(  0.03%)
                                            0.0000  0.4078  0.0069 -0.2118  0.0044
                                           -0.4197  0.0105 -0.7825  0.0052 -0.0017
                                           -0.0081 -0.0075 -0.0006 -0.0129
    42. (1.80139) LP ( 2) O  10           s( 20.35%)p 3.91( 79.62%)d 0.00(  0.02%)
                                            0.0000  0.4510 -0.0115 -0.3214 -0.0015
                                            0.8237 -0.0097 -0.1200 -0.0065  0.0014
                                           -0.0064  0.0102 -0.0080 -0.0061
    43. (0.01238) RY*( 1) N   1           s(  4.33%)p21.02( 90.99%)d 1.08(  4.68%)
                                            0.0000 -0.0269  0.2063 -0.0428 -0.7404
                                           -0.0342 -0.5419  0.0142  0.2548  0.0095
                                           -0.1010 -0.1304  0.1396 -0.0063
    44. (0.01074) RY*( 2) N   1           s( 10.51%)p 6.41( 67.39%)d 2.10( 22.10%)
                                            0.0000 -0.0497  0.3203 -0.0079 -0.2729
                                            0.0291  0.6547  0.0237  0.4114  0.3486
                                            0.1583 -0.1226 -0.1693 -0.1754
    45. (0.00756) RY*( 3) N   1           s(  0.06%)p17.08(  0.94%)d99.99( 99.00%)
                                            0.0000  0.0088  0.0218  0.0270  0.0184
                                           -0.0285 -0.0136  0.0435 -0.0739  0.0462
                                           -0.4762 -0.4727 -0.6263  0.3813
    46. (0.00319) RY*( 4) N   1           s(  4.50%)p 3.67( 16.53%)d17.54( 78.96%)
                                            0.0000 -0.0165  0.2116  0.0084 -0.2108
                                           -0.0021  0.3402  0.0024  0.0715 -0.5451
                                           -0.2275  0.4500  0.0727  0.4826
    47. (0.00281) RY*( 5) N   1           s(  0.00%)p 1.00(  4.73%)d20.16( 95.27%)
                                            0.0000 -0.0016  0.0028 -0.0058  0.0728
                                           -0.0024  0.0896 -0.0162  0.1834 -0.6864
                                           -0.1591 -0.3559 -0.0326 -0.5732
    48. (0.00196) RY*( 6) N   1           s(  0.49%)p12.56(  6.16%)d99.99( 93.35%)
                                            0.0000 -0.0007  0.0700 -0.0203  0.1192
                                           -0.0190  0.2099  0.0069 -0.0499  0.1697
                                           -0.4054 -0.4147  0.7373  0.1573
    49. (0.00024) RY*( 7) N   1           s(  6.90%)p12.62( 87.10%)d 0.87(  6.00%)
[...]
 00000195,-0.00000614,0.00002952,-0.00001345,0.00002296,-0.00005195,-0.
 00025572,-0.00018860,0.00010165,-0.00021859,0.00127881,0.00007382,0.00
 039030,0.00033968,0.00001996,-0.00018078,-0.00001953,-0.00006013,0.000
 00578,-0.00000213,-0.00120771,0.00115501,-0.00214855,-0.00010071,-0.00
 040417,0.00006149,-0.00000395,0.00006775,0.00017921,0.10144702,-0.0584
 2648,-0.10659586,0.02084501,-0.01415917,-0.00999458,-0.10913929,0.0633
 5280,0.10926672,-0.00021796,0.00011187,0.00015097,0.00011082,0.0000265
 5,-0.00007564,0.00003425,-0.00007748,-0.00002123,0.00022738,-0.0001254
 5,-0.00004775,-0.00002329,0.00000203,-0.00004778,-0.00006108,-0.000012
 54,-0.00002526,-0.00024172,-0.00043461,-0.00052417,0.00220011,-0.00091
 212,0.00037901,0.00004497,0.00059368,0.00004973,-0.00001699,-0.0003274
 1,0.00004073,-0.00004217,0.00003408,0.00000789,-0.00417849,0.00109227,
 -0.00058056,0.00027101,-0.00018372,0.00012405,0.00122224,-0.00069105,0
 .00030225,-0.24338797,-0.05056778,-0.11535693,0.00340422,0.00120267,0.
 00260604,-0.01636303,-0.00599703,-0.01200811,0.25696548,0.00032392,-0.
 00024983,-0.00050594,-0.00023132,-0.00003983,0.00016692,0.00007225,0.0
 0027202,0.00014374,-0.00030464,0.00019729,0.00029619,0.00007150,-0.000
 01867,0.00004790,0.00018198,-0.00004483,0.00014423,0.00030893,-0.00062
 349,-0.00043592,0.00034472,0.00372503,0.00119823,-0.00016507,-0.000431
 66,0.00016718,0.00008220,0.00034086,-0.00005387,-0.00013709,-0.0000269
 6,-0.00003559,-0.03080568,-0.00836177,-0.01791853,0.00055362,0.0015398
 6,0.00019046,-0.00023763,-0.00651677,0.00002248,-0.04795927,-0.0591005
 1,-0.02755176,0.01008386,0.00155134,0.00452992,0.01164848,0.00304053,0
 .00860125,0.05620547,0.06466567,0.00025493,-0.00020012,-0.00032857,-0.
 00017345,-0.00005523,0.00011262,0.00006598,0.00018229,0.00007149,-0.00
 032300,0.00028040,-0.00000138,0.00003217,0.00000882,-0.00000146,0.0000
 5152,-0.00003820,0.00005968,0.00022519,-0.00062134,0.00006159,-0.00018
 842,0.00015801,-0.00014001,0.00006654,-0.00014168,-0.00000864,0.000022
 93,0.00013362,-0.00000806,-0.00007018,-0.00000855,-0.00000728,0.001809
 87,-0.00006137,-0.00007795,0.00075516,-0.00050208,0.00046230,-0.000076
 01,0.00032594,0.00137962,-0.11625964,-0.02783674,-0.11583403,-0.024019
 29,-0.00705928,-0.01111758,0.01277287,0.00448374,0.00779581,0.12507039
 ,0.03096530,0.11755234,-0.00247755,-0.00313055,-0.00005598,0.00172466,
 0.00141619,-0.00059621,0.00436056,0.00327024,-0.00090237,0.00065503,-0
 .00017466,0.00061777,-0.00014209,0.00015403,-0.00048905,0.00010762,-0.
 00003134,0.00011264,-0.00215375,-0.00068492,-0.00096003,-0.00059028,0.
 01419370,0.00217806,0.00551950,-0.02209281,-0.00283397,-0.11704164,-0.
 01125802,0.03960203,-0.01747325,-0.01728796,0.02749807,0.00331743,-0.0
 0108384,-0.00135653,-0.00012133,0.00000991,0.00026227,-0.00036091,0.00
 011271,-0.00010222,-0.00083544,0.00028118,0.00043066,0.00004605,-0.000
 05099,-0.00001821,0.00000627,0.00032594,0.00002369,0.00004733,-0.00009
 286,-0.00002811,0.52743456,-0.00245225,-0.00470563,0.00008350,0.001982
 14,0.00174265,-0.00102932,0.00799360,0.00338372,0.00247340,0.00004104,
 0.00028549,0.00031547,-0.00068604,-0.00021238,-0.00059558,0.00023510,-
 0.00005804,0.00009839,-0.00106597,-0.00083279,-0.00011668,0.00211959,0
 .00286878,-0.00257241,-0.00923082,-0.00836311,0.01464796,-0.02285351,-
 0.10962216,0.05796978,-0.01329674,0.00102609,-0.00381989,0.00171060,-0
 .00254408,-0.00043203,0.00001692,0.00019605,-0.00006952,-0.00005906,0.
 00007103,0.00009578,-0.00009083,-0.00005693,-0.00002310,0.00004844,0.0
 0006048,-0.00000984,-0.00002078,0.00009191,0.00002641,0.00004920,0.000
 01647,-0.00002806,-0.04531678,0.60793312,0.00224823,0.00751729,0.00096
 678,-0.00204228,-0.00252601,0.00107580,-0.01111721,-0.00495830,-0.0044
 0642,0.00022616,-0.00051665,-0.00058323,-0.00104241,-0.00085218,0.0001
 2704,-0.00005319,0.00019098,-0.00038947,0.00183237,0.00077131,0.001205
 54,0.00086179,-0.01493449,-0.00046589,-0.00308660,0.02299657,-0.003151
 36,0.05559716,0.05798952,-0.17065397,0.01711283,-0.00354529,0.00588586
 ,-0.00348101,0.00131319,0.00248672,0.00055423,-0.00044564,-0.00064951,
 0.00023467,0.00002009,-0.00014062,0.00070451,-0.00021418,-0.00072008,-
 0.00003152,0.00011505,0.00002110,0.00000193,-0.00032881,-0.00002233,-0
 .00006485,0.00004721,0.00004722,0.03841425,0.03898449,0.54727084,0.000
 27227,-0.00040575,-0.00032679,-0.00002632,0.00006216,0.00009042,0.0000
 8563,0.00066449,0.00007106,-0.00027359,0.00020198,-0.00006021,0.000085
 02,0.00000371,0.00003872,0.00000490,-0.00000880,0.00001582,0.00042871,
 0.00002991,0.00025542,0.00010677,-0.00237016,-0.00066275,-0.00112266,0
 .00343257,0.00122821,0.00552586,-0.02487232,0.00891598,0.00130630,-0.0
 0065958,-0.00002521,-0.00048536,-0.00003410,0.00011718,-0.00001095,-0.
 00003199,-0.00004469,0.00006007,-0.00005232,0.00003720,0.00017301,-0.0
 0004838,-0.00005420,-0.00000557,0.00000948,0.00000470,-0.00000215,-0.0
 0005623,-0.00000370,-0.00000385,0.00002215,0.00000189,-0.09484712,0.10
 452616,-0.01131256,0.10157448,0.00041422,0.00016545,-0.00029516,-0.000
 29866,-0.00018989,0.00022100,-0.00101766,-0.00017796,-0.00027745,-0.00
 030837,0.00016783,-0.00011151,0.00016341,-0.00003408,0.00011167,-0.000
 02723,-0.00000896,0.00001913,0.00059116,0.00013929,0.00027507,0.000082
 24,-0.00259474,-0.00071387,-0.00106602,0.00534648,0.00053538,-0.002186
 71,-0.01709081,0.01005985,0.00248444,0.00005069,0.00076195,-0.00055502
 ,0.00005887,0.00009785,0.00000165,0.00006086,0.00006334,0.00003954,-0.
 00000640,-0.00000902,0.00016497,-0.00003220,-0.00002110,-0.00001496,-0
 .00001995,0.00000857,0.00000091,-0.00007144,-0.00000543,-0.00001531,0.
 00000754,0.00000212,0.10010156,-0.27882358,0.01811679,-0.10328315,0.29
 842020,-0.00034017,-0.00044728,0.00005177,0.00022278,0.00021378,-0.000
 11459,0.00074382,0.00029385,0.00018850,0.00018181,-0.00006517,0.000074
 40,0.00012644,0.00005323,-0.00000579,-0.00000481,-0.00001608,0.0000404
 9,-0.00055126,-0.00004796,-0.00038553,-0.00027116,0.00423832,0.0006331
 0,0.00173667,-0.00601513,-0.00151835,-0.00400023,0.03662128,-0.0109806
 3,-0.00258526,-0.00033741,0.00035405,0.00088800,-0.00008892,-0.0005940
 9,-0.00013470,0.00016949,0.00019847,-0.00008259,-0.00001719,0.00001950
 ,-0.00021865,0.00005977,0.00020233,0.00000533,-0.00003971,-0.00000755,
 0.00000270,0.00008670,0.00000337,0.00001074,-0.00001739,-0.00001034,-0
 .00699840,0.01033108,-0.05252461,0.00540928,-0.02838534,0.05912339,-0.
 00018641,0.00046103,0.00018049,0.00016027,-0.00012161,-0.00008654,-0.0
 0033377,-0.00031664,-0.00052342,-0.00035390,-0.00018001,0.00043906,-0.
 00115815,-0.00055333,-0.00059113,0.00014719,0.00002089,-0.00013580,0.0
 0040663,-0.00005435,0.00029524,-0.00018620,-0.00106945,0.00002504,0.00
 016952,0.00237747,-0.00050909,-0.00052080,0.00378390,0.02326793,0.0019
 9549,0.00060038,0.00105024,-0.00026490,0.00029518,-0.00017265,0.000017
 39,0.00040951,0.00008218,0.00000383,0.00001081,-0.00000576,0.00003939,
 -0.00001524,0.00002874,-0.00000926,-0.00001790,0.00000096,0.00000009,-
 0.00001864,-0.00000599,-0.00000535,-0.00000587,-0.00000109,-0.05743893
 ,-0.02023191,-0.03672364,0.00341734,0.00690093,0.01018828,0.06246251,-
 0.00039078,0.00077581,0.00054667,0.00034215,-0.00001893,-0.00028358,-0
 .00022679,-0.00046517,-0.00025955,0.00050280,-0.00037599,0.00028972,-0
 .00111764,-0.00003752,-0.00046276,0.00012197,0.00000733,-0.00010294,-0
 .00037354,-0.00022685,0.00004784,0.00005474,0.00054399,0.00007925,0.00
 029356,0.00088707,0.00076609,-0.00103292,0.01058124,0.02322036,0.00114
 149,0.00040479,-0.00012453,0.00045383,-0.00077436,0.00029229,0.0004632
 9,-0.00061123,-0.00027150,-0.00000626,0.00000540,-0.00003118,-0.000003
 29,-0.00000156,-0.00005621,0.00001555,0.00003891,0.00000347,-0.0000012
 3,0.00001939,0.00001223,0.00001219,0.00001303,-0.00000017,-0.01967450,
 -0.12855305,-0.11703940,-0.00540628,-0.01264975,-0.02373665,0.02526540
 ,0.12825296,0.00019703,-0.00131276,-0.00050416,-0.00005567,0.00031361,
 0.00004943,0.00162110,0.00090134,0.00069848,-0.00049797,-0.00004953,0.
 00007441,0.00065477,0.00031285,0.00011132,-0.00012708,-0.00006507,0.00
 013032,-0.00001247,0.00014764,-0.00031696,-0.00003736,0.00301699,-0.00
 064893,0.00049653,-0.00509329,-0.00051088,0.00865184,0.00020698,-0.030
 69738,-0.00423564,0.00010653,-0.00101085,0.00050201,0.00005293,-0.0007
 4422,-0.00031758,0.00019543,0.00061575,-0.00001920,-0.00001866,0.00004
 402,-0.00009376,0.00003044,0.00024311,-0.00001030,-0.00007407,0.000001
 88,0.00000416,0.00003479,-0.00000380,-0.00000085,-0.00001109,-0.000009
 97,-0.03542835,-0.11248269,-0.22892299,-0.00028250,0.00062897,0.004071
 41,0.03155276,0.11702644,0.25928789,0.00010049,0.00054880,0.00008526,-
 0.00008480,-0.00017751,0.00007596,-0.00134920,-0.00031307,-0.00050782,
 -0.00003168,-0.00004202,-0.00006928,-0.00008463,-0.00012169,-0.0000254
 2,0.00001039,0.00000655,-0.00002745,0.00012556,-0.00002769,0.00008949,
 -0.00028593,-0.00025140,0.00000976,0.00093858,-0.00054867,-0.00025815,
 -0.02737503,-0.00516581,0.00365199,0.00201824,-0.00148091,0.00180517,0
 .00012220,-0.00010511,0.00030753,0.00011415,0.00009778,-0.00001781,-0.
 00010108,0.00009689,-0.00013307,-0.00017251,0.00005748,-0.00004357,-0.
 00000536,-0.00001537,0.00001411,0.00001342,0.00000956,0.00000016,-0.00
 002167,-0.00006895,-0.00000065,-0.22333809,-0.00366400,-0.03922333,-0.
 01269025,-0.00177840,-0.00362615,-0.00428664,0.00086679,-0.00143835,0.
 51732430,0.00031269,0.00112087,0.00011253,-0.00031586,-0.00032430,0.00
 020071,-0.00193581,-0.00067476,-0.00079737,0.00014108,-0.00027030,-0.0
 0005757,0.00017487,0.00008348,0.00011785,-0.00007305,0.00001183,-0.000
 01071,-0.00030834,0.00019871,-0.00023370,0.00056228,-0.00034069,0.0002
 0673,-0.00145870,0.00138965,-0.00051420,-0.02771597,-0.00159006,0.0018
 0091,0.00206853,-0.00181853,0.00264328,-0.00004992,-0.00009440,0.00009
 042,-0.00013783,0.00001774,-0.00001895,-0.00004995,-0.00027076,-0.0000
 0309,0.00012666,0.00003024,-0.00006210,-0.00000020,0.00002653,-0.00000
 098,-0.00000209,-0.00001743,-0.00000170,0.00001160,0.00003054,0.000011
 01,0.00355695,-0.08414198,-0.00315139,0.02993861,0.00534958,0.00633614
 ,-0.01808413,-0.00007447,-0.00374852,-0.00315050,0.59013188,-0.0003598
 7,-0.00222116,-0.00040713,0.00041093,0.00065366,-0.00025194,0.00312259
 ,0.00131893,0.00154145,-0.00028972,0.00017698,0.00004739,0.00025361,0.
 00015197,0.00009008,-0.00002848,-0.00004867,0.00012906,-0.00015345,-0.
 00011912,-0.00012705,-0.00024577,0.00158955,0.00000376,0.00026163,-0.0
 0319801,0.00058414,0.04424323,0.00736958,0.00229865,-0.00335657,0.0029
 2303,-0.00468448,0.00024739,-0.00020378,-0.00034668,-0.00004102,0.0001
 4957,0.00007441,0.00004740,0.00002823,0.00002279,-0.00007166,0.0000325
 9,0.00011462,0.00000252,-0.00001419,-0.00000425,-0.00000415,0.00004724
 ,0.00000178,0.00000857,0.00001044,-0.00000782,-0.05429515,-0.00483466,
 -0.09266516,-0.00193823,-0.00101393,-0.00035406,-0.02802742,-0.0006260
 1,-0.00313040,-0.02111039,-0.00472784,0.59711212,0.00008952,-0.0001370
 2,-0.00007399,-0.00005845,0.00002614,0.00002651,0.00020647,0.00006456,
 0.00012560,-0.00005339,-0.00001633,-0.00003179,0.00012030,0.00005939,0
 .00006865,-0.00003571,-0.00000979,0.00003390,-0.00003866,0.00003757,-0
 .00006247,0.00004315,0.00012759,-0.00001620,-0.00001130,-0.00017325,-0
 .00003284,0.00379681,0.00135994,0.00065643,-0.00027633,0.00030897,-0.0
 0024729,-0.00002343,0.00004523,-0.00004446,-0.00004474,0.00001295,0.00
 000043,0.00001036,-0.00003147,0.00003090,0.00001849,-0.00000439,0.0000
 1025,0.00000006,-0.00000031,-0.00000071,-0.00000064,-0.00000058,0.0000
 0023,0.00000155,0.00000842,-0.00000002,-0.00530491,-0.01796178,-0.0306
 9745,0.00154832,0.00023308,0.00041996,-0.00646172,-0.00064605,-0.00087
 191,-0.04981265,-0.01558922,-0.02708509,0.05352437,0.00001636,-0.00009
 633,-0.00004471,-0.00000575,0.00001731,0.00000521,0.00012019,0.0000638
 7,0.00003712,-0.00004565,0.00003520,-0.00000995,0.00001044,-0.00000036
 ,0.00001149,0.00000223,-0.00000148,0.00000407,0.00007421,-0.00001010,0
 .00004476,-0.00008383,0.00013956,-0.00000912,0.00016685,-0.00027783,-0
 .00012794,0.00047565,0.00000819,-0.00025583,-0.00013870,0.00002216,0.0
 0009560,0.00009936,-0.00007667,-0.00006700,0.00005748,0.00010930,0.000
 08448,-0.00004047,0.00006031,-0.00007280,-0.00006559,0.00002498,0.0000
 3037,-0.00000526,-0.00002305,0.00000348,0.00000381,0.00000219,-0.00000
 229,-0.00000803,-0.00002614,-0.00000215,-0.00043049,-0.00076431,0.0002
 8661,-0.00042910,0.00049311,0.00080758,-0.00008729,0.00136443,-0.00010
 823,-0.01634792,-0.11809131,-0.12041490,0.01802873,0.12030225,0.000106
 72,0.00011384,-0.00002518,-0.00008707,-0.00005287,0.00004629,-0.000165
 46,-0.00008831,-0.00007077,-0.00002553,0.00000104,-0.00001995,0.000049
 61,0.00002221,0.00003235,-0.00001311,-0.00000106,0.00000471,0.00005446
 ,0.00003531,0.00001155,0.00000423,-0.00029525,-0.00003228,-0.00004669,
 0.00054848,-0.00008483,-0.00040829,-0.00018330,0.00184774,0.00043575,0
 .00001626,0.00011198,-0.00006069,0.00004126,0.00003333,-0.00000490,0.0
 0000962,0.00000930,-0.00000726,-0.00000577,-0.00000967,0.00001469,-0.0
 0000048,-0.00000546,-0.00000218,-0.00000282,0.00000078,0.00000053,-0.0
 0000801,-0.00000129,-0.00000172,-0.00000034,0.00000105,0.00066810,-0.0
 0230040,-0.00713825,-0.00001168,0.00018869,0.00031230,-0.00145772,0.00
 023597,0.00096403,-0.03038508,-0.12009790,-0.25106500,0.03453040,0.129
 96493,0.26567308,0.00027952,0.00090535,0.00010232,-0.00026226,-0.00028
 787,0.00014324,-0.00127430,-0.00054544,-0.00055944,0.00006798,-0.00010
 380,-0.00004337,0.00002359,0.00000209,0.00002964,-0.00002547,0.0000119
 6,-0.00002632,0.00005920,0.00010934,0.00000142,0.00013587,-0.00098036,
 -0.00005564,-0.00033387,0.00183166,-0.00019707,-0.01051712,-0.00180064
 ,-0.00059020,0.00202927,-0.00103276,0.00142504,-0.00027896,0.00013125,
 0.00008260,-0.00000218,-0.00000729,-0.00001644,0.00004460,-0.00004287,
 0.00000522,0.00008047,-0.00002006,-0.00002184,-0.00000427,0.00000297,0
 .00000099,-0.00000054,-0.00002609,-0.00000220,-0.00000339,0.00001528,0
 .00000310,-0.00780848,-0.01403752,0.02448429,0.00092189,0.00060656,0.0
 0022548,0.00087471,-0.00022667,-0.00053251,-0.11337970,-0.06471725,0.0
 9801928,0.00182512,0.00334785,-0.00408781,0.12101355,0.00007901,0.0001
 1213,-0.00002534,-0.00007429,-0.00005884,0.00003683,-0.00020420,-0.000
 11057,-0.00008050,-0.00005314,0.00002302,-0.00001606,0.00001452,-0.000
 00124,0.00000951,-0.00000192,-0.00000026,-0.00000168,0.00014845,-0.000
 00355,0.00007700,-0.00010245,-0.00010108,-0.00007244,0.00050584,0.0003
 1398,-0.00012733,-0.00066139,0.00126367,-0.00030422,0.00057083,0.00027
 502,0.00026908,0.00005675,0.00000802,0.00006853,0.00004219,0.00005400,
 0.00006087,-0.00006617,0.00009009,-0.00007631,-0.00007390,0.00001761,0
 .00000169,-0.00000646,-0.00002139,0.00000414,0.00000590,-0.00000506,-0
 .00000192,-0.00001103,-0.00003422,0.00000146,0.00104469,-0.00264224,-0
 .00003504,-0.00029863,0.00021750,-0.00020008,0.00004807,0.00011254,-0.
 00007100,-0.06653378,-0.11067350,0.09975679,0.00935755,0.00847058,-0.0
 1137106,0.07124782,0.11394955,-0.00000069,0.00007958,0.00001241,-0.000
 00742,-0.00002092,0.00001163,-0.00008161,-0.00004606,-0.00008514,0.000
 02595,-0.00001165,0.00000743,-0.00001926,-0.00001319,-0.00001502,0.000
 00165,0.00000305,-0.00000622,-0.00001685,0.00000875,-0.00000561,0.0000
 2153,-0.00003593,0.00000027,-0.00005346,0.00004411,-0.00003686,-0.0025
 4708,-0.00035641,0.00109697,-0.00027761,-0.00001390,0.00053399,-0.0000
 2633,0.00001582,0.00000056,-0.00000061,-0.00000692,-0.00001134,0.00001
 562,-0.00001992,0.00001274,0.00001001,-0.00000722,-0.00000266,0.000000
 40,0.00000221,-0.00000023,-0.00000075,-0.00000078,0.00000012,0.0000008
 0,0.00000421,0.00000005,-0.00372195,-0.00520282,0.00559382,0.00035206,
 0.00012215,0.00032684,0.00068195,-0.00011853,0.00014237,0.10109522,0.0
 9996560,-0.19907854,0.01230829,0.01358528,-0.01523794,-0.10793533,-0.1
 0744604,0.20794998,-0.00014138,0.00005585,0.00015283,0.00009786,0.0000
 4908,-0.00007918,0.00023093,-0.00002246,0.00007124,0.00019983,-0.00011
 149,0.00003815,-0.00003218,0.00002904,-0.00002697,-0.00000447,0.000005
 27,-0.00000225,-0.00036635,0.00003237,-0.00020977,0.00023063,-0.000237
 24,0.00007623,-0.00041560,0.00032169,0.00034760,0.00390339,-0.00073804
 ,-0.00005677,-0.00027233,0.00000196,-0.00031329,-0.00020172,0.00011877
 ,0.00003157,-0.00010907,-0.00003353,-0.00014963,0.00019212,-0.00020822
 ,0.00014709,0.00016456,-0.00011634,-0.00006026,0.00001572,0.00006290,-
 0.00001868,-0.00002088,0.00000218,0.00000768,0.00003760,0.00008559,0.0
 0000734,-0.01328526,0.03224519,-0.00339638,-0.00604275,-0.00123317,-0.
 00134792,0.00151169,-0.00042782,0.00028131,-0.08774811,0.09669554,-0.0
 0961019,0.00093742,-0.00471511,0.00090070,0.00653477,-0.01503426,0.000
 17547,0.09458355,-0.00014410,-0.00007130,0.00007256,0.00009762,0.00005
 525,-0.00006306,0.00017855,0.00002637,0.00005921,0.00008874,-0.0000432
 2,0.00003306,-0.00003310,-0.00000146,-0.00002781,0.00000883,0.00000162
 ,-0.00000365,-0.00013937,-0.00000674,-0.00012246,0.00021594,-0.0001569
 6,-0.00001349,0.00094951,-0.00009810,-0.00014013,0.00130016,0.00141725
 ,-0.00088356,-0.00041722,0.00017386,-0.00016301,-0.00075229,0.00011654
 ,0.00001792,0.00006173,0.00026189,-0.00028510,0.00017317,-0.00052161,0
 .00031108,0.00010330,-0.00015187,-0.00001485,0.00000788,0.00005765,-0.
 00000836,-0.00001005,0.00001839,0.00000439,0.00002192,0.00007451,0.000
 00224,-0.00315737,0.00364448,0.00019826,-0.00093445,0.00122236,0.00020
 306,0.00058281,0.00078201,0.00005996,0.09810896,-0.28000856,0.02321371
 ,0.00490007,-0.01174585,0.00322995,0.00561650,-0.01125574,-0.00053049,
 -0.10682773,0.29620925,0.00004528,0.00013721,0.00003275,-0.00003391,-0
 .00004354,0.00001289,-0.00016122,-0.00008222,-0.00005475,0.00001437,-0
 .00001517,-0.00001722,-0.00000606,0.00000218,-0.00000115,-0.00000288,0
 .00000248,-0.00000651,0.00001229,-0.00000282,0.00001561,0.00007095,-0.
 00035962,-0.00005405,-0.00007644,0.00048764,0.00018027,0.00013882,-0.0
 0135694,0.00043778,0.00028843,0.00001879,-0.00003426,-0.00003231,0.000
 04889,0.00027341,-0.00010487,-0.00010561,-0.00020627,-0.00004523,0.000
 08028,0.00003784,0.00000106,-0.00002551,-0.00011837,0.00000982,0.00003
 695,-0.00000531,0.00000309,-0.00000986,0.00000450,0.00000368,-0.000005
 23,0.00000932,-0.00202103,0.00849072,-0.00224684,-0.00181543,-0.000379
 74,0.00089563,0.00044738,0.00059266,0.00006612,-0.01026814,0.02194083,
 -0.04989773,0.01095269,-0.02384608,0.00464215,-0.01045444,0.01954315,-
 0.00120961,0.01303407,-0.02514942,0.04724379\\-0.00000063,-0.00000193,
 -0.00000336,0.00000031,-0.00000440,-0.00000612,-0.00000210,-0.00000344
 ,-0.00000161,0.00000207,-0.00000068,-0.00000325,0.00000185,0.00000245,
 -0.00000372,0.00000306,0.00000125,-0.00000859,-0.00000059,-0.00000007,
 -0.00000695,-0.00000248,-0.00000518,-0.00000284,-0.00000037,-0.0000032
 8,0.00000131,-0.00000299,0.00000035,0.00000492,-0.00000297,-0.00000416
 ,0.00000483,0.00000303,0.00000362,-0.00000085,0.00000171,0.00000469,-0
 .00000201,0.00000052,-0.00000057,-0.00000015,0.00000396,0.00000065,-0.
 00000746,0.00000119,-0.00000228,-0.00000826,0.00000281,0.00000250,-0.0
 0000677,0.00000292,0.00000071,-0.00000846,0.,0.00000197,0.00000326,-0.
 00000136,0.00000260,0.00000910,0.00000117,-0.00000010,0.00000712,-0.00
 000463,0.00000062,0.00000984,-0.00000398,-0.00000127,0.00001165,-0.000
 00127,0.00000468,0.00001124,-0.00000123,0.00000128,0.00000716\\\@


 BUT 'GLORY' DOESN'T MEAN 'A NICE KNOCK DOWN ARGUMENT', ALICE OBJECTED.
 WHEN I USE A WORD, HUMPTY DUMPTY SAID, IN A RATHER SCORNFUL TONE,
 IT MEANS JUST WHAT I CHOOSE IT TO MEAN....
 NEITHER MORE NOR LESS....
 THE QUESTION IS, SAID ALICE,
 WHETHER YOU CAN MAKE WORDS MEAN SO MANY DIFFERENT THINGS...
 THE QUESTION IS, SAID HUMPTY DUMPTY,
 WHICH IS TO BE MASTER....
 THAT IS ALL.....

 ALICE THROUGH THE LOOKING GLASS
 Job cpu time:       0 days  0 hours 33 minutes 36.4 seconds.
 File lengths (MBytes):  RWF=    170 Int=      0 D2E=      0 Chk=     10 Scr=      1
 Normal termination of Gaussian 09 at Fri Nov  6 14:55:18 2020.
