 Entering Gaussian System, Link 0=g09
 Input=b3lyp_m062x_PM6_Diels_Alder_4H2O_TS_1_water_2_2_freq.com
 Output=b3lyp_m062x_PM6_Diels_Alder_4H2O_TS_1_water_2_2_freq.log
 Initial command:
 /apps/applications/gaussian/G09.D01/2/default/g09/l1.exe "/nobackup/chmbnn/Gau-14085.inp" -scrdir="/nobackup/chmbnn/"
 Entering Link 1 = /apps/applications/gaussian/G09.D01/2/default/g09/l1.exe PID=     14086.
  
 Copyright (c) 1988,1990,1992,1993,1995,1998,2003,2009,2013,
            Gaussian, Inc.  All Rights Reserved.
  
 This is part of the Gaussian(R) 09 program.  It is based on
 the Gaussian(R) 03 system (copyright 2003, Gaussian, Inc.),
 the Gaussian(R) 98 system (copyright 1998, Gaussian, Inc.),
 the Gaussian(R) 94 system (copyright 1995, Gaussian, Inc.),
 the Gaussian 92(TM) system (copyright 1992, Gaussian, Inc.),
 the Gaussian 90(TM) system (copyright 1990, Gaussian, Inc.),
 the Gaussian 88(TM) system (copyright 1988, Gaussian, Inc.),
 the Gaussian 86(TM) system (copyright 1986, Carnegie Mellon
 University), and the Gaussian 82(TM) system (copyright 1983,
 Carnegie Mellon University). Gaussian is a federally registered
 trademark of Gaussian, Inc.
  
 This software contains proprietary and confidential information,
 including trade secrets, belonging to Gaussian, Inc.
  
 This software is provided under written license and may be
 used, copied, transmitted, or stored only in accord with that
 written license.
  
 The following legend is applicable only to US Government
 contracts under FAR:
  
                    RESTRICTED RIGHTS LEGEND
  
 Use, reproduction and disclosure by the US Government is
 subject to restrictions as set forth in subparagraphs (a)
 and (c) of the Commercial Computer Software - Restricted
 Rights clause in FAR 52.227-19.
  
 Gaussian, Inc.
 340 Quinnipiac St., Bldg. 40, Wallingford CT 06492
  
  
 ---------------------------------------------------------------
 Warning -- This program may not be used in any manner that
 competes with the business of Gaussian, Inc. or will provide
 assistance to any competitor of Gaussian, Inc.  The licensee
 of this program is prohibited from giving any competitor of
 Gaussian, Inc. access to this program.  By using this program,
 the user acknowledges that Gaussian, Inc. is engaged in the
 business of creating and licensing software in the field of
 computational chemistry and represents and warrants to the
 licensee that it is not a competitor of Gaussian, Inc. and that
 it will not use this program in any manner prohibited above.
 ---------------------------------------------------------------
  

 Cite this work as:
 Gaussian 09, Revision D.01,
 M. J. Frisch, G. W. Trucks, H. B. Schlegel, G. E. Scuseria, 
 M. A. Robb, J. R. Cheeseman, G. Scalmani, V. Barone, B. Mennucci, 
 G. A. Petersson, H. Nakatsuji, M. Caricato, X. Li, H. P. Hratchian, 
 A. F. Izmaylov, J. Bloino, G. Zheng, J. L. Sonnenberg, M. Hada, 
 M. Ehara, K. Toyota, R. Fukuda, J. Hasegawa, M. Ishida, T. Nakajima, 
 Y. Honda, O. Kitao, H. Nakai, T. Vreven, J. A. Montgomery, Jr., 
 J. E. Peralta, F. Ogliaro, M. Bearpark, J. J. Heyd, E. Brothers, 
 K. N. Kudin, V. N. Staroverov, T. Keith, R. Kobayashi, J. Normand, 
 K. Raghavachari, A. Rendell, J. C. Burant, S. S. Iyengar, J. Tomasi, 
 M. Cossi, N. Rega, J. M. Millam, M. Klene, J. E. Knox, J. B. Cross, 
 V. Bakken, C. Adamo, J. Jaramillo, R. Gomperts, R. E. Stratmann, 
 O. Yazyev, A. J. Austin, R. Cammi, C. Pomelli, J. W. Ochterski, 
 R. L. Martin, K. Morokuma, V. G. Zakrzewski, G. A. Voth, 
 P. Salvador, J. J. Dannenberg, S. Dapprich, A. D. Daniels, 
 O. Farkas, J. B. Foresman, J. V. Ortiz, J. Cioslowski, 
 and D. J. Fox, Gaussian, Inc., Wallingford CT, 2013.
 
 ******************************************
 Gaussian 09:  ES64L-G09RevD.01 24-Apr-2013
                16-Sep-2020 
 ******************************************
 %nprocshared=4
 Will use up to    4 processors via shared memory.
 %chk=b3lyp_m062x_PM6_Diels_Alder_4H2O_TS_1_water_2_2_freq.chk
 ----------------------------------------------------------------------
 # freq b3lyp/6-31+g(d,p) scrf=(cpcm,solvent=water) pop=(nbo,savenbo) e
 mpiricaldispersion=gd3
 ----------------------------------------------------------------------
 1/10=4,30=1,38=1/1,3;
 2/12=2,17=6,18=5,40=1/2;
 3/5=1,6=6,7=111,11=2,16=1,25=1,30=1,70=2101,71=2,72=1,74=-5,124=31,140=1/1,2,3;
 4//1;
 5/5=2,38=5,53=1,98=1/2;
 8/6=4,10=90,11=11/1;
 11/6=1,8=1,9=11,15=111,16=1/1,2,10;
 10/6=1/2;
 6/7=2,8=2,9=2,10=2,18=1,28=1,40=1,73=1/1,7;
 7/8=1,10=1,25=1/1,2,3,16;
 1/10=4,30=1/3;
 99//99;
 ----------------
 B3LYP TS DA freq
 ----------------
 Symbolic Z-matrix:
 Charge =  0 Multiplicity = 1
 C                     2.94444   0.84556   0.19354 
 C                     1.9858   -0.15257   0.70582 
 C                     0.70102   0.25711   0.31951 
 C                     0.86249   1.5288   -0.43925 
 H                     2.22822  -0.76641   1.56013 
 H                    -0.20926   0.07236   0.87201 
 C                     2.8105    2.88574  -1.28959 
 H                     2.12999   3.1945   -2.0831 
 H                     2.96678   3.72034  -0.59964 
 H                     3.76781   2.586    -1.71693 
 N                     2.22557   1.74576  -0.59908 
 O                    -0.01179   2.27959  -0.87174 
 O                     4.15761   0.9348    0.3865 
 C                     1.54919  -2.67632  -0.54615 
 H                     1.66763  -3.59913   0.0184 
 C                     0.24812  -2.26203  -0.85391 
 H                    -0.5787   -2.87123  -0.49781 
 C                     2.67367  -1.87829  -0.73696 
 H                     2.64154  -1.11552  -1.51102 
 C                     4.04659  -2.30508  -0.31467 
 H                     4.66176  -1.44197  -0.04639 
 H                     4.01474  -3.00033   0.52908 
 H                     4.54981  -2.80466  -1.15342 
 C                    -0.04204  -0.99798  -1.36783 
 H                     0.6723   -0.51979  -2.03238 
 C                    -1.45538  -0.54785  -1.59826 
 H                    -1.86432  -1.02798  -2.49435 
 H                    -1.50091   0.53667  -1.71952 
 C                    -3.53943  -0.65564  -0.34181 
 C                    -4.2572   -0.04148  -1.50656 
 H                    -4.12709  -0.64047  -2.41199 
 H                    -5.31658   0.04293  -1.26926 
 H                    -3.84542   0.95534  -1.68893 
 O                    -2.23636  -0.93628  -0.43857 
 O                    -4.08274  -0.92711   0.72935 
 H                     5.01595   0.11952   1.80807 
 H                    -1.7016    2.2418   -0.01615 
 H                    -2.93028  -0.33939   2.15688 
 H                    -5.81714  -0.41854   1.09672 
 O                    -2.4533    0.36733   2.63284 
 H                    -1.6768   -0.04631   3.03161 
 O                    -6.74457  -0.165     1.27605 
 H                    -6.71118   0.77045   1.51437 
 O                    -2.57256   2.14994   0.41154 
 H                    -2.41361   1.62776   1.22132 
 O                     5.51055  -0.25212   2.56586 
 H                     5.096    -1.10529   2.74806 
 

 GradGradGradGradGradGradGradGradGradGradGradGradGradGradGradGradGradGrad
 Berny optimization.
 Initialization pass.
 Trust Radius=3.00D-01 FncErr=1.00D-07 GrdErr=1.00D-07
 Number of steps in this run=      2 maximum allowed number of steps=      2.
 GradGradGradGradGradGradGradGradGradGradGradGradGradGradGradGradGradGrad

                          Input orientation:                          
 ---------------------------------------------------------------------
 Center     Atomic      Atomic             Coordinates (Angstroms)
 Number     Number       Type             X           Y           Z
 ---------------------------------------------------------------------
      1          6           0        2.944439    0.845560    0.193536
      2          6           0        1.985802   -0.152574    0.705824
      3          6           0        0.701016    0.257112    0.319505
      4          6           0        0.862488    1.528796   -0.439250
      5          1           0        2.228223   -0.766405    1.560125
      6          1           0       -0.209263    0.072363    0.872006
      7          6           0        2.810502    2.885743   -1.289587
      8          1           0        2.129989    3.194502   -2.083097
      9          1           0        2.966779    3.720342   -0.599641
     10          1           0        3.767807    2.585999   -1.716932
     11          7           0        2.225571    1.745755   -0.599082
     12          8           0       -0.011790    2.279593   -0.871737
     13          8           0        4.157607    0.934801    0.386504
     14          6           0        1.549188   -2.676319   -0.546154
     15          1           0        1.667627   -3.599134    0.018396
     16          6           0        0.248122   -2.262028   -0.853906
     17          1           0       -0.578703   -2.871234   -0.497806
     18          6           0        2.673667   -1.878291   -0.736956
     19          1           0        2.641543   -1.115519   -1.511023
     20          6           0        4.046590   -2.305082   -0.314673
     21          1           0        4.661763   -1.441971   -0.046386
     22          1           0        4.014742   -3.000334    0.529075
     23          1           0        4.549812   -2.804660   -1.153420
     24          6           0       -0.042037   -0.997981   -1.367833
     25          1           0        0.672301   -0.519785   -2.032376
     26          6           0       -1.455375   -0.547854   -1.598263
     27          1           0       -1.864318   -1.027979   -2.494352
     28          1           0       -1.500914    0.536667   -1.719521
     29          6           0       -3.539433   -0.655642   -0.341811
     30          6           0       -4.257199   -0.041476   -1.506558
     31          1           0       -4.127087   -0.640471   -2.411990
     32          1           0       -5.316576    0.042934   -1.269263
     33          1           0       -3.845424    0.955338   -1.688934
     34          8           0       -2.236360   -0.936275   -0.438573
     35          8           0       -4.082736   -0.927108    0.729348
     36          1           0        5.015953    0.119517    1.808066
     37          1           0       -1.701596    2.241797   -0.016154
     38          1           0       -2.930276   -0.339388    2.156881
     39          1           0       -5.817135   -0.418539    1.096715
     40          8           0       -2.453303    0.367329    2.632837
     41          1           0       -1.676798   -0.046309    3.031609
     42          8           0       -6.744572   -0.164997    1.276049
     43          1           0       -6.711176    0.770448    1.514371
     44          8           0       -2.572555    2.149935    0.411536
     45          1           0       -2.413606    1.627764    1.221323
     46          8           0        5.510548   -0.252120    2.565861
     47          1           0        5.096005   -1.105288    2.748060
 ---------------------------------------------------------------------
                    Distance matrix (angstroms):
                    1          2          3          4          5
     1  C    0.000000
     2  C    1.475702   0.000000
     3  C    2.322732   1.402769   0.000000
     4  C    2.280734   2.323797   1.489618   0.000000
     5  H    2.231359   1.079531   2.217901   3.336267   0.000000
     6  H    3.317226   2.212809   1.080739   2.233661   2.668029
     7  C    2.525854   3.727354   3.734810   2.521733   4.668843
     8  H    3.371041   4.359104   4.054962   2.661460   5.382518
     9  H    2.982281   4.203098   4.239395   3.042473   5.033980
    10  H    2.712370   4.067563   4.356145   3.345299   4.934373
    11  N    1.398344   2.316014   2.320372   1.389465   3.312571
    12  O    3.454062   3.520584   2.453075   1.230895   4.495522
    13  O    1.231656   2.449712   3.523035   3.448552   2.827368
    14  C    3.859728   2.850854   3.173922   4.262156   2.923230
    15  H    4.627767   3.528820   3.986933   5.210888   3.273461
    16  C    4.245511   3.146758   2.815683   3.862607   3.461970
    17  H    5.167692   3.926388   3.477388   4.630413   4.067459
    18  C    2.891107   2.352206   3.093123   3.870044   2.590616
    19  H    2.615932   2.504330   3.000099   3.362460   3.118439
    20  C    3.376323   3.149850   4.261442   4.985243   3.031312
    21  H    2.870464   3.064169   4.325306   4.838831   2.993223
    22  H    4.006125   3.501082   4.651414   5.602444   3.040584
    23  H    4.208993   4.130919   5.133925   5.734565   4.111883
    24  C    3.841296   3.021076   2.230358   2.839900   3.712229
    25  H    3.461425   3.059063   2.477042   2.602096   3.922726
    26  C    4.950809   4.160140   2.995968   3.320885   4.857167
    27  H    5.818852   5.082409   4.018730   4.265679   5.766810
    28  H    4.849368   4.302853   3.014013   2.865150   5.134251
    29  C    6.676885   5.646135   4.387695   4.915096   6.074165
    30  C    7.452566   6.624352   5.292217   5.460412   7.210462
    31  H    7.681376   6.879405   5.619368   5.787338   7.495567
    32  H    8.427832   7.567293   6.227477   6.409176   8.098423
    33  H    7.046842   6.400432   5.019110   4.904590   7.099998
    34  O    5.514996   4.444152   3.259913   3.959727   4.894502
    35  O    7.267093   6.117811   4.945162   5.643787   6.367434
    36  H    2.724888   3.235859   4.566555   4.928262   2.935604
    37  H    4.855830   4.455465   3.134356   2.694793   5.193978
    38  H    6.306433   5.129161   4.113155   4.961357   5.210429
    39  H    8.898250   7.817248   6.599004   7.125213   8.066198
    40  O    5.942602   4.867169   3.913232   4.667033   4.934851
    41  H    5.495991   4.339955   3.619609   4.579934   4.234736
    42  O    9.801530   8.748985   7.518639   7.979884   8.997413
    43  H    9.745827   8.783117   7.525411   7.858251   9.070660
    44  O    5.673283   5.115347   3.782528   3.592933   5.733390
    45  H    5.511518   4.773901   3.520346   3.674247   5.233871
    46  O    3.663024   3.986663   5.332638   5.814363   3.471261
    47  H    3.867898   3.840801   5.202878   5.917771   3.122532
                    6          7          8          9         10
     6  H    0.000000
     7  C    4.659031   0.000000
     8  H    4.894128   1.089995   0.000000
     9  H    5.055763   1.094077   1.782517   0.000000
    10  H    5.370107   1.090368   1.785161   1.782335   0.000000
    11  N    3.300418   1.455512   2.076127   2.109119   2.081848
    12  O    2.819840   2.916736   2.625199   3.319890   3.885047
    13  O    4.477618   2.903472   3.913619   3.185874   2.702377
    14  C    3.557890   5.751534   6.096398   6.552076   5.829664
    15  H    4.210850   6.713465   7.126257   7.459524   6.758549
    16  C    2.938938   5.766728   5.901360   6.576055   6.052798
    17  H    3.267665   6.727289   6.829591   7.485298   7.082359
    18  C    3.834722   4.797931   5.276449   5.607982   4.699721
    19  H    3.900896   4.010945   4.377812   4.931729   3.874546
    20  C    5.017244   5.424300   6.086551   6.128045   5.095755
    21  H    5.183005   4.868452   5.661709   5.461551   4.451340
    22  H    5.234624   6.277231   6.982244   6.894905   6.025997
    23  H    5.918480   5.951842   6.535273   6.737085   5.476156
    24  C    2.488067   4.819379   4.775585   5.648510   5.242299
    25  H    3.092447   4.089164   3.990408   5.029516   4.396312
    26  C    2.835435   5.484759   5.205298   6.226571   6.092352
    27  H    3.909262   6.214710   5.826917   7.033916   6.736917
    28  H    2.932568   4.928621   4.514392   5.599125   5.653246
    29  C    3.618477   7.332214   7.070929   7.845158   8.111409
    30  C    4.696415   7.652979   7.183322   8.195098   8.446810
    31  H    5.161599   7.862831   7.346168   8.521985   8.557018
    32  H    5.538099   8.609958   8.126871   9.087667   9.444236
    33  H    4.534283   6.941707   6.393339   7.432221   7.785957
    34  O    2.616121   6.387712   6.231595   6.984460   7.077474
    35  O    4.002885   8.132076   7.968404   8.547553   8.941881
    36  H    5.308608   4.702284   5.738072   4.791879   4.479622
    37  H    2.778908   4.732370   4.456562   4.931559   5.738074
    38  H    3.037162   7.432102   7.488129   7.671706   8.272160
    39  H    5.633800   9.541951   9.290966   9.857236  10.431441
    40  O    2.867620   7.031036   7.158178   7.146251   7.908552
    41  H    2.613738   6.885167   7.152251   6.995459   7.689045
    42  O    6.552088  10.353209  10.066177  10.626590  11.271026
    43  H    6.570756  10.148843   9.848046  10.336041  11.115153
    44  O    3.180171   5.693201   5.424780   5.845757   6.702292
    45  H    2.720372   5.931145   5.832505   6.053374   6.910964
    46  O    5.974167   5.656935   6.702253   5.680811   5.425346
    47  H    5.749114   6.120004   7.115161   6.247192   5.943556
                   11         12         13         14         15
    11  N    0.000000
    12  O    2.316270   0.000000
    13  O    2.315554   4.558016   0.000000
    14  C    4.473816   5.206123   4.551251   0.000000
    15  H    5.409290   6.178366   5.185757   1.088270   0.000000
    16  C    4.476334   4.549087   5.200231   1.399686   2.136295
    17  H    5.402851   5.195405   6.140076   2.137346   2.417085
    18  C    3.654245   4.951550   3.373089   1.392015   2.131660
    19  H    3.031758   4.356105   3.178501   2.135488   3.075057
    20  C    4.450425   6.148172   3.316748   2.535432   2.728547
    21  H    4.049951   6.031031   2.467917   3.385485   3.690853
    22  H    5.196079   6.786226   3.940308   2.709254   2.475541
    23  H    5.139617   6.836460   4.063097   3.064146   3.211126
    24  C    3.641581   3.315044   4.944730   2.454378   3.407430
    25  H    3.098330   3.106699   4.484881   2.761960   3.831283
    26  C    4.450659   3.256721   6.135400   3.829451   4.655861
    27  H    5.292716   4.123684   6.958119   4.261986   5.039779
    28  H    4.074797   2.444181   6.050844   4.582924   5.492254
    29  C    6.250453   4.619599   7.893312   5.478956   5.992276
    30  C    6.785574   4.879944   8.680194   6.448171   7.077145
    31  H    7.024028   5.275872   8.885337   6.312378   6.945443
    32  H    7.760974   5.770739   9.659044   7.419969   7.981342
    33  H    6.218482   4.137416   8.267791   6.602781   7.352001
    34  O    5.208443   3.934228   6.713009   4.167697   4.747710
    35  O    6.978801   5.423929   8.455028   6.033673   6.380584
    36  H    4.028057   6.093068   1.849942   5.037610   5.314374
    37  H    4.001063   1.894438   6.016696   5.919152   6.743095
    38  H    6.206924   4.954710   7.415921   5.730030   6.028248
    39  H    8.499707   6.697518  10.091155   7.877773   8.203695
    40  O    5.851258   4.679720   7.005153   5.948925   6.288895
    41  H    5.623335   4.839234   6.480697   5.488563   5.734736
    42  O    9.361119   7.477925  10.993560   8.855146   9.172790
    43  H    9.234899   7.269993  10.928382   9.184747   9.567420
    44  O    4.920033   2.867249   6.839025   6.418618   7.154404
    45  H    4.984953   3.251846   6.660177   6.111697   6.739730
    46  O    4.979904   6.980177   2.826451   5.590505   5.697379
    47  H    5.250828   7.116876   3.258758   5.089194   5.042233
                   16         17         18         19         20
    16  C    0.000000
    17  H    1.087004   0.000000
    18  C    2.458495   3.408965   0.000000
    19  H    2.733999   3.805145   1.087213   0.000000
    20  C    3.836794   4.663411   1.498463   2.195557   0.000000
    21  H    4.561229   5.450601   2.149369   2.516549   1.093333
    22  H    4.079848   4.708597   2.158772   3.098419   1.093755
    23  H    4.346113   5.170680   2.133430   2.573435   1.098320
    24  C    1.395037   2.134018   2.923696   2.689967   4.419788
    25  H    2.145724   3.073960   2.743924   2.122409   4.186122
    26  C    2.528708   2.716184   4.422771   4.136979   5.916677
    27  H    2.945563   3.006092   4.940119   4.612741   6.428128
    28  H    3.411907   3.735887   4.921847   4.464655   6.389361
    29  C    4.145876   3.701230   6.344574   6.307377   7.763320
    30  C    5.065049   4.749362   7.211316   6.981850   8.688925
    31  H    4.919301   4.607758   7.112538   6.844835   8.601085
    32  H    6.037486   5.615600   8.235195   8.045627   9.700170
    33  H    5.273124   5.170387   7.171768   6.811816   8.648862
    34  O    2.846537   2.548608   5.008472   4.997621   6.431520
    35  O    4.800525   4.190916   6.978809   7.090183   8.311121
    36  H    5.957354   6.749949   3.994331   4.263741   3.365170
    37  H    4.978722   5.256992   6.052901   5.689381   7.335180
    38  H    4.781589   4.357465   6.492048   6.715733   7.658276
    39  H    6.632550   5.999948   8.808345   8.878925  10.141210
    40  O    5.135036   4.878867   6.533310   6.732598   7.620906
    41  H    4.869492   4.652181   6.040264   6.358206   7.004058
    42  O    7.604736   6.963348   9.782167   9.837196  11.115734
    43  H    7.952137   7.410663  10.007975  10.009157  11.337276
    44  O    5.387298   5.478548   6.713306   6.445637   8.011719
    45  H    5.149937   5.153955   6.481329   6.367562   7.717557
    46  O    6.589967   7.302383   4.647680   5.059410   3.828224
    47  H    6.149323   6.771744   4.313999   4.915717   3.452696
                   21         22         23         24         25
    21  H    0.000000
    22  H    1.782775   0.000000
    23  H    1.759255   1.776338   0.000000
    24  C    4.906025   4.905623   4.939144   0.000000
    25  H    4.550867   4.887337   4.585663   1.086539   0.000000
    26  C    6.373943   6.361007   6.430655   1.501078   2.171692
    27  H    6.982382   6.898887   6.789386   2.142581   2.627950
    28  H    6.685281   6.927411   6.935144   2.146428   2.436562
    29  C    8.244101   7.957486   8.409095   3.660833   4.540393
    30  C    9.145566   9.017963   9.237063   4.324551   4.980485
    31  H    9.136869   8.972636   9.030852   4.231514   4.815890
    32  H   10.162068   9.978426  10.269753   5.377172   6.063468
    33  H    8.989843   9.074641   9.214356   4.287693   4.764848
    34  O    6.927744   6.653793   7.074885   2.383775   3.342750
    35  O    8.793925   8.361072   9.032768   4.553069   5.513929
    36  H    2.450038   3.517344   4.187899   6.076051   5.833096
    37  H    7.352782   7.775200   8.114198   3.882954   4.162556
    38  H    7.981800   7.613387   8.543265   4.604267   5.528198
    39  H   10.590628  10.181045  10.873374   6.305673   7.205154
    40  O    7.815111   7.589636   8.569765   4.866584   5.685120
    41  H    7.183264   6.883500   7.993350   4.788863   5.602356
    42  O   11.553527  11.151679  11.850454   7.253134   8.129056
    43  H   11.690787  11.412052  12.112323   7.477423   8.292156
    44  O    8.089922   8.362510   8.816190   4.413508   4.860988
    45  H    7.816086   7.951236   8.589236   4.384359   4.972057
    46  O    2.993329   3.733445   4.612106   6.845543   6.680124
    47  H    2.847955   3.111948   4.290424   6.584191   6.539460
                   26         27         28         29         30
    26  C    0.000000
    27  H    1.095778   0.000000
    28  H    1.092229   1.783408   0.000000
    29  C    2.435896   2.752831   2.734089   0.000000
    30  C    2.848692   2.770344   2.824307   1.499674   0.000000
    31  H    2.794418   2.297187   2.960059   2.152024   1.093404
    32  H    3.919967   3.816515   3.873730   2.122831   1.088905
    33  H    2.824914   2.916681   2.381795   2.122175   1.093827
    34  O    1.451099   2.091184   2.085969   1.336457   2.454597
    35  O    3.530529   3.914562   3.847779   1.231362   2.411236
    36  H    7.343470   8.195467   7.422091   8.855364   9.849061
    37  H    3.216496   4.106017   2.418512   3.446571   3.737077
    38  H    4.039789   4.821244   4.223392   2.591245   3.907718
    39  H    5.128799   5.375122   5.241504   2.704349   3.058203
    40  O    4.442480   5.346200   4.458558   3.327864   4.533845
    41  H    4.662219   5.615611   4.789993   3.901366   5.220484
    42  O    6.031903   6.227162   6.079615   3.623689   3.734325
    43  H    6.248988   6.541883   6.136737   3.941966   3.975831
    44  O    3.544778   4.364049   2.879662   3.061641   3.364430
    45  H    3.688033   4.600101   3.266812   2.987443   3.691413
    46  O    8.121051   8.977548   8.255137   9.514176  10.584793
    47  H    7.881741   8.714067   8.134779   9.182607  10.330339
                   31         32         33         34         35
    31  H    0.000000
    32  H    1.785428   0.000000
    33  H    1.774472   1.781262   0.000000
    34  O    2.748949   3.337158   2.780412   0.000000
    35  O    3.154700   2.541218   3.073761   2.184772   0.000000
    36  H   10.098596  10.781325   9.563033   7.665385   9.221995
    37  H    4.464359   4.412863   3.008184   3.250316   4.033306
    38  H    4.732609   4.192739   4.159820   2.752122   1.926507
    39  H    3.900837   2.461985   3.678998   3.930281   1.844381
    40  O    5.409944   4.850768   4.578369   3.343652   2.820264
    41  H    5.999143   5.635020   5.290535   3.625922   3.444525
    42  O    4.547410   2.925922   4.295502   4.884544   2.822245
    43  H    4.907598   3.197312   4.302079   5.172125   3.225935
    44  O    4.263242   3.846322   2.731159   3.218758   3.442360
    45  H    4.613228   4.140283   3.312379   3.059570   3.091182
    46  O   10.854208  11.490076  10.348693   8.337222   9.790786
    47  H   10.578639  11.219587  10.192264   7.996673   9.399800
                   36         37         38         39         40
    36  H    0.000000
    37  H    7.277178   0.000000
    38  H    7.967109   3.590857   0.000000
    39  H   10.869743   5.025289   3.076389   0.000000
    40  O    7.518739   3.331043   0.976466   3.780559   0.000000
    41  H    6.805694   3.811155   1.556358   4.585276   0.965958
    42  O   11.775990   5.735334   3.918562   0.978051   4.532023
    43  H   11.748852   5.440888   3.992463   1.545133   4.420741
    44  O    7.978618   0.974642   3.061196   4.194500   2.850629
    45  H    7.603777   1.554138   2.238728   3.973272   1.892787
    46  O    0.978259   8.056143   8.451177  11.423769   7.988187
    47  H    1.546009   8.065435   8.084385  11.058716   7.692459
                   41         42         43         44         45
    41  H    0.000000
    42  O    5.364551   0.000000
    43  H    5.321096   0.965904   0.000000
    44  O    3.534211   4.848919   4.499713   0.000000
    45  H    2.573430   4.687670   4.392035   0.976567   0.000000
    46  O    7.205361  12.323115  12.309420   8.703306   8.254330
    47  H    6.860955  11.968719  12.018731   8.652320   8.136016
                   46         47
    46  O    0.000000
    47  H    0.965887   0.000000
 Stoichiometry    C13H25NO8
 Framework group  C1[X(C13H25NO8)]
 Deg. of freedom   135
 Full point group                 C1      NOp   1
 Largest Abelian subgroup         C1      NOp   1
 Largest concise Abelian subgroup C1      NOp   1
                         Standard orientation:                         
 ---------------------------------------------------------------------
 Center     Atomic      Atomic             Coordinates (Angstroms)
 Number     Number       Type             X           Y           Z
 ---------------------------------------------------------------------
      1          6           0        2.944439    0.845560    0.193536
      2          6           0        1.985802   -0.152574    0.705824
      3          6           0        0.701016    0.257112    0.319505
      4          6           0        0.862488    1.528796   -0.439250
      5          1           0        2.228223   -0.766405    1.560125
      6          1           0       -0.209263    0.072363    0.872006
      7          6           0        2.810502    2.885743   -1.289587
      8          1           0        2.129989    3.194502   -2.083097
      9          1           0        2.966779    3.720342   -0.599641
     10          1           0        3.767807    2.585999   -1.716932
     11          7           0        2.225571    1.745755   -0.599082
     12          8           0       -0.011790    2.279593   -0.871737
     13          8           0        4.157607    0.934801    0.386504
     14          6           0        1.549188   -2.676319   -0.546154
     15          1           0        1.667627   -3.599134    0.018396
     16          6           0        0.248122   -2.262028   -0.853906
     17          1           0       -0.578703   -2.871234   -0.497806
     18          6           0        2.673667   -1.878291   -0.736956
     19          1           0        2.641543   -1.115519   -1.511023
     20          6           0        4.046590   -2.305082   -0.314673
     21          1           0        4.661763   -1.441971   -0.046386
     22          1           0        4.014742   -3.000334    0.529075
     23          1           0        4.549812   -2.804660   -1.153420
     24          6           0       -0.042037   -0.997981   -1.367833
     25          1           0        0.672301   -0.519785   -2.032376
     26          6           0       -1.455375   -0.547854   -1.598263
     27          1           0       -1.864318   -1.027979   -2.494352
     28          1           0       -1.500914    0.536667   -1.719521
     29          6           0       -3.539433   -0.655642   -0.341811
     30          6           0       -4.257199   -0.041476   -1.506558
     31          1           0       -4.127087   -0.640471   -2.411990
     32          1           0       -5.316576    0.042934   -1.269263
     33          1           0       -3.845424    0.955338   -1.688934
     34          8           0       -2.236360   -0.936275   -0.438573
     35          8           0       -4.082736   -0.927108    0.729348
     36          1           0        5.015953    0.119517    1.808066
     37          1           0       -1.701596    2.241797   -0.016154
     38          1           0       -2.930276   -0.339388    2.156881
     39          1           0       -5.817135   -0.418539    1.096715
     40          8           0       -2.453303    0.367329    2.632837
     41          1           0       -1.676798   -0.046309    3.031609
     42          8           0       -6.744572   -0.164997    1.276049
     43          1           0       -6.711176    0.770448    1.514371
     44          8           0       -2.572555    2.149935    0.411536
     45          1           0       -2.413606    1.627764    1.221323
     46          8           0        5.510548   -0.252120    2.565861
     47          1           0        5.096005   -1.105288    2.748060
 ---------------------------------------------------------------------
 Rotational constants (GHZ):      0.4145152      0.1305700      0.1221544
 Standard basis: 6-31+G(d,p) (6D, 7F)
 There are   543 symmetry adapted cartesian basis functions of A   symmetry.
 There are   543 symmetry adapted basis functions of A   symmetry.
   543 basis functions,   879 primitive gaussians,   543 cartesian basis functions
    87 alpha electrons       87 beta electrons
       nuclear repulsion energy      2002.8768266095 Hartrees.
 NAtoms=   47 NActive=   47 NUniq=   47 SFac= 1.00D+00 NAtFMM=   60 NAOKFM=F Big=F
 Integral buffers will be    131072 words long.
 Raffenetti 2 integral format.
 Two-electron integral symmetry is turned on.
 Nuclear repulsion after empirical dispersion term =     2002.8191509058 Hartrees.
 Force inversion solution in PCM.
 ------------------------------------------------------------------------------
 Polarizable Continuum Model (PCM)
 =================================
 Model                : C-PCM.
 Atomic radii         : UFF (Universal Force Field).
 Polarization charges : Total charges.
 Charge compensation  : None.
 Solution method      : Matrix inversion.
 Cavity type          : Scaled VdW (van der Waals Surface) (Alpha=1.100).
 Cavity algorithm     : GePol (No added spheres)
                        Default sphere list used, NSphG=   47.
                        Lebedev-Laikov grids with approx.  5.0 points / Ang**2.
                        Smoothing algorithm: Karplus/York (Gamma=1.0000).
                        Polarization charges: spherical gaussians, with
                                              point-specific exponents (IZeta= 3).
                        Self-potential: point-specific (ISelfS= 7).
                        Self-field    : sphere-specific E.n sum rule (ISelfD= 2).
 1st derivatives      : Analytical E(r).r(x)/FMM algorithm (CHGder, D1EAlg=3).
                        Cavity 1st derivative terms included.
 2nd derivatives      : Analytical E(r).r(xy)/FMM algorithm (CHGder, D2EAlg=3).
                        Cavity 2nd derivative terms included.
 Solvent              : Water, Eps=  78.355300 Eps(inf)=   1.777849
 ------------------------------------------------------------------------------
 One-electron integrals computed using PRISM.
 NBasis=   543 RedAO= T EigKep=  1.54D-06  NBF=   543
 NBsUse=   543 1.00D-06 EigRej= -1.00D+00 NBFU=   543
 ExpMin= 4.38D-02 ExpMax= 5.48D+03 ExpMxC= 8.25D+02 IAcc=2 IRadAn=         4 AccDes= 0.00D+00
 Harris functional with IExCor=  402 and IRadAn=       4 diagonalized for initial guess.
 HarFok:  IExCor=  402 AccDes= 0.00D+00 IRadAn=         4 IDoV= 1 UseB2=F ITyADJ=14
 ICtDFT=  3500011 ScaDFX=  1.000000  1.000000  1.000000  1.000000
 FoFCou: FMM=F IPFlag=           0 FMFlag=      100000 FMFlg1=           0
         NFxFlg=           0 DoJE=T BraDBF=F KetDBF=T FulRan=T
         wScrn=  0.000000 ICntrl=     500 IOpCl=  0 I1Cent=   200000004 NGrid=           0
         NMat0=    1 NMatS0=      1 NMatT0=    0 NMatD0=    1 NMtDS0=    0 NMtDT0=    0
 Petite list used in FoFCou.
 Requested convergence on RMS density matrix=1.00D-08 within 128 cycles.
 Requested convergence on MAX density matrix=1.00D-06.
 Requested convergence on             energy=1.00D-06.
 No special actions if energy rises.
 Inv3:  Mode=3 IEnd=        6714.
 Iteration    1 A*A^-1 deviation from unit magnitude is 5.22D-15 for   3348.
 Iteration    1 A*A^-1 deviation from orthogonality  is 2.58D-15 for   3348   1558.
 Iteration    1 A^-1*A deviation from unit magnitude is 5.66D-15 for   3348.
 Iteration    1 A^-1*A deviation from orthogonality  is 2.49D-15 for   3341   1579.
 Error on total polarization charges =  0.02157
 SCF Done:  E(RB3LYP) =  -1167.14318106     A.U. after   16 cycles
            NFock= 16  Conv=0.38D-08     -V/T= 2.0094
 DoSCS=F DFT=T ScalE2(SS,OS)=  1.000000  1.000000
 Range of M.O.s used for correlation:     1   543
 NBasis=   543 NAE=    87 NBE=    87 NFC=     0 NFV=     0
 NROrb=    543 NOA=    87 NOB=    87 NVA=   456 NVB=   456

 **** Warning!!: The largest alpha MO coefficient is  0.24664947D+03

 PrsmSu:  requested number of processors reduced to:   1 ShMem   1 Linda.
 Symmetrizing basis deriv contribution to polar:
 IMax=3 JMax=2 DiffMx= 0.00D+00
 G2DrvN: will do     8 centers at a time, making    6 passes.
 Calling FoFCou, ICntrl=  3107 FMM=F I1Cent=   0 AccDes= 0.00D+00.
 Calling FoFCou, ICntrl=  3107 FMM=F I1Cent=   0 AccDes= 0.00D+00.
 Calling FoFCou, ICntrl=  3107 FMM=F I1Cent=   0 AccDes= 0.00D+00.
 Calling FoFCou, ICntrl=  3107 FMM=F I1Cent=   0 AccDes= 0.00D+00.
 Calling FoFCou, ICntrl=  3107 FMM=F I1Cent=   0 AccDes= 0.00D+00.
 Calling FoFCou, ICntrl=  3107 FMM=F I1Cent=   0 AccDes= 0.00D+00.
 NEqPCM:  Using equilibrium solvation (IEInf=0, Eps=  78.3553, EpsInf=   1.7778)
 G2PCM: DoFxE=T DoFxN=T DoGrad=T DoDP/DQ/DG/TGxP=FFFF NFrqRd=   0 IEInf=0 SqF1=F DoCFld=F IF1Alg=4.
 End of G2Drv F.D. properties file   721 does not exist.
 End of G2Drv F.D. properties file   722 does not exist.
 End of G2Drv F.D. properties file   788 does not exist.
          IDoAtm=11111111111111111111111111111111111111111111111
 NEqPCM:  Using equilibrium solvation (IEInf=0, Eps=  78.3553, EpsInf=   1.7778)
          Differentiating once with respect to electric field.
                with respect to dipole field.
          Differentiating once with respect to nuclear coordinates.
          There are   144 degrees of freedom in the 1st order CPHF.  IDoFFX=6 NUNeed=     3.
    144 vectors produced by pass  0 Test12= 3.97D-14 1.00D-09 XBig12= 2.93D+02 1.05D+01.
 AX will form     8 AO Fock derivatives at one time.
    144 vectors produced by pass  1 Test12= 3.97D-14 1.00D-09 XBig12= 7.51D+01 1.60D+00.
    142 vectors produced by pass  2 Test12= 3.97D-14 1.00D-09 XBig12= 6.06D-01 9.58D-02.
    141 vectors produced by pass  3 Test12= 3.97D-14 1.00D-09 XBig12= 1.74D-03 4.40D-03.
    141 vectors produced by pass  4 Test12= 3.97D-14 1.00D-09 XBig12= 3.75D-06 1.84D-04.
    141 vectors produced by pass  5 Test12= 3.97D-14 1.00D-09 XBig12= 4.85D-09 5.36D-06.
    115 vectors produced by pass  6 Test12= 3.97D-14 1.00D-09 XBig12= 6.97D-12 1.71D-07.
     93 vectors produced by pass  7 Test12= 3.97D-14 1.00D-09 XBig12= 2.04D-13 2.80D-08.
     69 vectors produced by pass  8 Test12= 3.97D-14 1.00D-09 XBig12= 1.89D-14 7.69D-09.
     56 vectors produced by pass  9 Test12= 3.97D-14 1.00D-09 XBig12= 1.26D-14 6.32D-09.
     47 vectors produced by pass 10 Test12= 3.97D-14 1.00D-09 XBig12= 6.13D-15 4.08D-09.
     32 vectors produced by pass 11 Test12= 3.97D-14 1.00D-09 XBig12= 4.16D-15 3.38D-09.
     25 vectors produced by pass 12 Test12= 3.97D-14 1.00D-09 XBig12= 4.49D-15 3.70D-09.
      8 vectors produced by pass 13 Test12= 3.97D-14 1.00D-09 XBig12= 1.43D-15 1.91D-09.
      6 vectors produced by pass 14 Test12= 3.97D-14 1.00D-09 XBig12= 1.20D-15 1.51D-09.
      6 vectors produced by pass 15 Test12= 3.97D-14 1.00D-09 XBig12= 1.27D-15 1.52D-09.
      6 vectors produced by pass 16 Test12= 3.97D-14 1.00D-09 XBig12= 1.70D-15 1.66D-09.
      6 vectors produced by pass 17 Test12= 3.97D-14 1.00D-09 XBig12= 1.92D-15 2.26D-09.
      5 vectors produced by pass 18 Test12= 3.97D-14 1.00D-09 XBig12= 8.19D-16 1.27D-09.
      5 vectors produced by pass 19 Test12= 3.97D-14 1.00D-09 XBig12= 2.29D-15 2.08D-09.
      5 vectors produced by pass 20 Test12= 3.97D-14 1.00D-09 XBig12= 2.55D-15 2.24D-09.
      5 vectors produced by pass 21 Test12= 3.97D-14 1.00D-09 XBig12= 1.14D-15 1.70D-09.
      1 vectors produced by pass 22 Test12= 3.97D-14 1.00D-09 XBig12= 4.96D-16 1.00D-09.
 InvSVY:  IOpt=1 It=  1 EMax= 1.02D-14
 Solved reduced A of dimension  1343 with   144 vectors.
 Isotropic polarizability for W=    0.000000      302.75 Bohr**3.
 End of Minotr F.D. properties file   721 does not exist.
 End of Minotr F.D. properties file   722 does not exist.
 End of Minotr F.D. properties file   788 does not exist.

 **********************************************************************

            Population analysis using the SCF density.

 **********************************************************************

 Orbital symmetries:
       Occupied  (A) (A) (A) (A) (A) (A) (A) (A) (A) (A) (A) (A)
                 (A) (A) (A) (A) (A) (A) (A) (A) (A) (A) (A) (A)
                 (A) (A) (A) (A) (A) (A) (A) (A) (A) (A) (A) (A)
                 (A) (A) (A) (A) (A) (A) (A) (A) (A) (A) (A) (A)
                 (A) (A) (A) (A) (A) (A) (A) (A) (A) (A) (A) (A)
                 (A) (A) (A) (A) (A) (A) (A) (A) (A) (A) (A) (A)
                 (A) (A) (A) (A) (A) (A) (A) (A) (A) (A) (A) (A)
                 (A) (A) (A)
       Virtual   (A) (A) (A) (A) (A) (A) (A) (A) (A) (A) (A) (A)
                 (A) (A) (A) (A) (A) (A) (A) (A) (A) (A) (A) (A)
                 (A) (A) (A) (A) (A) (A) (A) (A) (A) (A) (A) (A)
                 (A) (A) (A) (A) (A) (A) (A) (A) (A) (A) (A) (A)
                 (A) (A) (A) (A) (A) (A) (A) (A) (A) (A) (A) (A)
                 (A) (A) (A) (A) (A) (A) (A) (A) (A) (A) (A) (A)
                 (A) (A) (A) (A) (A) (A) (A) (A) (A) (A) (A) (A)
                 (A) (A) (A) (A) (A) (A) (A) (A) (A) (A) (A) (A)
                 (A) (A) (A) (A) (A) (A) (A) (A) (A) (A) (A) (A)
                 (A) (A) (A) (A) (A) (A) (A) (A) (A) (A) (A) (A)
                 (A) (A) (A) (A) (A) (A) (A) (A) (A) (A) (A) (A)
                 (A) (A) (A) (A) (A) (A) (A) (A) (A) (A) (A) (A)
                 (A) (A) (A) (A) (A) (A) (A) (A) (A) (A) (A) (A)
                 (A) (A) (A) (A) (A) (A) (A) (A) (A) (A) (A) (A)
                 (A) (A) (A) (A) (A) (A) (A) (A) (A) (A) (A) (A)
                 (A) (A) (A) (A) (A) (A) (A) (A) (A) (A) (A) (A)
                 (A) (A) (A) (A) (A) (A) (A) (A) (A) (A) (A) (A)
                 (A) (A) (A) (A) (A) (A) (A) (A) (A) (A) (A) (A)
                 (A) (A) (A) (A) (A) (A) (A) (A) (A) (A) (A) (A)
                 (A) (A) (A) (A) (A) (A) (A) (A) (A) (A) (A) (A)
                 (A) (A) (A) (A) (A) (A) (A) (A) (A) (A) (A) (A)
                 (A) (A) (A) (A) (A) (A) (A) (A) (A) (A) (A) (A)
                 (A) (A) (A) (A) (A) (A) (A) (A) (A) (A) (A) (A)
                 (A) (A) (A) (A) (A) (A) (A) (A) (A) (A) (A) (A)
                 (A) (A) (A) (A) (A) (A) (A) (A) (A) (A) (A) (A)
                 (A) (A) (A) (A) (A) (A) (A) (A) (A) (A) (A) (A)
                 (A) (A) (A) (A) (A) (A) (A) (A) (A) (A) (A) (A)
                 (A) (A) (A) (A) (A) (A) (A) (A) (A) (A) (A) (A)
                 (A) (A) (A) (A) (A) (A) (A) (A) (A) (A) (A) (A)
                 (A) (A) (A) (A) (A) (A) (A) (A) (A) (A) (A) (A)
                 (A) (A) (A) (A) (A) (A) (A) (A) (A) (A) (A) (A)
                 (A) (A) (A) (A) (A) (A) (A) (A) (A) (A) (A) (A)
                 (A) (A) (A) (A) (A) (A) (A) (A) (A) (A) (A) (A)
                 (A) (A) (A) (A) (A) (A) (A) (A) (A) (A) (A) (A)
                 (A) (A) (A) (A) (A) (A) (A) (A) (A) (A) (A) (A)
                 (A) (A) (A) (A) (A) (A) (A) (A) (A) (A) (A) (A)
                 (A) (A) (A) (A) (A) (A) (A) (A) (A) (A) (A) (A)
                 (A) (A) (A) (A) (A) (A) (A) (A) (A) (A) (A) (A)
 The electronic state is 1-A.
 Alpha  occ. eigenvalues --  -19.22525 -19.17463 -19.17230 -19.17207 -19.17099
 Alpha  occ. eigenvalues --  -19.15446 -19.15391 -19.14166 -14.40280 -10.35456
 Alpha  occ. eigenvalues --  -10.32941 -10.32761 -10.27088 -10.23547 -10.23381
 Alpha  occ. eigenvalues --  -10.23235 -10.22930 -10.22382 -10.21383 -10.21008
 Alpha  occ. eigenvalues --  -10.20840 -10.19244  -1.13456  -1.08989  -1.07047
 Alpha  occ. eigenvalues --   -1.04885  -1.02360  -1.00530  -1.00456  -0.99352
 Alpha  occ. eigenvalues --   -0.97764  -0.85554  -0.82689  -0.80454  -0.76737
 Alpha  occ. eigenvalues --   -0.74799  -0.71962  -0.69744  -0.67600  -0.63157
 Alpha  occ. eigenvalues --   -0.62216  -0.59616  -0.56527  -0.55388  -0.54411
 Alpha  occ. eigenvalues --   -0.53508  -0.53237  -0.52535  -0.52319  -0.51714
 Alpha  occ. eigenvalues --   -0.50973  -0.50225  -0.50100  -0.48214  -0.47900
 Alpha  occ. eigenvalues --   -0.46689  -0.45725  -0.45470  -0.44598  -0.44127
 Alpha  occ. eigenvalues --   -0.43366  -0.42745  -0.41998  -0.41852  -0.41142
 Alpha  occ. eigenvalues --   -0.40943  -0.40737  -0.40169  -0.40033  -0.38806
 Alpha  occ. eigenvalues --   -0.38666  -0.37901  -0.37709  -0.37347  -0.36592
 Alpha  occ. eigenvalues --   -0.35891  -0.33007  -0.32871  -0.31687  -0.31443
 Alpha  occ. eigenvalues --   -0.31304  -0.31058  -0.30505  -0.29727  -0.29315
 Alpha  occ. eigenvalues --   -0.26258  -0.24919
 Alpha virt. eigenvalues --   -0.09428  -0.05909  -0.02717  -0.00460   0.00185
 Alpha virt. eigenvalues --    0.00480   0.01064   0.01805   0.02280   0.02653
 Alpha virt. eigenvalues --    0.02855   0.03465   0.04089   0.04526   0.04729
 Alpha virt. eigenvalues --    0.04931   0.05533   0.05762   0.06043   0.06603
 Alpha virt. eigenvalues --    0.07236   0.07900   0.07983   0.08187   0.08545
 Alpha virt. eigenvalues --    0.08874   0.09252   0.09901   0.10175   0.10493
 Alpha virt. eigenvalues --    0.10883   0.11092   0.11521   0.11781   0.12317
 Alpha virt. eigenvalues --    0.12672   0.12877   0.13321   0.13744   0.13899
 Alpha virt. eigenvalues --    0.14312   0.14533   0.14982   0.15202   0.15248
 Alpha virt. eigenvalues --    0.16091   0.16424   0.16706   0.17266   0.17522
 Alpha virt. eigenvalues --    0.17845   0.18122   0.18445   0.18804   0.19093
 Alpha virt. eigenvalues --    0.19438   0.19671   0.19834   0.19925   0.20410
 Alpha virt. eigenvalues --    0.20948   0.21028   0.21286   0.21476   0.21771
 Alpha virt. eigenvalues --    0.21971   0.22612   0.22734   0.23030   0.23294
 Alpha virt. eigenvalues --    0.23510   0.23869   0.24088   0.24425   0.24863
 Alpha virt. eigenvalues --    0.24907   0.25338   0.25559   0.25969   0.26138
 Alpha virt. eigenvalues --    0.26394   0.26891   0.27070   0.27611   0.27998
 Alpha virt. eigenvalues --    0.28120   0.28241   0.28761   0.29116   0.29478
 Alpha virt. eigenvalues --    0.29737   0.30007   0.30203   0.30389   0.30942
 Alpha virt. eigenvalues --    0.31658   0.31973   0.32196   0.32545   0.33132
 Alpha virt. eigenvalues --    0.33367   0.34054   0.34370   0.35184   0.35433
 Alpha virt. eigenvalues --    0.35777   0.36250   0.36473   0.36691   0.37116
 Alpha virt. eigenvalues --    0.37215   0.37788   0.38214   0.38751   0.39856
 Alpha virt. eigenvalues --    0.40060   0.40452   0.40837   0.41362   0.42543
 Alpha virt. eigenvalues --    0.42766   0.43514   0.44062   0.44501   0.45511
 Alpha virt. eigenvalues --    0.46181   0.46736   0.47583   0.47961   0.48376
 Alpha virt. eigenvalues --    0.50066   0.50600   0.52448   0.53979   0.55276
 Alpha virt. eigenvalues --    0.56697   0.62748   0.64629   0.65955   0.66253
 Alpha virt. eigenvalues --    0.67076   0.68785   0.69759   0.70328   0.71642
 Alpha virt. eigenvalues --    0.72697   0.73682   0.74519   0.74721   0.75478
 Alpha virt. eigenvalues --    0.76577   0.76775   0.78630   0.79207   0.80177
 Alpha virt. eigenvalues --    0.80597   0.82754   0.83343   0.84572   0.84749
 Alpha virt. eigenvalues --    0.85663   0.86013   0.86953   0.87735   0.89979
 Alpha virt. eigenvalues --    0.91486   0.92753   0.93219   0.94621   0.95029
 Alpha virt. eigenvalues --    0.95139   0.95696   0.95994   0.96517   0.97013
 Alpha virt. eigenvalues --    0.97316   0.98329   0.99069   0.99313   0.99964
 Alpha virt. eigenvalues --    1.01261   1.01395   1.02121   1.02728   1.03851
 Alpha virt. eigenvalues --    1.04723   1.07276   1.07793   1.08757   1.09507
 Alpha virt. eigenvalues --    1.09993   1.10426   1.11189   1.11481   1.12300
 Alpha virt. eigenvalues --    1.12675   1.13276   1.13739   1.14321   1.14935
 Alpha virt. eigenvalues --    1.15167   1.16201   1.16352   1.17182   1.18073
 Alpha virt. eigenvalues --    1.18242   1.18703   1.19154   1.19543   1.20466
 Alpha virt. eigenvalues --    1.21935   1.22562   1.23496   1.23988   1.25160
 Alpha virt. eigenvalues --    1.26342   1.26663   1.27366   1.27413   1.28027
 Alpha virt. eigenvalues --    1.28740   1.29165   1.30639   1.31449   1.31962
 Alpha virt. eigenvalues --    1.32731   1.33022   1.34401   1.35129   1.35648
 Alpha virt. eigenvalues --    1.37018   1.37548   1.38427   1.38798   1.39717
 Alpha virt. eigenvalues --    1.40362   1.40891   1.41798   1.43694   1.44173
 Alpha virt. eigenvalues --    1.44574   1.45955   1.46764   1.47896   1.48795
 Alpha virt. eigenvalues --    1.50455   1.51642   1.53040   1.54036   1.54571
 Alpha virt. eigenvalues --    1.54886   1.55157   1.56373   1.56858   1.57090
 Alpha virt. eigenvalues --    1.58344   1.59749   1.61468   1.62336   1.62843
 Alpha virt. eigenvalues --    1.64508   1.64795   1.65288   1.66693   1.67371
 Alpha virt. eigenvalues --    1.68379   1.69450   1.70421   1.70801   1.72093
 Alpha virt. eigenvalues --    1.72529   1.74476   1.76837   1.78190   1.79523
 Alpha virt. eigenvalues --    1.80140   1.81788   1.82660   1.84224   1.84765
 Alpha virt. eigenvalues --    1.85319   1.86200   1.87755   1.88474   1.89478
 Alpha virt. eigenvalues --    1.90296   1.91358   1.92332   1.92748   1.93212
 Alpha virt. eigenvalues --    1.93891   1.95670   1.97461   1.97973   1.98725
 Alpha virt. eigenvalues --    1.99199   1.99488   2.00265   2.00432   2.01846
 Alpha virt. eigenvalues --    2.02498   2.04119   2.04526   2.05263   2.05830
 Alpha virt. eigenvalues --    2.07663   2.08533   2.08945   2.09869   2.10416
 Alpha virt. eigenvalues --    2.10895   2.11064   2.12904   2.13272   2.13480
 Alpha virt. eigenvalues --    2.14217   2.16191   2.17355   2.18047   2.20137
 Alpha virt. eigenvalues --    2.21830   2.23059   2.24333   2.26599   2.27119
 Alpha virt. eigenvalues --    2.27465   2.28228   2.28788   2.30187   2.30346
 Alpha virt. eigenvalues --    2.31719   2.32889   2.34325   2.34543   2.35731
 Alpha virt. eigenvalues --    2.36842   2.37677   2.38873   2.40155   2.42008
 Alpha virt. eigenvalues --    2.42518   2.43443   2.45082   2.46230   2.46472
 Alpha virt. eigenvalues --    2.46782   2.49123   2.50619   2.51887   2.53016
 Alpha virt. eigenvalues --    2.53378   2.54723   2.55409   2.55980   2.56940
 Alpha virt. eigenvalues --    2.57908   2.58428   2.59491   2.61090   2.61342
 Alpha virt. eigenvalues --    2.62586   2.63155   2.64119   2.64584   2.64918
 Alpha virt. eigenvalues --    2.65148   2.65662   2.66100   2.66879   2.67217
 Alpha virt. eigenvalues --    2.67521   2.68388   2.69725   2.70524   2.70885
 Alpha virt. eigenvalues --    2.71922   2.72948   2.74292   2.75437   2.76204
 Alpha virt. eigenvalues --    2.77163   2.80128   2.81520   2.82486   2.83573
 Alpha virt. eigenvalues --    2.84734   2.85589   2.86567   2.87528   2.88312
 Alpha virt. eigenvalues --    2.88429   2.91079   2.92189   2.95627   2.97172
 Alpha virt. eigenvalues --    2.99690   3.04013   3.04152   3.04855   3.05309
 Alpha virt. eigenvalues --    3.06941   3.08661   3.09476   3.12765   3.16184
 Alpha virt. eigenvalues --    3.19564   3.22751   3.26543   3.27211   3.28513
 Alpha virt. eigenvalues --    3.29840   3.30171   3.33553   3.35947   3.36917
 Alpha virt. eigenvalues --    3.42083   3.42489   3.43901   3.44733   3.45724
 Alpha virt. eigenvalues --    3.45945   3.46905   3.47198   3.48587   3.48879
 Alpha virt. eigenvalues --    3.52484   3.55417   3.57457   3.62187   3.66493
 Alpha virt. eigenvalues --    3.67886   3.68534   3.70615   3.73810   4.14406
 Alpha virt. eigenvalues --    4.17283   4.22531   4.29979   4.31980   4.37604
 Alpha virt. eigenvalues --    4.40714   4.42239   4.45981   4.49706   4.52205
 Alpha virt. eigenvalues --    4.55327   4.57594   4.58479   4.60459   4.62000
 Alpha virt. eigenvalues --    4.65385   4.70341   4.75372   4.76647   4.86843
 Alpha virt. eigenvalues --    5.16801
          Condensed to atoms (all electrons):
               1          2          3          4          5          6
     1  C    8.028429  -2.578854   1.524038  -1.555794  -0.034785   0.010983
     2  C   -2.578854  39.015288 -25.638427  -3.315334   0.164525   0.161850
     3  C    1.524038 -25.638427  30.453668   0.081124   0.113992   0.087517
     4  C   -1.555794  -3.315334   0.081124   9.946931   0.033420  -0.012976
     5  H   -0.034785   0.164525   0.113992   0.033420   0.514583  -0.003296
     6  H    0.010983   0.161850   0.087517  -0.012976  -0.003296   0.516809
     7  C   -0.118517  -0.459338   0.046166   0.005747   0.002689   0.003938
     8  H    0.015342  -0.010783   0.013368  -0.020135   0.000002  -0.000006
     9  H   -0.008496  -0.006272   0.003852  -0.005901   0.000006   0.000007
    10  H   -0.018935   0.021701  -0.021170   0.014227  -0.000006   0.000002
    11  N    0.206349  -0.295786  -0.600941   0.133976   0.019579   0.029126
    12  O    0.137635  -0.234224  -0.012168   0.436598  -0.000747  -0.002794
    13  O    0.449381  -0.200960   0.003091   0.104911  -0.001871  -0.000874
    14  C   -0.562926  -0.554095   0.529731   0.580507   0.025420   0.008964
    15  H    0.011754   0.022432  -0.021573  -0.005381   0.000215  -0.000003
    16  C    0.344749   1.088188  -0.026936  -1.449814  -0.032557  -0.027955
    17  H   -0.004186  -0.060623   0.054503   0.022733   0.000009   0.000303
    18  C    0.414680  -0.055615  -0.144243  -0.384437   0.035887  -0.008958
    19  H   -0.004306  -0.058003   0.056930  -0.013178   0.001482  -0.000099
    20  C   -0.225041   0.786839  -0.510802   0.024308  -0.040672   0.004092
    21  H   -0.008225  -0.005041   0.008461   0.000133  -0.000124  -0.000002
    22  H    0.003061  -0.019531   0.017863  -0.000748   0.000656  -0.000001
    23  H    0.004661   0.016446  -0.012741   0.001276  -0.000018   0.000000
    24  C   -0.013352  -2.343110  -0.100310   1.539517  -0.000644   0.070435
    25  H   -0.005232  -0.047384   0.044412  -0.015077  -0.000096   0.001759
    26  C   -0.115915   1.149329   0.090754  -0.446898   0.018963  -0.034887
    27  H    0.000963  -0.014528   0.021495   0.003184   0.000001   0.000001
    28  H   -0.003484   0.013431  -0.038341   0.020470  -0.000002   0.000229
    29  C    0.004931  -0.284204   0.002544   0.151190   0.000154  -0.002501
    30  C   -0.003443   0.057497  -0.026482   0.008826  -0.000008   0.001668
    31  H    0.000011   0.000333   0.002994  -0.001957   0.000000  -0.000002
    32  H    0.000012  -0.000036   0.000134   0.000210   0.000000   0.000000
    33  H   -0.000086   0.000167  -0.000123  -0.000680   0.000000   0.000007
    34  O   -0.001247  -0.158989   0.111459   0.017090   0.000104   0.004386
    35  O    0.000294   0.010886  -0.003039  -0.005435   0.000001   0.000844
    36  H   -0.022799   0.026927   0.010974   0.003621   0.000095   0.000000
    37  H   -0.000001   0.052696   0.003362  -0.019985  -0.000001   0.000026
    38  H   -0.000085  -0.008986  -0.007310   0.008631   0.000001  -0.000105
    39  H   -0.000002  -0.000009   0.000069   0.000017   0.000000   0.000000
    40  O   -0.003292  -0.086845   0.078612   0.007840  -0.000009  -0.002388
    41  H   -0.000394  -0.007929   0.006137   0.004053   0.000006   0.000518
    42  O   -0.000005   0.000195   0.000442  -0.000221   0.000000   0.000000
    43  H    0.000000   0.000004   0.000045  -0.000018   0.000000   0.000000
    44  O    0.003638   0.060111   0.056133  -0.097495   0.000000  -0.004975
    45  H   -0.001111   0.049405   0.007857  -0.020452   0.000000  -0.000074
    46  O   -0.051903   0.031195   0.029414   0.005181  -0.001490  -0.000003
    47  H   -0.015325   0.017264   0.010634   0.000650  -0.000106   0.000000
               7          8          9         10         11         12
     1  C   -0.118517   0.015342  -0.008496  -0.018935   0.206349   0.137635
     2  C   -0.459338  -0.010783  -0.006272   0.021701  -0.295786  -0.234224
     3  C    0.046166   0.013368   0.003852  -0.021170  -0.600941  -0.012168
     4  C    0.005747  -0.020135  -0.005901   0.014227   0.133976   0.436598
     5  H    0.002689   0.000002   0.000006  -0.000006   0.019579  -0.000747
     6  H    0.003938  -0.000006   0.000007   0.000002   0.029126  -0.002794
     7  C    5.298418   0.405007   0.425508   0.401966   0.240791  -0.019607
     8  H    0.405007   0.505119  -0.027399  -0.021933  -0.043533   0.004457
     9  H    0.425508  -0.027399   0.518525  -0.028728  -0.048910   0.001237
    10  H    0.401966  -0.021933  -0.028728   0.508608  -0.039701   0.000150
    11  N    0.240791  -0.043533  -0.048910  -0.039701   7.543458  -0.119099
    12  O   -0.019607   0.004457   0.001237   0.000150  -0.119099   8.350957
    13  O   -0.026299   0.000072   0.001231   0.004108  -0.117181  -0.003799
    14  C    0.023148  -0.000987   0.000644  -0.000310   0.050081  -0.009016
    15  H    0.000115   0.000000   0.000000   0.000000   0.000441  -0.000001
    16  C   -0.061827   0.000851   0.000095  -0.000367  -0.027276   0.038473
    17  H    0.000190   0.000000   0.000000   0.000000   0.000345  -0.000038
    18  C   -0.009616   0.002397  -0.001602   0.001362   0.025262   0.011276
    19  H    0.002329  -0.000014   0.000009  -0.000063   0.010619   0.000229
    20  C   -0.010170   0.000063  -0.000175   0.001030  -0.036958   0.002398
    21  H   -0.000356   0.000000   0.000000  -0.000006  -0.001487   0.000012
    22  H    0.000033   0.000000   0.000000   0.000000   0.000016   0.000000
    23  H    0.000213   0.000000   0.000000   0.000000   0.000301  -0.000002
    24  C    0.034318   0.003625  -0.002144   0.002338  -0.001207   0.210206
    25  H    0.001176  -0.000044   0.000007  -0.000013   0.010440   0.002395
    26  C    0.033566  -0.004666   0.002234  -0.002346   0.058247  -0.253659
    27  H    0.000284   0.000000   0.000000   0.000000   0.000045  -0.000067
    28  H   -0.000391  -0.000006   0.000000   0.000000  -0.000973  -0.000513
    29  C    0.001965   0.000005  -0.000007   0.000003  -0.005736  -0.000239
    30  C    0.001150  -0.000012   0.000005  -0.000003   0.001942  -0.006983
    31  H   -0.000009   0.000000   0.000000   0.000000   0.000000   0.000085
    32  H    0.000001   0.000000   0.000000   0.000000   0.000001  -0.000001
    33  H    0.000016   0.000000   0.000000   0.000000   0.000025  -0.000363
    34  O    0.001122  -0.000002   0.000000   0.000000   0.001315   0.005338
    35  O   -0.000010   0.000000   0.000000   0.000000   0.000183  -0.000262
    36  H    0.000692   0.000000   0.000000  -0.000006   0.000907   0.000003
    37  H   -0.000394  -0.000004   0.000000   0.000000   0.002659   0.027810
    38  H    0.000026   0.000000   0.000000   0.000000  -0.000050  -0.000003
    39  H    0.000000   0.000000   0.000000   0.000000   0.000000  -0.000001
    40  O   -0.000228   0.000000   0.000000   0.000000  -0.000805   0.001323
    41  H    0.000026   0.000000   0.000000   0.000000   0.000102   0.000072
    42  O    0.000000   0.000000   0.000000   0.000000   0.000000  -0.000004
    43  H    0.000000   0.000000   0.000000   0.000000   0.000000   0.000000
    44  O   -0.001332   0.000005   0.000007  -0.000001  -0.004202  -0.015834
    45  H   -0.000165   0.000000   0.000000   0.000000  -0.000112  -0.002943
    46  O   -0.002072   0.000000  -0.000004   0.000012  -0.002255  -0.000023
    47  H    0.000039   0.000000   0.000000   0.000000  -0.000159   0.000000
              13         14         15         16         17         18
     1  C    0.449381  -0.562926   0.011754   0.344749  -0.004186   0.414680
     2  C   -0.200960  -0.554095   0.022432   1.088188  -0.060623  -0.055615
     3  C    0.003091   0.529731  -0.021573  -0.026936   0.054503  -0.144243
     4  C    0.104911   0.580507  -0.005381  -1.449814   0.022733  -0.384437
     5  H   -0.001871   0.025420   0.000215  -0.032557   0.000009   0.035887
     6  H   -0.000874   0.008964  -0.000003  -0.027955   0.000303  -0.008958
     7  C   -0.026299   0.023148   0.000115  -0.061827   0.000190  -0.009616
     8  H    0.000072  -0.000987   0.000000   0.000851   0.000000   0.002397
     9  H    0.001231   0.000644   0.000000   0.000095   0.000000  -0.001602
    10  H    0.004108  -0.000310   0.000000  -0.000367   0.000000   0.001362
    11  N   -0.117181   0.050081   0.000441  -0.027276   0.000345   0.025262
    12  O   -0.003799  -0.009016  -0.000001   0.038473  -0.000038   0.011276
    13  O    8.354161  -0.014530  -0.000035   0.022892  -0.000006   0.002522
    14  C   -0.014530   8.525353   0.339688  -2.864131  -0.028956  -1.760593
    15  H   -0.000035   0.339688   0.548519   0.021158  -0.007813  -0.045695
    16  C    0.022892  -2.864131   0.021158  10.892647   0.338429   1.161310
    17  H   -0.000006  -0.028956  -0.007813   0.338429   0.542461  -0.004032
    18  C    0.002522  -1.760593  -0.045695   1.161310  -0.004032   9.457407
    19  H    0.001292   0.158195   0.004436  -0.089782   0.000007   0.156099
    20  C   -0.005044   0.463460  -0.050520  -0.160743   0.007308  -2.057734
    21  H    0.005311   0.006723   0.000130  -0.011561   0.000003  -0.164689
    22  H    0.000324   0.069073   0.002519  -0.019123  -0.000003  -0.184653
    23  H   -0.000944   0.021995   0.000225  -0.002659   0.000000  -0.184484
    24  C   -0.022050   0.236058   0.005077  -2.400044  -0.000257   0.099322
    25  H    0.000069  -0.061034   0.000015   0.134662   0.004097   0.001850
    26  C   -0.003553   1.225749   0.025997  -0.994159  -0.029416  -0.864222
    27  H    0.000000   0.006871  -0.000002   0.039422   0.000330   0.001443
    28  H    0.000009   0.001454   0.000002  -0.033150   0.000115  -0.007362
    29  C    0.000070  -0.051838  -0.000060  -0.129038  -0.000986   0.009170
    30  C   -0.000019   0.016382  -0.000015  -0.023342   0.001362  -0.007652
    31  H    0.000000   0.000110   0.000000   0.005950   0.000003  -0.000071
    32  H    0.000000   0.000176   0.000000   0.000859   0.000000  -0.000029
    33  H    0.000000   0.000308   0.000000   0.000769  -0.000001   0.000113
    34  O    0.000040   0.002481   0.000536   0.120641   0.009001  -0.011158
    35  O   -0.000001  -0.003586   0.000006   0.006595   0.000634  -0.000861
    36  H    0.034219   0.003896   0.000001  -0.001576   0.000000  -0.019558
    37  H    0.000000   0.000417   0.000000   0.000271   0.000001  -0.000253
    38  H    0.000000  -0.000959   0.000000  -0.002694  -0.000001   0.000128
    39  H    0.000000   0.000018   0.000000  -0.000086   0.000000  -0.000004
    40  O    0.000017   0.011671   0.000002  -0.025133   0.000022  -0.002717
    41  H   -0.000001   0.000583   0.000000  -0.004315  -0.000002  -0.000079
    42  O    0.000000  -0.000001   0.000000   0.000066   0.000000  -0.000008
    43  H    0.000000   0.000000   0.000000   0.000004   0.000000   0.000000
    44  O   -0.000018  -0.001564   0.000001   0.019177   0.000000  -0.000488
    45  H   -0.000002   0.000073   0.000000   0.001003   0.000001  -0.000422
    46  O   -0.016780   0.001147  -0.000002  -0.002807   0.000000  -0.000660
    47  H   -0.001542   0.002284   0.000001  -0.001469   0.000000  -0.005437
              19         20         21         22         23         24
     1  C   -0.004306  -0.225041  -0.008225   0.003061   0.004661  -0.013352
     2  C   -0.058003   0.786839  -0.005041  -0.019531   0.016446  -2.343110
     3  C    0.056930  -0.510802   0.008461   0.017863  -0.012741  -0.100310
     4  C   -0.013178   0.024308   0.000133  -0.000748   0.001276   1.539517
     5  H    0.001482  -0.040672  -0.000124   0.000656  -0.000018  -0.000644
     6  H   -0.000099   0.004092  -0.000002  -0.000001   0.000000   0.070435
     7  C    0.002329  -0.010170  -0.000356   0.000033   0.000213   0.034318
     8  H   -0.000014   0.000063   0.000000   0.000000   0.000000   0.003625
     9  H    0.000009  -0.000175   0.000000   0.000000   0.000000  -0.002144
    10  H   -0.000063   0.001030  -0.000006   0.000000   0.000000   0.002338
    11  N    0.010619  -0.036958  -0.001487   0.000016   0.000301  -0.001207
    12  O    0.000229   0.002398   0.000012   0.000000  -0.000002   0.210206
    13  O    0.001292  -0.005044   0.005311   0.000324  -0.000944  -0.022050
    14  C    0.158195   0.463460   0.006723   0.069073   0.021995   0.236058
    15  H    0.004436  -0.050520   0.000130   0.002519   0.000225   0.005077
    16  C   -0.089782  -0.160743  -0.011561  -0.019123  -0.002659  -2.400044
    17  H    0.000007   0.007308   0.000003  -0.000003   0.000000  -0.000257
    18  C    0.156099  -2.057734  -0.164689  -0.184653  -0.184484   0.099322
    19  H    0.573614  -0.042011  -0.003262   0.004283  -0.001642   0.022309
    20  C   -0.042011   7.194281   0.529324   0.478119   0.514414   0.121336
    21  H   -0.003262   0.529324   0.526715  -0.026873  -0.026168   0.001631
    22  H    0.004283   0.478119  -0.026873   0.529560  -0.024167   0.005938
    23  H   -0.001642   0.514414  -0.026168  -0.024167   0.526455  -0.006667
    24  C    0.022309   0.121336   0.001631   0.005938  -0.006667  19.813387
    25  H    0.003330   0.006862   0.000003   0.000000   0.000000   0.100162
    26  C    0.064206  -0.361574  -0.000436   0.000970  -0.003012 -11.192772
    27  H    0.000000  -0.000612   0.000000   0.000000   0.000000  -0.121729
    28  H    0.000005  -0.000576   0.000000   0.000000   0.000000  -0.202036
    29  C    0.000085  -0.000472   0.000005   0.000009  -0.000002   0.647943
    30  C   -0.000002  -0.000470  -0.000001   0.000000   0.000000  -0.424846
    31  H    0.000000  -0.000006   0.000000   0.000000   0.000000  -0.007468
    32  H    0.000000  -0.000001   0.000000   0.000000   0.000000  -0.015368
    33  H    0.000000   0.000005   0.000000   0.000000   0.000000   0.017414
    34  O    0.000168  -0.003438   0.000002   0.000003  -0.000003  -0.333848
    35  O    0.000000  -0.000113   0.000000   0.000000   0.000000  -0.037697
    36  H    0.000001   0.006547   0.000662   0.000027   0.000022   0.001139
    37  H    0.000000   0.000037   0.000000   0.000000   0.000000  -0.017473
    38  H    0.000000  -0.000004   0.000000   0.000000   0.000000   0.001661
    39  H    0.000000   0.000000   0.000000   0.000000   0.000000  -0.000945
    40  O    0.000002  -0.000203   0.000000   0.000000   0.000000   0.015674
    41  H    0.000000   0.000006   0.000000   0.000000   0.000000   0.003727
    42  O    0.000000   0.000000   0.000000   0.000000   0.000000  -0.003475
    43  H    0.000000   0.000000   0.000000   0.000000   0.000000  -0.000022
    44  O    0.000003   0.000069   0.000000   0.000000   0.000000  -0.094748
    45  H    0.000000  -0.000012   0.000000   0.000000   0.000000  -0.025046
    46  O    0.000013   0.004670   0.000361  -0.000528  -0.000044   0.000303
    47  H    0.000002   0.000389   0.000021  -0.000024   0.000000   0.000671
              25         26         27         28         29         30
     1  C   -0.005232  -0.115915   0.000963  -0.003484   0.004931  -0.003443
     2  C   -0.047384   1.149329  -0.014528   0.013431  -0.284204   0.057497
     3  C    0.044412   0.090754   0.021495  -0.038341   0.002544  -0.026482
     4  C   -0.015077  -0.446898   0.003184   0.020470   0.151190   0.008826
     5  H   -0.000096   0.018963   0.000001  -0.000002   0.000154  -0.000008
     6  H    0.001759  -0.034887   0.000001   0.000229  -0.002501   0.001668
     7  C    0.001176   0.033566   0.000284  -0.000391   0.001965   0.001150
     8  H   -0.000044  -0.004666   0.000000  -0.000006   0.000005  -0.000012
     9  H    0.000007   0.002234   0.000000   0.000000  -0.000007   0.000005
    10  H   -0.000013  -0.002346   0.000000   0.000000   0.000003  -0.000003
    11  N    0.010440   0.058247   0.000045  -0.000973  -0.005736   0.001942
    12  O    0.002395  -0.253659  -0.000067  -0.000513  -0.000239  -0.006983
    13  O    0.000069  -0.003553   0.000000   0.000009   0.000070  -0.000019
    14  C   -0.061034   1.225749   0.006871   0.001454  -0.051838   0.016382
    15  H    0.000015   0.025997  -0.000002   0.000002  -0.000060  -0.000015
    16  C    0.134662  -0.994159   0.039422  -0.033150  -0.129038  -0.023342
    17  H    0.004097  -0.029416   0.000330   0.000115  -0.000986   0.001362
    18  C    0.001850  -0.864222   0.001443  -0.007362   0.009170  -0.007652
    19  H    0.003330   0.064206   0.000000   0.000005   0.000085  -0.000002
    20  C    0.006862  -0.361574  -0.000612  -0.000576  -0.000472  -0.000470
    21  H    0.000003  -0.000436   0.000000   0.000000   0.000005  -0.000001
    22  H    0.000000   0.000970   0.000000   0.000000   0.000009   0.000000
    23  H    0.000000  -0.003012   0.000000   0.000000  -0.000002   0.000000
    24  C    0.100162 -11.192772  -0.121729  -0.202036   0.647943  -0.424846
    25  H    0.550495   0.088264   0.001097  -0.003004  -0.002971   0.002547
    26  C    0.088264  17.192264   0.407278   0.619663  -0.622475   0.414372
    27  H    0.001097   0.407278   0.539447  -0.038127   0.004213  -0.000648
    28  H   -0.003004   0.619663  -0.038127   0.529567   0.004109  -0.001250
    29  C   -0.002971  -0.622475   0.004213   0.004109   6.100893  -0.559525
    30  C    0.002547   0.414372  -0.000648  -0.001250  -0.559525   5.964518
    31  H   -0.000003   0.020668   0.001146  -0.000890  -0.063521   0.385139
    32  H    0.000000   0.001398   0.000073   0.000052  -0.105716   0.466536
    33  H   -0.000001  -0.000521  -0.001044   0.000863  -0.028687   0.367874
    34  O    0.007787   0.169762  -0.031346  -0.040647   0.114551  -0.151528
    35  O    0.000048   0.055962  -0.001748   0.000806   0.456195  -0.114358
    36  H    0.000000   0.000066   0.000000   0.000000   0.000000   0.000000
    37  H    0.000004   0.008320   0.000016   0.000990  -0.015674   0.006602
    38  H    0.000000  -0.002096   0.000005  -0.000011   0.007914   0.007791
    39  H    0.000000  -0.000090   0.000000   0.000000   0.042905  -0.027424
    40  O   -0.000019   0.012499  -0.000032   0.000039  -0.022091  -0.004764
    41  H    0.000000   0.000049   0.000000   0.000000   0.002696   0.000280
    42  O    0.000000   0.003309  -0.000003  -0.000001  -0.029679   0.028965
    43  H    0.000000   0.000081   0.000000   0.000000   0.019369  -0.012641
    44  O    0.000078   0.068085  -0.000057  -0.003889   0.018327  -0.029842
    45  H    0.000001   0.021593  -0.000005   0.000073  -0.027357   0.010901
    46  O    0.000000   0.000286   0.000000   0.000000  -0.000005   0.000000
    47  H    0.000000   0.000077   0.000000   0.000000  -0.000001   0.000000
              31         32         33         34         35         36
     1  C    0.000011   0.000012  -0.000086  -0.001247   0.000294  -0.022799
     2  C    0.000333  -0.000036   0.000167  -0.158989   0.010886   0.026927
     3  C    0.002994   0.000134  -0.000123   0.111459  -0.003039   0.010974
     4  C   -0.001957   0.000210  -0.000680   0.017090  -0.005435   0.003621
     5  H    0.000000   0.000000   0.000000   0.000104   0.000001   0.000095
     6  H   -0.000002   0.000000   0.000007   0.004386   0.000844   0.000000
     7  C   -0.000009   0.000001   0.000016   0.001122  -0.000010   0.000692
     8  H    0.000000   0.000000   0.000000  -0.000002   0.000000   0.000000
     9  H    0.000000   0.000000   0.000000   0.000000   0.000000   0.000000
    10  H    0.000000   0.000000   0.000000   0.000000   0.000000  -0.000006
    11  N    0.000000   0.000001   0.000025   0.001315   0.000183   0.000907
    12  O    0.000085  -0.000001  -0.000363   0.005338  -0.000262   0.000003
    13  O    0.000000   0.000000   0.000000   0.000040  -0.000001   0.034219
    14  C    0.000110   0.000176   0.000308   0.002481  -0.003586   0.003896
    15  H    0.000000   0.000000   0.000000   0.000536   0.000006   0.000001
    16  C    0.005950   0.000859   0.000769   0.120641   0.006595  -0.001576
    17  H    0.000003   0.000000  -0.000001   0.009001   0.000634   0.000000
    18  C   -0.000071  -0.000029   0.000113  -0.011158  -0.000861  -0.019558
    19  H    0.000000   0.000000   0.000000   0.000168   0.000000   0.000001
    20  C   -0.000006  -0.000001   0.000005  -0.003438  -0.000113   0.006547
    21  H    0.000000   0.000000   0.000000   0.000002   0.000000   0.000662
    22  H    0.000000   0.000000   0.000000   0.000003   0.000000   0.000027
    23  H    0.000000   0.000000   0.000000  -0.000003   0.000000   0.000022
    24  C   -0.007468  -0.015368   0.017414  -0.333848  -0.037697   0.001139
    25  H   -0.000003   0.000000  -0.000001   0.007787   0.000048   0.000000
    26  C    0.020668   0.001398  -0.000521   0.169762   0.055962   0.000066
    27  H    0.001146   0.000073  -0.001044  -0.031346  -0.001748   0.000000
    28  H   -0.000890   0.000052   0.000863  -0.040647   0.000806   0.000000
    29  C   -0.063521  -0.105716  -0.028687   0.114551   0.456195   0.000000
    30  C    0.385139   0.466536   0.367874  -0.151528  -0.114358   0.000000
    31  H    0.497953  -0.021378  -0.021740   0.002541   0.006826   0.000000
    32  H   -0.021378   0.490625  -0.018966   0.013245  -0.003862   0.000000
    33  H   -0.021740  -0.018966   0.471780  -0.003291   0.000425   0.000000
    34  O    0.002541   0.013245  -0.003291   8.584349  -0.124481   0.000000
    35  O    0.006826  -0.003862   0.000425  -0.124481   8.276607   0.000000
    36  H    0.000000   0.000000   0.000000   0.000000   0.000000   0.322752
    37  H    0.000000   0.000004   0.000020  -0.004466   0.000797   0.000000
    38  H   -0.000016   0.000005  -0.000043   0.001679   0.015293   0.000000
    39  H   -0.000005   0.000489   0.000072  -0.000556   0.023184   0.000000
    40  O    0.000038   0.000063   0.000149   0.012556  -0.023035   0.000000
    41  H    0.000000   0.000000  -0.000001  -0.001419   0.000115   0.000000
    42  O   -0.000044   0.002364  -0.000090  -0.001891  -0.009625   0.000000
    43  H    0.000002  -0.000137  -0.000005  -0.000226  -0.003151   0.000000
    44  O    0.000298   0.001204  -0.000575   0.025049  -0.002857   0.000000
    45  H    0.000000  -0.000007   0.000035  -0.006647   0.005157   0.000000
    46  O    0.000000   0.000000   0.000000   0.000000   0.000000   0.218235
    47  H    0.000000   0.000000   0.000000   0.000000   0.000000  -0.012672
              37         38         39         40         41         42
     1  C   -0.000001  -0.000085  -0.000002  -0.003292  -0.000394  -0.000005
     2  C    0.052696  -0.008986  -0.000009  -0.086845  -0.007929   0.000195
     3  C    0.003362  -0.007310   0.000069   0.078612   0.006137   0.000442
     4  C   -0.019985   0.008631   0.000017   0.007840   0.004053  -0.000221
     5  H   -0.000001   0.000001   0.000000  -0.000009   0.000006   0.000000
     6  H    0.000026  -0.000105   0.000000  -0.002388   0.000518   0.000000
     7  C   -0.000394   0.000026   0.000000  -0.000228   0.000026   0.000000
     8  H   -0.000004   0.000000   0.000000   0.000000   0.000000   0.000000
     9  H    0.000000   0.000000   0.000000   0.000000   0.000000   0.000000
    10  H    0.000000   0.000000   0.000000   0.000000   0.000000   0.000000
    11  N    0.002659  -0.000050   0.000000  -0.000805   0.000102   0.000000
    12  O    0.027810  -0.000003  -0.000001   0.001323   0.000072  -0.000004
    13  O    0.000000   0.000000   0.000000   0.000017  -0.000001   0.000000
    14  C    0.000417  -0.000959   0.000018   0.011671   0.000583  -0.000001
    15  H    0.000000   0.000000   0.000000   0.000002   0.000000   0.000000
    16  C    0.000271  -0.002694  -0.000086  -0.025133  -0.004315   0.000066
    17  H    0.000001  -0.000001   0.000000   0.000022  -0.000002   0.000000
    18  C   -0.000253   0.000128  -0.000004  -0.002717  -0.000079  -0.000008
    19  H    0.000000   0.000000   0.000000   0.000002   0.000000   0.000000
    20  C    0.000037  -0.000004   0.000000  -0.000203   0.000006   0.000000
    21  H    0.000000   0.000000   0.000000   0.000000   0.000000   0.000000
    22  H    0.000000   0.000000   0.000000   0.000000   0.000000   0.000000
    23  H    0.000000   0.000000   0.000000   0.000000   0.000000   0.000000
    24  C   -0.017473   0.001661  -0.000945   0.015674   0.003727  -0.003475
    25  H    0.000004   0.000000   0.000000  -0.000019   0.000000   0.000000
    26  C    0.008320  -0.002096  -0.000090   0.012499   0.000049   0.003309
    27  H    0.000016   0.000005   0.000000  -0.000032   0.000000  -0.000003
    28  H    0.000990  -0.000011   0.000000   0.000039   0.000000  -0.000001
    29  C   -0.015674   0.007914   0.042905  -0.022091   0.002696  -0.029679
    30  C    0.006602   0.007791  -0.027424  -0.004764   0.000280   0.028965
    31  H    0.000000  -0.000016  -0.000005   0.000038   0.000000  -0.000044
    32  H    0.000004   0.000005   0.000489   0.000063   0.000000   0.002364
    33  H    0.000020  -0.000043   0.000072   0.000149  -0.000001  -0.000090
    34  O   -0.004466   0.001679  -0.000556   0.012556  -0.001419  -0.001891
    35  O    0.000797   0.015293   0.023184  -0.023035   0.000115  -0.009625
    36  H    0.000000   0.000000   0.000000   0.000000   0.000000   0.000000
    37  H    0.320705   0.000070   0.000000  -0.000580  -0.000060   0.000009
    38  H    0.000070   0.313364  -0.000053   0.264509  -0.017885   0.000036
    39  H    0.000000  -0.000053   0.320745  -0.000510   0.000012   0.223535
    40  O   -0.000580   0.264509  -0.000510   8.298694   0.277964  -0.000815
    41  H   -0.000060  -0.017885   0.000012   0.277964   0.340140   0.000004
    42  O    0.000009   0.000036   0.223535  -0.000815   0.000004   8.323601
    43  H    0.000000  -0.000041  -0.013053  -0.000081   0.000000   0.270960
    44  O    0.231035   0.002084  -0.000912  -0.041064   0.002227  -0.001099
    45  H   -0.016295  -0.002562  -0.000013   0.013976  -0.001337   0.000117
    46  O    0.000000   0.000000   0.000000  -0.000002   0.000000   0.000000
    47  H    0.000000   0.000000   0.000000   0.000000   0.000000   0.000000
              43         44         45         46         47
     1  C    0.000000   0.003638  -0.001111  -0.051903  -0.015325
     2  C    0.000004   0.060111   0.049405   0.031195   0.017264
     3  C    0.000045   0.056133   0.007857   0.029414   0.010634
     4  C   -0.000018  -0.097495  -0.020452   0.005181   0.000650
     5  H    0.000000   0.000000   0.000000  -0.001490  -0.000106
     6  H    0.000000  -0.004975  -0.000074  -0.000003   0.000000
     7  C    0.000000  -0.001332  -0.000165  -0.002072   0.000039
     8  H    0.000000   0.000005   0.000000   0.000000   0.000000
     9  H    0.000000   0.000007   0.000000  -0.000004   0.000000
    10  H    0.000000  -0.000001   0.000000   0.000012   0.000000
    11  N    0.000000  -0.004202  -0.000112  -0.002255  -0.000159
    12  O    0.000000  -0.015834  -0.002943  -0.000023   0.000000
    13  O    0.000000  -0.000018  -0.000002  -0.016780  -0.001542
    14  C    0.000000  -0.001564   0.000073   0.001147   0.002284
    15  H    0.000000   0.000001   0.000000  -0.000002   0.000001
    16  C    0.000004   0.019177   0.001003  -0.002807  -0.001469
    17  H    0.000000   0.000000   0.000001   0.000000   0.000000
    18  C    0.000000  -0.000488  -0.000422  -0.000660  -0.005437
    19  H    0.000000   0.000003   0.000000   0.000013   0.000002
    20  C    0.000000   0.000069  -0.000012   0.004670   0.000389
    21  H    0.000000   0.000000   0.000000   0.000361   0.000021
    22  H    0.000000   0.000000   0.000000  -0.000528  -0.000024
    23  H    0.000000   0.000000   0.000000  -0.000044   0.000000
    24  C   -0.000022  -0.094748  -0.025046   0.000303   0.000671
    25  H    0.000000   0.000078   0.000001   0.000000   0.000000
    26  C    0.000081   0.068085   0.021593   0.000286   0.000077
    27  H    0.000000  -0.000057  -0.000005   0.000000   0.000000
    28  H    0.000000  -0.003889   0.000073   0.000000   0.000000
    29  C    0.019369   0.018327  -0.027357  -0.000005  -0.000001
    30  C   -0.012641  -0.029842   0.010901   0.000000   0.000000
    31  H    0.000002   0.000298   0.000000   0.000000   0.000000
    32  H   -0.000137   0.001204  -0.000007   0.000000   0.000000
    33  H   -0.000005  -0.000575   0.000035   0.000000   0.000000
    34  O   -0.000226   0.025049  -0.006647   0.000000   0.000000
    35  O   -0.003151  -0.002857   0.005157   0.000000   0.000000
    36  H    0.000000   0.000000   0.000000   0.218235  -0.012672
    37  H    0.000000   0.231035  -0.016295   0.000000   0.000000
    38  H   -0.000041   0.002084  -0.002562   0.000000   0.000000
    39  H   -0.013053  -0.000912  -0.000013   0.000000   0.000000
    40  O   -0.000081  -0.041064   0.013976  -0.000002   0.000000
    41  H    0.000000   0.002227  -0.001337   0.000000   0.000000
    42  O    0.270960  -0.001099   0.000117   0.000000   0.000000
    43  H    0.368075  -0.000351   0.000006   0.000000   0.000000
    44  O   -0.000351   8.352390   0.255944   0.000000   0.000000
    45  H    0.000006   0.255944   0.324574   0.000000   0.000000
    46  O    0.000000   0.000000   0.000000   8.298804   0.263231
    47  H    0.000000   0.000000   0.000000   0.263231   0.369535
 Mulliken charges:
               1
     1  C    0.196828
     2  C   -0.301803
     3  C   -0.307168
     4  C    0.215538
     5  H    0.184643
     6  H    0.198432
     7  C   -0.220310
     8  H    0.179211
     9  H    0.176272
    10  H    0.178081
    11  N    0.010158
[...]
 01,-0.00008806,0.00023359,-0.39167468,-0.01510012,0.14628254,-0.000284
 22,0.00060823,-0.00101736,0.00032831,0.00000286,-0.00012825,0.00374799
 ,-0.00001574,0.00075957,-0.00017331,-0.00078149,0.00064857,-0.00020286
 ,0.00001230,0.00007947,0.00004912,-0.00000857,-0.00002145,0.46098266,-
 0.00036107,-0.00052998,0.00018723,0.00032947,0.00040109,-0.00030277,-0
 .00050044,-0.00028634,0.00057586,-0.00099995,-0.00085722,0.00070707,0.
 00003831,-0.00000192,-0.00000117,-0.00042460,0.00033353,-0.00046564,0.
 00000051,-0.00007592,0.00004735,0.00000461,0.00000972,0.00000176,0.000
 01670,0.00002927,-0.00000432,0.00001837,0.00001883,-0.00000661,0.00002
 169,0.00027236,-0.00038849,-0.00035416,0.00337915,-0.00019993,0.000388
 96,0.00017758,0.00002119,0.00001297,-0.00003127,-0.00006069,0.00004547
 ,-0.00003330,0.00002855,0.00033777,0.00001211,0.00011331,-0.00003096,0
 .00007312,-0.00002006,-0.00005846,0.00003241,0.00009500,-0.00000415,-0
 .00002132,0.00000153,0.00003527,-0.00001434,-0.00008995,0.00000769,0.0
 0001189,0.00002766,0.00000537,-0.00000680,0.00001775,0.00005295,-0.000
 02485,0.00001481,-0.00051939,0.00004496,-0.00024966,0.00019227,-0.0000
 5602,0.00002228,-0.00168809,0.00058055,0.00213002,0.00014782,-0.000258
 52,-0.00023424,-0.00029246,-0.00022339,0.00086253,0.00436212,0.0041706
 9,0.00058704,-0.00005679,-0.00033916,-0.00092809,-0.00040397,-0.000278
 93,-0.00010210,-0.00021754,-0.00014736,-0.00013035,0.00018048,-0.00092
 645,0.00081286,-0.00066093,-0.00339803,-0.00268026,-0.00163088,-0.0017
 4251,0.00023325,-0.00005544,0.00001312,-0.00006746,-0.04149776,-0.0214
 1373,0.03800586,0.00113789,0.00134919,-0.00104770,0.00090811,-0.000158
 92,-0.00032557,0.00116384,-0.00530783,0.00982928,-0.00150418,-0.000547
 64,0.00027339,-0.00048770,0.00014193,0.00018474,0.00002532,-0.00002929
 ,-0.00001555,-0.01653099,0.16376590,-0.00084493,0.00088857,-0.00079788
 ,-0.00016231,0.00004911,0.00011988,0.00016606,-0.00061114,0.00015152,-
 0.00377494,0.00406284,-0.00292017,0.00007821,-0.00004193,0.00000848,0.
 00013794,-0.00009573,-0.00029366,-0.00014277,-0.00039122,0.00022078,-0
 .00006817,0.00000351,0.00003143,0.00002653,0.00009963,-0.00002068,0.00
 006072,0.00003999,-0.00000371,0.00259260,-0.00107906,0.00080819,0.0100
 5825,-0.00288551,-0.00011628,0.00097218,-0.00017548,0.00035784,0.00028
 504,-0.00003150,-0.00005719,0.00003904,-0.00002254,0.00005504,0.000152
 60,0.00012512,-0.00006075,-0.00003033,0.00001770,0.00001708,-0.0002228
 0,-0.00017939,0.00004373,-0.00000860,0.00003419,0.00005491,0.00007736,
 -0.00001466,-0.00009646,-0.00001159,0.00000216,0.00003431,0.00000743,-
 0.00001649,0.00001914,0.00005475,-0.00003715,0.00001991,-0.00042647,-0
 .00038867,0.00006273,0.00008925,0.00006966,0.00009516,-0.00006098,0.00
 096528,-0.00006943,-0.00003996,-0.00039834,0.00003881,-0.00051854,0.00
 021177,0.00112884,0.00238043,0.00198758,-0.00335752,-0.00044366,-0.000
 33795,-0.00135287,-0.00031130,-0.00060579,0.00004223,-0.00024666,-0.00
 031815,-0.00002612,0.00066142,-0.00067949,0.00149582,-0.00087307,-0.00
 084270,-0.00023519,-0.00031245,0.00020588,0.00236664,-0.00011706,0.000
 06415,-0.00016753,0.18854322,0.02979940,-0.11440308,-0.00135759,-0.000
 69618,-0.00148325,0.00015258,-0.00006691,-0.00012400,-0.00177628,0.009
 15974,-0.00808359,0.00195601,0.00118668,-0.00050222,-0.00010550,0.0000
 4584,0.00009820,-0.00001748,-0.00001340,-0.00000836,-0.11598967,-0.245
 86482,0.45034065,-0.00009926,-0.00018809,0.00008429,0.00007996,0.00016
 534,-0.00025577,-0.00028679,-0.00014210,0.00056806,-0.00042042,-0.0004
 6842,0.00040268,0.00000802,-0.00001267,-0.00000293,-0.00047610,0.00061
 470,-0.00005714,0.00001574,-0.00002283,0.00001513,-0.00000046,0.000004
 39,-0.00000123,0.00000625,0.00001036,-0.00000354,0.00000658,0.00000882
 ,-0.00000402,-0.00006964,0.00023181,-0.00017738,-0.00117673,0.00080219
 ,-0.00017619,0.00010869,0.00007866,-0.00000510,0.00006698,-0.00001295,
 -0.00002681,0.00000250,-0.00000074,0.00001142,-0.00001964,0.00005011,-
 0.00005223,0.00000031,-0.00000658,0.00000960,-0.00005334,-0.00005121,0
 .00000208,0.00000340,0.00000275,0.00000902,0.00001150,-0.00000532,-0.0
 0002978,-0.00000101,0.00000227,0.00000790,0.00000073,-0.00000090,0.000
 00503,0.00001387,-0.00000707,0.00000323,0.00004181,-0.00001786,0.00005
 076,-0.00000825,-0.00000069,-0.00001041,0.00006623,0.00008084,-0.00003
 323,-0.00003825,-0.00001854,0.00001658,-0.00002649,-0.00005002,0.00007
 650,0.00080946,-0.00073460,-0.00155613,-0.00011126,-0.00000230,-0.0001
 0064,0.00002953,-0.00006300,0.00003215,-0.00000750,0.00000032,0.000010
 01,0.00000599,-0.00000533,0.00006688,-0.00075138,0.00006194,0.00005215
 ,-0.00018191,0.00038017,0.00070629,-0.00001417,0.00000627,-0.00001959,
 0.00615724,-0.02334501,0.03574637,0.00062797,-0.00168445,0.00189786,-0
 .00010440,0.00007842,0.00002463,-0.00680978,-0.00204209,0.00020351,0.0
 0068624,0.00184242,-0.00170178,0.00009388,-0.00001289,-0.00000792,-0.0
 0000725,0.00000189,-0.00000032,-0.06050517,0.05881726,-0.08067916,0.06
 231758,0.00002250,0.00033025,-0.00019738,-0.00016522,-0.00021461,0.000
 19994,0.00022537,0.00003903,-0.00025435,-0.00082380,0.00101026,-0.0004
 9395,-0.00000549,0.00000179,0.00000401,0.00096296,-0.00023487,-0.00016
 701,-0.00001392,-0.00001187,-0.00000174,-0.00001041,-0.00000694,0.0000
 0782,-0.00000617,-0.00000282,0.00000111,-0.00000011,-0.00000541,0.0000
 0468,0.00033161,-0.00027807,0.00026152,0.00150268,-0.00061057,-0.00028
 095,-0.00004614,-0.00010000,0.00003425,-0.00000781,-0.00000343,0.00003
 090,-0.00000989,0.00000719,-0.00000677,-0.00004200,-0.00001027,-0.0000
 0634,0.00000356,-0.00002300,0.00000671,0.00001022,-0.00001355,-0.00002
 956,-0.00000116,0.00001136,0.00000418,-0.00000695,0.00000356,0.0000269
 9,-0.00000412,-0.00000393,-0.00000772,-0.00000159,0.00000209,-0.000004
 85,-0.00001597,0.00000704,-0.00000418,0.00003726,-0.00014662,0.0001100
 4,-0.00007386,0.00003959,0.00000519,0.00080606,0.00007688,-0.00108520,
 -0.00010310,-0.00004614,0.00019213,-0.00016172,0.00013167,0.00018575,-
 0.00110152,-0.00082489,-0.00318758,-0.00023689,-0.00032067,-0.00016843
 ,0.00002127,-0.00013053,0.00004832,0.00000878,-0.00005728,0.00005137,0
 .00016279,-0.00006099,0.00027594,-0.00014980,0.00064020,0.00124688,0.0
 0098904,0.00082037,0.00176569,0.00000786,-0.00000057,0.00000901,0.0026
 0300,-0.00222675,0.00241166,-0.00303497,-0.00479414,0.00252568,-0.0004
 8594,0.00012483,0.00013052,-0.00229868,0.00102399,-0.00691861,0.002183
 90,0.00077685,-0.00024231,0.00026999,-0.00008492,-0.00006707,-0.000004
 77,0.00001564,0.00000273,0.03301112,-0.13810130,0.20681619,-0.03434512
 ,0.14325245,0.00045007,-0.00017254,0.00021943,-0.00001413,-0.00018063,
 0.00014102,0.00019263,0.00028853,-0.00046336,0.00231536,-0.00096695,0.
 00066073,-0.00004670,0.00002471,0.00000008,-0.00002683,-0.00027316,0.0
 0072552,0.00003750,0.00017158,-0.00009909,0.00002506,-0.00000531,-0.00
 000832,-0.00001642,-0.00004886,0.00001351,-0.00003031,-0.00002274,0.00
 000369,-0.00098428,0.00017227,-0.00022368,-0.00247009,0.00039630,0.000
 79204,-0.00050172,0.00000581,-0.00013014,-0.00016969,0.00001502,0.0000
 5138,-0.00002211,0.00001299,-0.00003258,-0.00006230,-0.00008436,0.0000
 5097,0.00001376,-0.00001584,-0.00001083,0.00012898,0.00010062,-0.00003
 589,0.00000229,-0.00001147,-0.00002687,-0.00004234,0.00000964,0.000065
 15,0.00000411,-0.00000286,-0.00002204,-0.00000513,0.00000877,-0.000012
 53,-0.00003600,0.00002244,-0.00001212,0.00018201,0.00005654,0.00000709
 ,-0.00007777,-0.00000783,-0.00004240,0.00050439,-0.00046149,-0.0007842
 9,-0.00002411,0.00016656,0.00007837,0.00009438,-0.00002160,-0.00048044
 ,-0.00309329,-0.00243854,0.00016668,0.00006780,0.00023767,0.00006459,0
 .00010329,0.00008021,0.00004782,0.00008837,0.00002957,0.00005825,-0.00
 023680,0.00012330,-0.00044436,0.00099723,0.00095803,0.00079400,0.00031
 724,0.00033495,-0.00172431,0.00006182,-0.00003053,0.00008655,-0.006295
 84,0.01106269,-0.01603099,0.00195677,0.00074177,0.00296542,-0.00023029
 ,0.00006063,0.00010714,0.00238018,-0.00358651,-0.00033711,-0.00234982,
 -0.00187613,-0.00002292,0.00013124,-0.00003950,-0.00006984,-0.00000352
 ,0.00000616,0.00000982,-0.03818004,0.19837511,-0.32351649,0.04489104,-
 0.20323384,0.33746387,0.00655168,0.00067882,0.00037552,-0.00056077,-0.
 00066613,0.00026084,0.00023592,0.00005652,0.00016434,0.00121108,0.0001
 0114,-0.00004513,0.00051605,0.00012917,0.00001679,-0.00004675,-0.00000
 817,-0.00003442,-0.00021225,-0.00030795,0.00015644,-0.00002073,0.00004
 978,-0.00001422,0.00004673,0.00005987,-0.00001110,0.00003671,-0.000022
 40,0.00005875,-0.00219677,0.00069462,-0.00047909,-0.00077611,0.0003643
 3,-0.00019617,-0.00570767,0.00330532,-0.00731354,0.00020774,0.00006039
 ,-0.00006007,0.00000087,-0.00001198,0.00003536,-0.00021927,0.00012967,
 -0.00020584,-0.00000992,0.00001124,0.00004023,-0.00013899,-0.00002292,
 0.00016832,0.00000159,0.00005098,0.00005190,0.00013257,-0.00003092,-0.
 00012013,-0.00022772,0.00007522,0.00010033,0.00000748,0.00004878,0.000
 02039,-0.00002737,-0.00006520,-0.00002664,-0.00000098,-0.00035469,-0.0
 0002715,0.00000881,0.00005204,0.00005831,0.00006193,0.00000790,-0.0000
 7589,-0.00005169,-0.00000423,0.00001225,0.00000339,-0.00000032,0.00002
 697,0.00016149,-0.00000990,-0.00004610,-0.00001686,0.00000685,-0.00000
 120,0.00000329,0.00000079,0.00000225,-0.00000504,0.00000087,-0.0000008
 8,0.00000516,-0.00000503,0.00000121,-0.00015962,-0.00000026,0.00001990
 ,-0.00006354,-0.00001084,0.00006112,-0.14166507,0.04872702,-0.16978017
 ,0.00013062,-0.00003392,-0.00006118,0.00000601,0.00000280,-0.00001592,
 0.00001625,-0.00000337,-0.00000589,-0.00001769,-0.00000275,0.00003301,
 0.00000821,0.00000160,-0.00001356,-0.00000996,0.00000257,0.00000395,0.
 00000124,-0.00000064,-0.00000060,-0.00008667,0.00003077,0.00005210,0.0
 0000858,-0.00000284,-0.00002573,0.25849486,-0.00539054,-0.00113686,0.0
 0060224,0.00070072,0.00035143,0.00014321,-0.00024566,0.00006388,-0.000
 29188,-0.00118412,-0.00031145,0.00007299,0.00014932,0.00002478,-0.0000
 0436,0.00003959,0.00003300,0.00003954,0.00017660,0.00029075,-0.0001489
 7,0.00001173,-0.00004432,0.00001361,-0.00004211,-0.00005316,0.00001169
 ,-0.00003822,0.00001994,-0.00004080,0.00224596,-0.00061939,0.00028633,
 0.00070394,-0.00025013,0.00015620,0.00808739,0.00014343,0.00685960,-0.
 00042119,0.00000549,0.00003312,0.00001300,0.00000415,-0.00004003,0.000
 27326,-0.00021222,0.00026149,-0.00000403,-0.00001584,-0.00004587,0.000
 47445,-0.00013340,-0.00016929,-0.00003723,-0.00003248,-0.00006159,0.00
 000864,0.00036689,-0.00009617,-0.00008566,-0.00043778,0.00041805,0.000
 06279,0.00017439,0.00001621,-0.00017109,-0.00008533,-0.00014779,0.0000
 1003,0.00043028,0.00002980,-0.00001280,-0.00005933,-0.00006424,-0.0000
 2945,-0.00000584,0.00006863,0.00003442,0.00000535,-0.00000978,-0.00000
 201,0.00000758,-0.00002459,-0.00011712,0.00000148,0.00003825,0.0000105
 8,-0.00000273,-0.00000059,-0.00000240,0.00000024,-0.00000106,0.0000034
 2,-0.00000085,0.00000071,-0.00000380,0.00000308,-0.00000195,0.00011024
 ,-0.00000394,-0.00001699,0.00004602,0.00001017,-0.00004600,0.08253153,
 -0.09506027,0.14518289,-0.00010724,0.00002033,0.00005678,-0.00000378,-
 0.00000365,0.00001143,-0.00001112,0.00000237,0.00000413,0.00001049,0.0
 0000539,-0.00002588,-0.00000316,-0.00000237,0.00001187,0.00000624,-0.0
 0000209,-0.00000293,0.,0.00000080,0.00000051,0.00006073,-0.00000844,-0
 .00004785,-0.00000182,-0.00000005,0.00002314,0.12487692,0.50341027,0.0
 0962833,0.00210787,-0.00035550,-0.00101992,-0.00075042,0.00006549,0.00
 025977,0.00002437,0.00037168,0.00208454,0.00020933,-0.00016575,0.00003
 777,-0.00000292,-0.00001128,-0.00008240,-0.00000936,-0.00007259,-0.000
 34066,-0.00051792,0.00026789,-0.00002358,0.00008466,-0.00002669,0.0000
 8092,0.00010011,-0.00001020,0.00005626,-0.00002307,0.00007991,-0.00389
 051,0.00082592,-0.00102001,-0.00131103,0.00059689,-0.00029303,-0.01341
 781,0.00450195,-0.00895463,0.00015772,0.00017959,-0.00012095,0.0000185
 5,-0.00002533,0.00004935,-0.00034014,0.00019718,-0.00029648,-0.0000369
 3,0.00002164,0.00006039,-0.00003916,-0.00042900,0.00018796,-0.00003360
 ,0.00012441,0.00007678,0.00030711,0.00066653,-0.00043076,-0.00028499,-
 0.00007332,0.00082529,0.00003578,0.00009206,0.00005307,-0.00016647,-0.
 00026733,-0.00019549,-0.00003151,-0.00051314,-0.00000371,0.00001728,0.
 00008220,0.00009495,0.00012973,-0.00001795,-0.00017171,-0.00009808,-0.
 00000523,0.00002168,-0.00000067,-0.00000085,0.00004808,0.00029148,-0.0
 0001639,-0.00009342,-0.00002861,0.00000689,0.00000022,0.00000724,0.000
 00100,0.00000386,-0.00000828,0.00000227,-0.00000166,0.00000760,-0.0000
 0785,0.00000168,-0.00028912,0.00001499,0.00004208,-0.00011570,-0.00001
 943,0.00011704,-0.19299222,0.11063409,-0.27964928,0.00021990,-0.000054
 09,-0.00010850,0.00000606,0.00000406,-0.00003069,0.00002753,-0.0000070
 3,-0.00001054,-0.00002347,-0.00000497,0.00006256,0.00000636,0.00000173
 ,-0.00002688,-0.00001549,0.00000582,0.00000769,-0.00000002,-0.00000176
 ,-0.00000133,-0.00013428,0.00004078,0.00009803,0.00001024,-0.00000312,
 -0.00005109,0.16805818,-0.22457736,0.33123654,0.00029406,0.00023812,-0
 .00026471,0.00000181,0.00010375,-0.00021899,-0.00003806,-0.00008975,0.
 00010700,0.00008297,0.00009580,-0.00003001,-0.00152359,-0.00001656,-0.
 00050544,0.00000021,-0.00000248,0.00000115,-0.00000108,-0.00000967,0.0
 0000606,-0.00000057,-0.00000153,0.00000104,0.00000198,-0.00000253,0.00
 000179,0.00000049,-0.00000229,-0.00000054,-0.00020659,0.00001147,0.000
 04500,-0.00002127,-0.00003490,0.00000720,-0.00096001,-0.00015468,-0.00
 080072,0.00002818,-0.00000778,0.00000672,-0.00000161,0.00000159,0.0000
 0102,-0.00000935,0.00002128,0.00000184,0.00000159,0.00000090,-0.000000
 12,-0.00006752,-0.00002844,0.00000379,0.00001320,0.00000115,0.00000734
 ,-0.00012439,0.00009886,-0.00016550,0.00004649,-0.00001604,-0.00011059
 ,-0.00004860,-0.00014891,-0.00010734,0.00002786,-0.00000448,0.00004252
 ,-0.00000239,-0.00001270,0.00000293,0.00000179,0.00000248,0.00000147,-
 0.00000816,-0.00000045,-0.00000181,0.00000461,-0.00000074,-0.00000069,
 0.00000084,-0.00000233,-0.00000012,-0.00001369,0.00000248,0.00000197,0
 .00000257,-0.00000194,0.00000085,0.,-0.00000020,-0.00000029,0.00000048
 ,0.,0.00000002,-0.00000059,0.00000065,-0.00000037,0.00001490,0.0000010
 4,-0.00000021,0.00000546,0.00000063,-0.00000428,0.00833628,0.02159686,
 -0.00655837,-0.00000116,-0.00000004,0.00000205,-0.00000117,-0.00000015
 ,0.00000109,-0.00000198,0.00000021,0.00000047,0.00000452,-0.00000040,-
 0.00000270,-0.00000163,-0.00000040,0.00000153,0.00000167,0.00000008,-0
 .00000015,-0.00000056,-0.00000028,-0.00000006,0.00000206,-0.00000202,-
 0.00000141,0.00000023,-0.00000003,-0.00000025,-0.11563682,-0.21273343,
 0.03327631,0.10979655,0.00073678,-0.00012340,0.00029788,-0.00010194,-0
 .00012161,0.00016517,0.00008119,0.00001929,-0.00002198,0.00011965,-0.0
 0002729,0.00000102,0.00022942,0.00002988,-0.00004795,-0.00000862,-0.00
 000522,-0.00000769,-0.00002951,-0.00003833,0.00001111,-0.00000259,0.00
 000813,-0.00000215,0.00000888,0.00000809,-0.00000092,0.00000204,0.0000
 0030,0.00000347,-0.00021873,0.00009986,-0.00011676,-0.00009123,0.00007
 030,-0.00002669,-0.00037570,0.00064274,-0.00050334,0.00004992,0.000025
 35,0.00000864,-0.00000155,-0.00000207,0.00000558,-0.00004730,0.0000218
 7,-0.00005264,-0.00000137,0.00000332,0.00000685,-0.00006703,-0.0000340
 3,0.00006902,0.00002440,0.00000241,0.00000571,0.00013923,0.00028004,-0
 .00007258,-0.00009327,0.00005126,0.00001233,-0.00009766,-0.00031501,-0
 .00014096,0.00000372,-0.00006183,0.00003599,-0.00000842,-0.00006825,0.
 00001230,0.00000248,0.00001039,0.00000855,0.00001524,-0.00000349,-0.00
 002185,-0.00000939,0.00000001,0.00000226,-0.00000032,-0.00000016,0.000
 00551,0.00002904,-0.00000034,-0.00001029,-0.00000193,-0.00000034,0.000
 00049,0.00000085,-0.00000003,0.00000032,-0.00000088,0.00000035,-0.0000
 0022,0.00000044,-0.00000048,0.00000011,-0.00002860,0.00000149,0.000003
 43,-0.00001208,-0.00000240,0.00001108,-0.01339196,-0.01653573,-0.00198
 871,0.00001960,-0.00000763,-0.00000748,0.00000153,0.00000078,-0.000002
 43,0.00000263,-0.00000066,-0.00000101,-0.00000408,0.00000074,0.0000065
 3,0.00000129,0.00000084,-0.00000353,-0.00000126,0.00000081,0.00000078,
 -0.00000015,-0.00000057,-0.00000019,-0.00001083,0.00000343,0.00000708,
 0.00000177,-0.00000087,-0.00000432,-0.17796148,-0.40689357,0.10680147,
 0.19109779,0.42296161,-0.00050007,0.00041023,-0.00041809,-0.00000980,0
 .00009851,-0.00022481,-0.00002562,-0.00009553,0.00008270,-0.00008379,0
 .00015175,-0.00006406,-0.00085177,-0.00002889,-0.00001158,0.00000962,-
 0.00001060,0.00001059,0.00003187,0.00003185,-0.00001475,0.00000191,-0.
 00000918,0.00000330,-0.00000776,-0.00001137,0.00000097,-0.00000270,-0.
 00000368,-0.00000107,0.00005910,-0.00008631,0.00015956,0.00009961,-0.0
 0011836,0.00005505,-0.00058652,-0.00062708,-0.00036020,0.00020127,-0.0
 0009018,0.00002280,-0.00001635,0.00000863,0.00000067,-0.00001309,0.000
 04550,-0.00000975,0.00002087,-0.00000044,0.00000051,-0.00034720,0.0002
 4737,0.00006959,0.00007001,-0.00004360,0.00001406,-0.00025342,-0.00026
 953,-0.00011090,0.00019854,0.00027632,-0.00081613,-0.00020130,-0.00045
 919,-0.00021551,0.00021021,0.00015394,0.00027587,0.00001805,-0.0000314
 6,-0.00002255,0.00000139,0.00000063,-0.00000193,-0.00004758,0.00001424
 ,0.00004414,0.00002667,-0.00000110,-0.00000449,0.00000270,-0.00000412,
 -0.00000688,-0.00006853,0.00000549,0.00002206,0.00000718,-0.00000083,0
 .00000003,-0.00000208,-0.00000038,-0.00000112,0.00000176,-0.00000076,0
 .00000033,-0.00000141,0.00000180,-0.00000012,0.00006930,-0.00000662,-0
 .00001161,0.00002774,0.00000365,-0.00002789,0.01793587,0.03337335,-0.0
 0545117,-0.00002737,0.00001158,0.00001252,-0.00000093,-0.00000012,0.00
 000734,-0.00000661,0.00000203,0.00000262,0.00000571,-0.00000104,-0.000
 01431,-0.00000051,-0.00000090,0.00000695,0.00000376,-0.00000143,-0.000
 00189,0.00000023,0.00000030,0.00000023,0.00001750,-0.00001078,-0.00001
 291,-0.00000213,0.00000177,0.00000858,0.00878214,0.07152355,-0.0416700
 5,-0.02474648,-0.10444899,0.04867328\\0.00002684,0.00004133,-0.0000345
 0,0.00002849,0.00003887,0.00004959,-0.00010406,0.00008148,-0.00001906,
 -0.00004183,-0.00009735,-0.00006860,0.00005338,-0.00002461,-0.00003338
 ,0.00004823,-0.00003149,-0.00000756,-0.00000065,0.00001773,-0.00002080
 ,0.,-0.00001671,0.00001311,-0.00001779,-0.00000484,0.00000669,0.000005
 98,0.00000877,-0.00000397,0.00004752,-0.00000744,0.00004737,-0.0000498
 8,-0.00002209,0.00002291,-0.00002672,0.00004868,0.00002459,0.00001348,
 0.00008489,0.00000058,-0.00004978,-0.00001419,0.00000116,0.00003747,-0
 .00008478,-0.00001234,-0.00001237,-0.00000587,-0.00002229,0.00002489,-
 0.00007108,0.00003207,-0.00002741,-0.00002580,-0.00005489,-0.00001505,
 -0.00002388,-0.00000187,-0.00002824,0.00002493,0.00001436,0.00002105,0
 .00004496,-0.00000336,-0.00000519,0.00000490,-0.00000305,0.00007950,-0
 .00000769,0.00004157,0.00003876,0.00001236,0.00010931,0.00003589,-0.00
 002660,-0.00005744,-0.00002719,0.00003384,-0.00002681,-0.00004545,0.00
 002468,-0.00003422,-0.00005844,0.00000556,-0.00000089,0.00001672,0.000
 01523,-0.00000148,0.00000667,-0.00000400,0.00001714,-0.00001394,-0.000
 02731,-0.00003619,0.00000193,-0.00000063,0.00005412,0.00004409,0.00005
 016,0.00004048,0.00004463,-0.00000840,-0.00001530,-0.00001396,-0.00000
 011,-0.00002516,0.00001161,0.00004406,-0.00001599,-0.00001775,0.000023
 14,0.00003831,-0.00002574,-0.00002323,0.00001283,0.00003551,-0.0000131
 9,-0.00002240,-0.00001451,0.00000490,-0.00001374,0.00000593,0.00000396
 ,-0.00000302,-0.00000737,-0.00001191,0.00000446,-0.00000446,-0.0000438
 3,-0.00001686,-0.00002110,-0.00000911,0.00002660,-0.00000414,-0.000016
 93,0.00000924,0.00000447,0.00000863,-0.00001134\\\@


 HO!  SUCH BUGS AND GOBLINS IN MY LIFE!

                            -- HAMLET, ACT 5, SCENE 2
 Job cpu time:       0 days 18 hours 13 minutes 57.3 seconds.
 File lengths (MBytes):  RWF=   1356 Int=      0 D2E=      0 Chk=     29 Scr=      1
 Normal termination of Gaussian 09 at Wed Sep 16 14:13:35 2020.
