 Entering Gaussian System, Link 0=g09
 Input=b3lyp_PM6_2H2O_diene_pm6_cpcmtoluene_1_water.com
 Output=b3lyp_PM6_2H2O_diene_pm6_cpcmtoluene_1_water.log
 Initial command:
 /apps/applications/gaussian/G09.D01/2/default/g09/l1.exe "/local/713772.1.40core-192G.q/Gau-131885.inp" -scrdir="/local/713772.1.40core-192G.q/"
 Entering Link 1 = /apps/applications/gaussian/G09.D01/2/default/g09/l1.exe PID=    131887.
  
 Copyright (c) 1988,1990,1992,1993,1995,1998,2003,2009,2013,
            Gaussian, Inc.  All Rights Reserved.
  
 This is part of the Gaussian(R) 09 program.  It is based on
 the Gaussian(R) 03 system (copyright 2003, Gaussian, Inc.),
 the Gaussian(R) 98 system (copyright 1998, Gaussian, Inc.),
 the Gaussian(R) 94 system (copyright 1995, Gaussian, Inc.),
 the Gaussian 92(TM) system (copyright 1992, Gaussian, Inc.),
 the Gaussian 90(TM) system (copyright 1990, Gaussian, Inc.),
 the Gaussian 88(TM) system (copyright 1988, Gaussian, Inc.),
 the Gaussian 86(TM) system (copyright 1986, Carnegie Mellon
 University), and the Gaussian 82(TM) system (copyright 1983,
 Carnegie Mellon University). Gaussian is a federally registered
 trademark of Gaussian, Inc.
  
 This software contains proprietary and confidential information,
 including trade secrets, belonging to Gaussian, Inc.
  
 This software is provided under written license and may be
 used, copied, transmitted, or stored only in accord with that
 written license.
  
 The following legend is applicable only to US Government
 contracts under FAR:
  
                    RESTRICTED RIGHTS LEGEND
  
 Use, reproduction and disclosure by the US Government is
 subject to restrictions as set forth in subparagraphs (a)
 and (c) of the Commercial Computer Software - Restricted
 Rights clause in FAR 52.227-19.
  
 Gaussian, Inc.
 340 Quinnipiac St., Bldg. 40, Wallingford CT 06492
  
  
 ---------------------------------------------------------------
 Warning -- This program may not be used in any manner that
 competes with the business of Gaussian, Inc. or will provide
 assistance to any competitor of Gaussian, Inc.  The licensee
 of this program is prohibited from giving any competitor of
 Gaussian, Inc. access to this program.  By using this program,
 the user acknowledges that Gaussian, Inc. is engaged in the
 business of creating and licensing software in the field of
 computational chemistry and represents and warrants to the
 licensee that it is not a competitor of Gaussian, Inc. and that
 it will not use this program in any manner prohibited above.
 ---------------------------------------------------------------
  

 Cite this work as:
 Gaussian 09, Revision D.01,
 M. J. Frisch, G. W. Trucks, H. B. Schlegel, G. E. Scuseria, 
 M. A. Robb, J. R. Cheeseman, G. Scalmani, V. Barone, B. Mennucci, 
 G. A. Petersson, H. Nakatsuji, M. Caricato, X. Li, H. P. Hratchian, 
 A. F. Izmaylov, J. Bloino, G. Zheng, J. L. Sonnenberg, M. Hada, 
 M. Ehara, K. Toyota, R. Fukuda, J. Hasegawa, M. Ishida, T. Nakajima, 
 Y. Honda, O. Kitao, H. Nakai, T. Vreven, J. A. Montgomery, Jr., 
 J. E. Peralta, F. Ogliaro, M. Bearpark, J. J. Heyd, E. Brothers, 
 K. N. Kudin, V. N. Staroverov, T. Keith, R. Kobayashi, J. Normand, 
 K. Raghavachari, A. Rendell, J. C. Burant, S. S. Iyengar, J. Tomasi, 
 M. Cossi, N. Rega, J. M. Millam, M. Klene, J. E. Knox, J. B. Cross, 
 V. Bakken, C. Adamo, J. Jaramillo, R. Gomperts, R. E. Stratmann, 
 O. Yazyev, A. J. Austin, R. Cammi, C. Pomelli, J. W. Ochterski, 
 R. L. Martin, K. Morokuma, V. G. Zakrzewski, G. A. Voth, 
 P. Salvador, J. J. Dannenberg, S. Dapprich, A. D. Daniels, 
 O. Farkas, J. B. Foresman, J. V. Ortiz, J. Cioslowski, 
 and D. J. Fox, Gaussian, Inc., Wallingford CT, 2013.
 
 ******************************************
 Gaussian 09:  ES64L-G09RevD.01 24-Apr-2013
                27-Aug-2020 
 ******************************************
 %nprocshared=4
 Will use up to    4 processors via shared memory.
 %chk=b3lyp_PM6_2H2O_diene_pm6_cpcmtoluene_1_water.chk
 ----------------------------------------------------------------------
 # opt freq b3lyp/6-31+g(d,p) scrf=(cpcm,solvent=water) geom=connectivi
 ty empiricaldispersion=gd3
 ----------------------------------------------------------------------
 1/14=-1,18=20,19=15,26=3,38=1,57=2/1,3;
 2/9=110,12=2,17=6,18=5,40=1/2;
 3/5=1,6=6,7=111,11=2,16=1,25=1,30=1,70=2101,71=1,72=1,74=-5,124=31/1,2,3;
 4//1;
 5/5=2,38=5,53=1/2;
 6/7=2,8=2,9=2,10=2,28=1/1;
 7//1,2,3,16;
 1/14=-1,18=20,19=15,26=3/3(2);
 2/9=110/2;
 99//99;
 2/9=110/2;
 3/5=1,6=6,7=111,11=2,16=1,25=1,30=1,70=2105,71=1,72=1,74=-5,124=31/1,2,3;
 4/5=5,16=3,69=1/1;
 5/5=2,38=5,53=1/2;
 7//1,2,3,16;
 1/14=-1,18=20,19=15,26=3/3(-5);
 2/9=110/2;
 6/7=2,8=2,9=2,10=2,19=2,28=1/1;
 99/9=1/99;
 -------------------
 Title Card Required
 -------------------
 Symbolic Z-matrix:
 Charge =  0 Multiplicity = 1
 C                    -3.23268   0.47952  -0.2545 
 H                    -3.39675   1.44021  -0.75006 
 C                    -1.82887   0.07916  -0.16008 
 H                    -1.11662   0.91488  -0.09631 
 C                    -4.25895  -0.23448   0.2311 
 H                    -4.10458  -1.18925   0.74084 
 C                    -5.67963   0.19721   0.13439 
 H                    -6.13018   0.31161   1.13233 
 H                    -5.81313   1.15392  -0.38863 
 H                    -6.28587  -0.54888  -0.40227 
 C                    -1.39791  -1.18878  -0.16752 
 H                    -2.07992  -2.04078  -0.24473 
 C                     0.0356   -1.59783  -0.07819 
 H                     0.35522  -2.19883  -0.95115 
 H                     0.25785  -2.1333    0.8651 
 C                     2.1753   -0.34961   0.02594 
 C                     2.93472  -1.60779   0.15261 
 H                     2.77879  -2.2945   -0.69806 
 H                     4.02684  -1.42196   0.20403 
 H                     2.67585  -2.1741    1.06548 
 O                     0.81112  -0.34952  -0.08668 
 O                     2.63856   0.78686   0.00703 
 O                     5.47015   0.45918   0.06923 
 H                     4.57591   0.83998   0.12895 
 H                     5.89421   0.90606  -0.66303 
 O                     0.36033   2.68828   0.01665 
 H                     0.66691   3.16089   0.79026 
 H                     0.96882   1.93122  -0.08503 
 
 Add virtual bond connecting atoms H24        and O22        Dist= 3.67D+00.
 Add virtual bond connecting atoms H28        and O22        Dist= 3.83D+00.

 GradGradGradGradGradGradGradGradGradGradGradGradGradGradGradGradGradGrad
 Berny optimization.
 Initialization pass.
                           ----------------------------
                           !    Initial Parameters    !
                           ! (Angstroms and Degrees)  !
 --------------------------                            --------------------------
 ! Name  Definition              Value          Derivative Info.                !
 --------------------------------------------------------------------------------
 ! R1    R(1,2)                  1.0934         estimate D2E/DX2                !
 ! R2    R(1,3)                  1.4628         estimate D2E/DX2                !
 ! R3    R(1,5)                  1.3412         estimate D2E/DX2                !
 ! R4    R(3,4)                  1.0999         estimate D2E/DX2                !
 ! R5    R(3,11)                 1.3392         estimate D2E/DX2                !
 ! R6    R(5,6)                  1.0933         estimate D2E/DX2                !
 ! R7    R(5,7)                  1.488          estimate D2E/DX2                !
 ! R8    R(7,8)                  1.1009         estimate D2E/DX2                !
 ! R9    R(7,9)                  1.0985         estimate D2E/DX2                !
 ! R10   R(7,10)                 1.101          estimate D2E/DX2                !
 ! R11   R(11,12)                1.0941         estimate D2E/DX2                !
 ! R12   R(11,13)                1.4934         estimate D2E/DX2                !
 ! R13   R(13,14)                1.107          estimate D2E/DX2                !
 ! R14   R(13,15)                1.1072         estimate D2E/DX2                !
 ! R15   R(13,21)                1.4696         estimate D2E/DX2                !
 ! R16   R(16,17)                1.4751         estimate D2E/DX2                !
 ! R17   R(16,21)                1.3688         estimate D2E/DX2                !
 ! R18   R(16,22)                1.2274         estimate D2E/DX2                !
 ! R19   R(17,18)                1.1043         estimate D2E/DX2                !
 ! R20   R(17,19)                1.109          estimate D2E/DX2                !
 ! R21   R(17,20)                1.105          estimate D2E/DX2                !
 ! R22   R(22,24)                1.9419         estimate D2E/DX2                !
 ! R23   R(22,28)                2.0263         estimate D2E/DX2                !
 ! R24   R(23,24)                0.9738         estimate D2E/DX2                !
 ! R25   R(23,25)                0.9569         estimate D2E/DX2                !
 ! R26   R(26,27)                0.957          estimate D2E/DX2                !
 ! R27   R(26,28)                0.9766         estimate D2E/DX2                !
 ! A1    A(2,1,3)              114.4401         estimate D2E/DX2                !
 ! A2    A(2,1,5)              121.1337         estimate D2E/DX2                !
 ! A3    A(3,1,5)              124.4192         estimate D2E/DX2                !
 ! A4    A(1,3,4)              114.6593         estimate D2E/DX2                !
 ! A5    A(1,3,11)             124.5819         estimate D2E/DX2                !
 ! A6    A(4,3,11)             120.7514         estimate D2E/DX2                !
 ! A7    A(1,5,6)              121.7136         estimate D2E/DX2                !
 ! A8    A(1,5,7)              123.546          estimate D2E/DX2                !
 ! A9    A(6,5,7)              114.7393         estimate D2E/DX2                !
 ! A10   A(5,7,8)              111.2217         estimate D2E/DX2                !
 ! A11   A(5,7,9)              113.5564         estimate D2E/DX2                !
 ! A12   A(5,7,10)             111.1498         estimate D2E/DX2                !
 ! A13   A(8,7,9)              106.9401         estimate D2E/DX2                !
 ! A14   A(8,7,10)             106.6739         estimate D2E/DX2                !
 ! A15   A(9,7,10)             106.9295         estimate D2E/DX2                !
 ! A16   A(3,11,12)            122.4864         estimate D2E/DX2                !
 ! A17   A(3,11,13)            124.6035         estimate D2E/DX2                !
 ! A18   A(12,11,13)           112.9098         estimate D2E/DX2                !
 ! A19   A(11,13,14)           112.2526         estimate D2E/DX2                !
 ! A20   A(11,13,15)           112.0926         estimate D2E/DX2                !
 ! A21   A(11,13,21)           105.8751         estimate D2E/DX2                !
 ! A22   A(14,13,15)           110.5678         estimate D2E/DX2                !
 ! A23   A(14,13,21)           107.7122         estimate D2E/DX2                !
 ! A24   A(15,13,21)           108.0463         estimate D2E/DX2                !
 ! A25   A(17,16,21)           121.3472         estimate D2E/DX2                !
 ! A26   A(17,16,22)           126.6395         estimate D2E/DX2                !
 ! A27   A(21,16,22)           112.0133         estimate D2E/DX2                !
 ! A28   A(16,17,18)           113.0518         estimate D2E/DX2                !
 ! A29   A(16,17,19)           111.5963         estimate D2E/DX2                !
 ! A30   A(16,17,20)           112.7977         estimate D2E/DX2                !
 ! A31   A(18,17,19)           106.1978         estimate D2E/DX2                !
 ! A32   A(18,17,20)           106.5348         estimate D2E/DX2                !
 ! A33   A(19,17,20)           106.1571         estimate D2E/DX2                !
 ! A34   A(13,21,16)           121.6941         estimate D2E/DX2                !
 ! A35   A(16,22,24)           113.6349         estimate D2E/DX2                !
 ! A36   A(16,22,28)           102.274          estimate D2E/DX2                !
 ! A37   A(24,22,28)           144.0457         estimate D2E/DX2                !
 ! A38   A(24,23,25)           105.7389         estimate D2E/DX2                !
 ! A39   A(22,24,23)           154.3713         estimate D2E/DX2                !
 ! A40   A(27,26,28)           105.5092         estimate D2E/DX2                !
 ! A41   A(22,28,26)           161.1696         estimate D2E/DX2                !
 ! D1    D(2,1,3,4)             29.9638         estimate D2E/DX2                !
 ! D2    D(2,1,3,11)          -149.0543         estimate D2E/DX2                !
 ! D3    D(5,1,3,4)           -149.0817         estimate D2E/DX2                !
 ! D4    D(5,1,3,11)            31.9002         estimate D2E/DX2                !
 ! D5    D(2,1,5,6)           -179.115          estimate D2E/DX2                !
 ! D6    D(2,1,5,7)              0.4723         estimate D2E/DX2                !
 ! D7    D(3,1,5,6)             -0.1302         estimate D2E/DX2                !
 ! D8    D(3,1,5,7)            179.457          estimate D2E/DX2                !
 ! D9    D(1,3,11,12)           -0.1211         estimate D2E/DX2                !
 ! D10   D(1,3,11,13)          179.671          estimate D2E/DX2                !
 ! D11   D(4,3,11,12)         -179.0828         estimate D2E/DX2                !
 ! D12   D(4,3,11,13)            0.7094         estimate D2E/DX2                !
 ! D13   D(1,5,7,8)           -119.7915         estimate D2E/DX2                !
 ! D14   D(1,5,7,9)              0.891          estimate D2E/DX2                !
 ! D15   D(1,5,7,10)           121.5067         estimate D2E/DX2                !
 ! D16   D(6,5,7,8)             59.8219         estimate D2E/DX2                !
 ! D17   D(6,5,7,9)           -179.4956         estimate D2E/DX2                !
 ! D18   D(6,5,7,10)           -58.8799         estimate D2E/DX2                !
 ! D19   D(3,11,13,14)        -121.3442         estimate D2E/DX2                !
 ! D20   D(3,11,13,15)         113.5038         estimate D2E/DX2                !
 ! D21   D(3,11,13,21)          -4.0787         estimate D2E/DX2                !
 ! D22   D(12,11,13,14)         58.4655         estimate D2E/DX2                !
 ! D23   D(12,11,13,15)        -66.6865         estimate D2E/DX2                !
 ! D24   D(12,11,13,21)        175.731          estimate D2E/DX2                !
 ! D25   D(11,13,21,16)        177.9053         estimate D2E/DX2                !
 ! D26   D(14,13,21,16)        -61.8214         estimate D2E/DX2                !
 ! D27   D(15,13,21,16)         57.6465         estimate D2E/DX2                !
 ! D28   D(21,16,17,18)         58.7428         estimate D2E/DX2                !
 ! D29   D(21,16,17,19)        178.3797         estimate D2E/DX2                !
 ! D30   D(21,16,17,20)        -62.2123         estimate D2E/DX2                !
 ! D31   D(22,16,17,18)       -121.2938         estimate D2E/DX2                !
 ! D32   D(22,16,17,19)         -1.6568         estimate D2E/DX2                !
 ! D33   D(22,16,17,20)        117.7511         estimate D2E/DX2                !
 ! D34   D(17,16,21,13)          0.412          estimate D2E/DX2                !
 ! D35   D(22,16,21,13)       -179.5563         estimate D2E/DX2                !
 ! D36   D(17,16,22,24)          1.1666         estimate D2E/DX2                !
 ! D37   D(17,16,22,28)       -176.9886         estimate D2E/DX2                !
 ! D38   D(21,16,22,24)       -178.867          estimate D2E/DX2                !
 ! D39   D(21,16,22,28)          2.9778         estimate D2E/DX2                !
 ! D40   D(16,22,24,23)         18.3987         estimate D2E/DX2                !
 ! D41   D(28,22,24,23)       -164.6724         estimate D2E/DX2                !
 ! D42   D(16,22,28,26)        152.5158         estimate D2E/DX2                !
 ! D43   D(24,22,28,26)        -24.6051         estimate D2E/DX2                !
 ! D44   D(25,23,24,22)        112.939          estimate D2E/DX2                !
 ! D45   D(27,26,28,22)        -27.8868         estimate D2E/DX2                !
 --------------------------------------------------------------------------------
 Trust Radius=3.00D-01 FncErr=1.00D-07 GrdErr=1.00D-06
 Number of steps in this run=    123 maximum allowed number of steps=    168.
 GradGradGradGradGradGradGradGradGradGradGradGradGradGradGradGradGradGrad

                          Input orientation:                          
 ---------------------------------------------------------------------
 Center     Atomic      Atomic             Coordinates (Angstroms)
 Number     Number       Type             X           Y           Z
 ---------------------------------------------------------------------
      1          6           0       -3.232679    0.479517   -0.254501
      2          1           0       -3.396752    1.440210   -0.750059
      3          6           0       -1.828874    0.079161   -0.160080
      4          1           0       -1.116619    0.914882   -0.096309
      5          6           0       -4.258953   -0.234479    0.231102
      6          1           0       -4.104577   -1.189249    0.740838
      7          6           0       -5.679634    0.197211    0.134393
      8          1           0       -6.130177    0.311608    1.132333
      9          1           0       -5.813126    1.153916   -0.388630
     10          1           0       -6.285868   -0.548878   -0.402267
     11          6           0       -1.397914   -1.188780   -0.167524
     12          1           0       -2.079916   -2.040783   -0.244734
     13          6           0        0.035595   -1.597826   -0.078194
     14          1           0        0.355222   -2.198829   -0.951154
     15          1           0        0.257846   -2.133299    0.865101
     16          6           0        2.175296   -0.349611    0.025941
     17          6           0        2.934721   -1.607788    0.152613
     18          1           0        2.778794   -2.294499   -0.698062
     19          1           0        4.026840   -1.421964    0.204030
     20          1           0        2.675854   -2.174103    1.065477
     21          8           0        0.811120   -0.349520   -0.086682
     22          8           0        2.638559    0.786858    0.007027
     23          8           0        5.470151    0.459179    0.069233
     24          1           0        4.575914    0.839981    0.128952
     25          1           0        5.894210    0.906056   -0.663034
     26          8           0        0.360331    2.688284    0.016646
     27          1           0        0.666912    3.160886    0.790255
     28          1           0        0.968816    1.931216   -0.085034
 ---------------------------------------------------------------------
                    Distance matrix (angstroms):
                    1          2          3          4          5
     1  C    0.000000
     2  H    1.093357   0.000000
     3  C    1.462829   2.158419   0.000000
     4  H    2.166167   2.429478   1.099911   0.000000
     5  C    1.341208   2.123829   2.481265   3.361918   0.000000
     6  H    2.129715   3.104488   2.756690   3.749143   1.093274
     7  C    2.493697   2.745697   3.863807   4.624866   1.487966
     8  H    3.216675   3.505532   4.497285   5.197044   2.147535
     9  H    2.670489   2.459971   4.132989   4.711663   2.174204
    10  H    3.225119   3.524829   4.507536   5.381202   2.146716
    11  C    2.481359   3.353549   1.339200   2.123580   3.042226
    12  H    2.771438   3.755892   2.136434   3.112222   2.870079
    13  C    3.876603   4.632717   2.509031   2.764349   4.516362
    14  H    4.531214   5.230712   3.253508   3.548559   5.152379
    15  H    4.501564   5.360485   3.209420   3.479205   4.940541
    16  C    5.478348   5.903673   4.031355   3.528540   6.438548
    17  C    6.523757   7.084678   5.063142   4.779036   7.324007
    18  H    6.635489   7.217210   5.210978   5.082959   7.391678
    19  H    7.518411   8.013242   6.056017   5.657404   8.370497
    20  H    6.610204   7.296299   5.183798   5.027368   7.249129
    21  O    4.131316   4.620540   2.675579   2.305425   5.081325
    22  O    5.885091   6.117600   4.526226   3.758780   6.976318
    23  O    8.708873   8.958551   7.312507   6.604590   9.755144
    24  H    7.826308   8.043403   6.456291   5.697481   8.900549
    25  H    9.145979   9.306711   7.783492   7.033703  10.256072
    26  O    4.226333   4.032518   3.410480   2.310648   5.470495
    27  H    4.846449   4.674041   4.077881   3.001918   6.008769
    28  H    4.448450   4.443144   3.356011   2.319936   5.667428
                    6          7          8          9         10
     6  H    0.000000
     7  C    2.184228   0.000000
     8  H    2.551254   1.100891   0.000000
     9  H    3.112115   1.098480   1.767295   0.000000
    10  H    2.544562   1.100987   1.766260   1.767252   0.000000
    11  C    2.855021   4.510571   5.131774   5.003120   4.935248
    12  H    2.407429   4.255623   4.882077   4.915655   4.465493
    13  C    4.240138   5.994263   6.567196   6.471166   6.416090
    14  H    4.875643   6.583229   7.259725   7.043142   6.864961
    15  H    4.465132   6.420193   6.845131   7.016718   6.851044
    16  C    6.375961   7.874687   8.404891   8.139247   8.474336
    17  C    7.076221   8.801447   9.317527   9.189384   9.297766
    18  H    7.118483   8.857009   9.461073   9.263283   9.235951
    19  H    8.152439   9.840844  10.345628  10.188785  10.367344
    20  H    6.859269   8.735229   9.150378   9.233251   9.225405
    21  O    5.055098   6.517490   7.078467   6.799421   7.106798
    22  O    7.064939   8.340038   8.853412   8.468899   9.033112
    23  O    9.738777  11.153052  11.649874  11.313913  11.808576
    24  H    8.935497  10.275673  10.765980  10.406661  10.963094
    25  H   10.311979  11.622918  12.172206  11.713174  12.269439
    26  O    5.957778   6.534561   7.001431   6.374175   7.404503
    27  H    6.457029   7.035067   7.378064   6.885390   7.970295
    28  H    6.013209   6.874359   7.382467   6.833089   7.673457
                   11         12         13         14         15
    11  C    0.000000
    12  H    1.094074   0.000000
    13  C    1.493401   2.167795   0.000000
    14  H    2.169737   2.540454   1.106989   0.000000
    15  H    2.167942   2.589483   1.107218   1.820044   0.000000
    16  C    3.675522   4.586955   2.479356   2.772542   2.749972
    17  C    4.364606   5.048956   2.908316   2.867306   2.819479
    18  H    4.353042   4.886404   2.897366   2.438629   2.970630
    19  H    5.442461   6.154413   4.005074   3.926671   3.892085
    20  H    4.368837   4.934752   2.934458   3.074532   2.426639
    21  O    2.364471   3.353124   1.469619   2.091674   2.096156
    22  O    4.497413   5.506627   3.531204   3.878926   3.864117
    23  O    7.066975   7.959390   5.812693   5.853947   5.875583
    24  H    6.315884   7.262129   5.157549   5.311802   5.294150
    25  H    7.603219   8.511493   6.398033   6.356391   6.583424
    26  O    4.261100   5.327964   4.299440   4.982021   4.896738
    27  H    4.909220   5.972740   4.878330   5.644130   5.310493
    28  H    3.916962   5.009695   3.650354   4.264262   4.234208
                   16         17         18         19         20
    16  C    0.000000
    17  C    1.475053   0.000000
    18  H    2.161245   1.104325   0.000000
    19  H    2.147061   1.109008   1.769945   0.000000
    20  H    2.158695   1.105009   1.770639   1.770019   0.000000
    21  O    1.368817   2.479956   2.833455   3.402279   2.851983
    22  O    1.227409   2.417279   3.164108   2.616301   3.144678
    23  O    3.392946   3.272264   3.926180   2.374872   3.966708
    24  H    2.681176   2.947142   3.706556   2.328844   3.684021
    25  H    3.985186   3.967779   4.466609   3.107820   4.778383
    26  O    3.538784   5.010210   5.584613   5.511129   5.486757
    27  H    3.896535   5.318815   6.036254   5.712731   5.707338
    28  H    2.582650   4.055343   4.637725   4.547404   4.592526
                   21         22         23         24         25
    21  O    0.000000
    22  O    2.153989   0.000000
    23  O    4.731266   2.851168   0.000000
    24  H    3.954122   1.941915   0.973774   0.000000
    25  H    5.267491   3.326027   0.956943   1.539322   0.000000
    26  O    3.072807   2.967463   5.575117   4.604343   5.853385
    27  H    3.621155   3.183842   5.557895   4.593933   5.875453
    28  H    2.286182   2.026345   4.738429   3.774618   5.064044
                   26         27         28
    26  O    0.000000
    27  H    0.956982   0.000000
    28  H    0.976599   1.539274   0.000000
 Stoichiometry    C8H16O4
 Framework group  C1[X(C8H16O4)]
 Deg. of freedom    78
 Full point group                 C1      NOp   1
 Largest Abelian subgroup         C1      NOp   1
 Largest concise Abelian subgroup C1      NOp   1
                         Standard orientation:                         
 ---------------------------------------------------------------------
 Center     Atomic      Atomic             Coordinates (Angstroms)
 Number     Number       Type             X           Y           Z
 ---------------------------------------------------------------------
      1          6           0       -3.232679    0.479517   -0.254501
      2          1           0       -3.396752    1.440210   -0.750059
      3          6           0       -1.828874    0.079161   -0.160080
      4          1           0       -1.116619    0.914882   -0.096309
      5          6           0       -4.258953   -0.234479    0.231102
      6          1           0       -4.104577   -1.189249    0.740838
      7          6           0       -5.679634    0.197211    0.134393
      8          1           0       -6.130177    0.311608    1.132333
      9          1           0       -5.813126    1.153916   -0.388630
     10          1           0       -6.285868   -0.548878   -0.402267
     11          6           0       -1.397914   -1.188780   -0.167524
     12          1           0       -2.079916   -2.040783   -0.244734
     13          6           0        0.035595   -1.597826   -0.078194
     14          1           0        0.355222   -2.198829   -0.951154
     15          1           0        0.257846   -2.133299    0.865101
     16          6           0        2.175296   -0.349611    0.025941
     17          6           0        2.934721   -1.607788    0.152613
     18          1           0        2.778794   -2.294499   -0.698062
     19          1           0        4.026840   -1.421964    0.204030
     20          1           0        2.675854   -2.174103    1.065477
     21          8           0        0.811120   -0.349520   -0.086682
     22          8           0        2.638559    0.786858    0.007027
     23          8           0        5.470151    0.459179    0.069233
     24          1           0        4.575914    0.839981    0.128952
     25          1           0        5.894210    0.906056   -0.663034
     26          8           0        0.360331    2.688284    0.016646
     27          1           0        0.666912    3.160886    0.790255
     28          1           0        0.968816    1.931216   -0.085034
 ---------------------------------------------------------------------
 Rotational constants (GHZ):      1.8575490      0.2805549      0.2461323
 Standard basis: 6-31+G(d,p) (6D, 7F)
 There are   308 symmetry adapted cartesian basis functions of A   symmetry.
 There are   308 symmetry adapted basis functions of A   symmetry.
   308 basis functions,   496 primitive gaussians,   308 cartesian basis functions
    48 alpha electrons       48 beta electrons
       nuclear repulsion energy       691.4893244913 Hartrees.
 NAtoms=   28 NActive=   28 NUniq=   28 SFac= 1.00D+00 NAtFMM=   60 NAOKFM=F Big=F
 Integral buffers will be    131072 words long.
 Raffenetti 2 integral format.
 Two-electron integral symmetry is turned on.
 Nuclear repulsion after empirical dispersion term =      691.4679875298 Hartrees.
 ------------------------------------------------------------------------------
 Polarizable Continuum Model (PCM)
 =================================
 Model                : C-PCM.
 Atomic radii         : UFF (Universal Force Field).
 Polarization charges : Total charges.
 Charge compensation  : None.
 Solution method      : On-the-fly selection.
 Cavity type          : Scaled VdW (van der Waals Surface) (Alpha=1.100).
 Cavity algorithm     : GePol (No added spheres)
                        Default sphere list used, NSphG=   28.
                        Lebedev-Laikov grids with approx.  5.0 points / Ang**2.
                        Smoothing algorithm: Karplus/York (Gamma=1.0000).
                        Polarization charges: spherical gaussians, with
                                              point-specific exponents (IZeta= 3).
                        Self-potential: point-specific (ISelfS= 7).
                        Self-field    : sphere-specific E.n sum rule (ISelfD= 2).
 1st derivatives      : Analytical E(r).r(x)/FMM algorithm (CHGder, D1EAlg=3).
                        Cavity 1st derivative terms included.
 Solvent              : Water, Eps=  78.355300 Eps(inf)=   1.777849
 ------------------------------------------------------------------------------
 One-electron integrals computed using PRISM.
 NBasis=   308 RedAO= T EigKep=  4.66D-06  NBF=   308
 NBsUse=   308 1.00D-06 EigRej= -1.00D+00 NBFU=   308
 ExpMin= 4.38D-02 ExpMax= 5.48D+03 ExpMxC= 8.25D+02 IAcc=2 IRadAn=         4 AccDes= 0.00D+00
 Harris functional with IExCor=  402 and IRadAn=       4 diagonalized for initial guess.
 HarFok:  IExCor=  402 AccDes= 0.00D+00 IRadAn=         4 IDoV= 1 UseB2=F ITyADJ=14
 ICtDFT=  3500011 ScaDFX=  1.000000  1.000000  1.000000  1.000000
 FoFCou: FMM=F IPFlag=           0 FMFlag=      100000 FMFlg1=           0
         NFxFlg=           0 DoJE=T BraDBF=F KetDBF=T FulRan=T
         wScrn=  0.000000 ICntrl=     500 IOpCl=  0 I1Cent=   200000004 NGrid=           0
         NMat0=    1 NMatS0=      1 NMatT0=    0 NMatD0=    1 NMtDS0=    0 NMtDT0=    0
 Petite list used in FoFCou.
 Requested convergence on RMS density matrix=1.00D-08 within 128 cycles.
 Requested convergence on MAX density matrix=1.00D-06.
 Requested convergence on             energy=1.00D-06.
 No special actions if energy rises.
 Inv3:  Mode=1 IEnd=    15581523.
 Iteration    1 A*A^-1 deviation from unit magnitude is 6.22D-15 for   2270.
 Iteration    1 A*A^-1 deviation from orthogonality  is 3.78D-15 for   2274   1826.
 Iteration    1 A^-1*A deviation from unit magnitude is 6.00D-15 for   2270.
 Iteration    1 A^-1*A deviation from orthogonality  is 3.09D-15 for   2260   1984.
 Error on total polarization charges =  0.01882
 SCF Done:  E(RB3LYP) =  -615.445826276     A.U. after   13 cycles
            NFock= 13  Conv=0.68D-08     -V/T= 2.0097

 **********************************************************************

            Population analysis using the SCF density.

 **********************************************************************

 Orbital symmetries:
       Occupied  (A) (A) (A) (A) (A) (A) (A) (A) (A) (A) (A) (A)
                 (A) (A) (A) (A) (A) (A) (A) (A) (A) (A) (A) (A)
                 (A) (A) (A) (A) (A) (A) (A) (A) (A) (A) (A) (A)
                 (A) (A) (A) (A) (A) (A) (A) (A) (A) (A) (A) (A)
       Virtual   (A) (A) (A) (A) (A) (A) (A) (A) (A) (A) (A) (A)
                 (A) (A) (A) (A) (A) (A) (A) (A) (A) (A) (A) (A)
                 (A) (A) (A) (A) (A) (A) (A) (A) (A) (A) (A) (A)
                 (A) (A) (A) (A) (A) (A) (A) (A) (A) (A) (A) (A)
                 (A) (A) (A) (A) (A) (A) (A) (A) (A) (A) (A) (A)
                 (A) (A) (A) (A) (A) (A) (A) (A) (A) (A) (A) (A)
                 (A) (A) (A) (A) (A) (A) (A) (A) (A) (A) (A) (A)
                 (A) (A) (A) (A) (A) (A) (A) (A) (A) (A) (A) (A)
                 (A) (A) (A) (A) (A) (A) (A) (A) (A) (A) (A) (A)
                 (A) (A) (A) (A) (A) (A) (A) (A) (A) (A) (A) (A)
                 (A) (A) (A) (A) (A) (A) (A) (A) (A) (A) (A) (A)
                 (A) (A) (A) (A) (A) (A) (A) (A) (A) (A) (A) (A)
                 (A) (A) (A) (A) (A) (A) (A) (A) (A) (A) (A) (A)
                 (A) (A) (A) (A) (A) (A) (A) (A) (A) (A) (A) (A)
                 (A) (A) (A) (A) (A) (A) (A) (A) (A) (A) (A) (A)
                 (A) (A) (A) (A) (A) (A) (A) (A) (A) (A) (A) (A)
                 (A) (A) (A) (A) (A) (A) (A) (A) (A) (A) (A) (A)
                 (A) (A) (A) (A) (A) (A) (A) (A) (A) (A) (A) (A)
                 (A) (A) (A) (A) (A) (A) (A) (A) (A) (A) (A) (A)
                 (A) (A) (A) (A) (A) (A) (A) (A) (A) (A) (A) (A)
                 (A) (A) (A) (A) (A) (A) (A) (A) (A) (A) (A) (A)
                 (A) (A) (A) (A) (A) (A) (A) (A)
 The electronic state is 1-A.
 Alpha  occ. eigenvalues --  -19.21355 -19.17280 -19.15657 -19.15478 -10.35184
 Alpha  occ. eigenvalues --  -10.26498 -10.21224 -10.19936 -10.19616 -10.19240
 Alpha  occ. eigenvalues --  -10.19096 -10.18369  -1.12198  -1.03696  -1.01075
 Alpha  occ. eigenvalues --   -1.00845  -0.82331  -0.78707  -0.76836  -0.72823
 Alpha  occ. eigenvalues --   -0.66380  -0.60972  -0.57901  -0.54135  -0.53395
 Alpha  occ. eigenvalues --   -0.52604  -0.51628  -0.50608  -0.49540  -0.46731
 Alpha  occ. eigenvalues --   -0.45295  -0.44821  -0.41872  -0.41289  -0.41007
 Alpha  occ. eigenvalues --   -0.40034  -0.39774  -0.39041  -0.38667  -0.36607
 Alpha  occ. eigenvalues --   -0.35608  -0.34805  -0.32380  -0.31672  -0.31183
 Alpha  occ. eigenvalues --   -0.30874  -0.30239  -0.22824
 Alpha virt. eigenvalues --   -0.03299  -0.02915   0.00033   0.01455   0.01657
 Alpha virt. eigenvalues --    0.02885   0.03318   0.03856   0.04177   0.04886
 Alpha virt. eigenvalues --    0.05409   0.05818   0.06121   0.07087   0.07715
 Alpha virt. eigenvalues --    0.07970   0.08514   0.09130   0.09636   0.10352
 Alpha virt. eigenvalues --    0.10454   0.10958   0.11704   0.12382   0.13402
 Alpha virt. eigenvalues --    0.13962   0.14864   0.15605   0.16226   0.16405
 Alpha virt. eigenvalues --    0.16692   0.17423   0.17963   0.18454   0.18580
 Alpha virt. eigenvalues --    0.19349   0.20127   0.20211   0.20927   0.21103
 Alpha virt. eigenvalues --    0.21678   0.22342   0.22613   0.23272   0.23806
 Alpha virt. eigenvalues --    0.24343   0.24764   0.24881   0.25105   0.25511
 Alpha virt. eigenvalues --    0.26046   0.26140   0.27578   0.27800   0.28558
 Alpha virt. eigenvalues --    0.29307   0.29506   0.29763   0.30547   0.31598
 Alpha virt. eigenvalues --    0.32442   0.32563   0.33754   0.34813   0.36235
 Alpha virt. eigenvalues --    0.37153   0.38406   0.39541   0.41459   0.41659
 Alpha virt. eigenvalues --    0.43937   0.46292   0.46756   0.48927   0.51147
 Alpha virt. eigenvalues --    0.53290   0.61233   0.62111   0.64523   0.66413
 Alpha virt. eigenvalues --    0.66948   0.67251   0.68540   0.69293   0.71548
 Alpha virt. eigenvalues --    0.73550   0.74103   0.75235   0.75826   0.77155
 Alpha virt. eigenvalues --    0.77728   0.79185   0.80741   0.82355   0.87336
 Alpha virt. eigenvalues --    0.88218   0.89608   0.90490   0.92855   0.94288
 Alpha virt. eigenvalues --    0.95392   0.96441   0.97103   0.97667   0.98251
 Alpha virt. eigenvalues --    0.99702   1.00019   1.00540   1.03780   1.05096
 Alpha virt. eigenvalues --    1.07117   1.09394   1.10154   1.10610   1.11169
 Alpha virt. eigenvalues --    1.13490   1.14976   1.15656   1.15996   1.18085
 Alpha virt. eigenvalues --    1.19508   1.20257   1.20951   1.21967   1.22480
 Alpha virt. eigenvalues --    1.24252   1.24918   1.26909   1.28135   1.28623
 Alpha virt. eigenvalues --    1.29849   1.33999   1.34602   1.37188   1.37300
 Alpha virt. eigenvalues --    1.40718   1.41401   1.44135   1.44683   1.45195
 Alpha virt. eigenvalues --    1.47447   1.50407   1.52273   1.52728   1.56226
 Alpha virt. eigenvalues --    1.57223   1.59116   1.60634   1.64435   1.66088
 Alpha virt. eigenvalues --    1.66745   1.68048   1.70906   1.74279   1.75528
 Alpha virt. eigenvalues --    1.77198   1.79544   1.80184   1.81200   1.82993
 Alpha virt. eigenvalues --    1.83474   1.86378   1.87676   1.91348   1.93022
 Alpha virt. eigenvalues --    1.94845   1.96080   1.98121   1.98923   2.02352
 Alpha virt. eigenvalues --    2.03569   2.04768   2.05837   2.06628   2.07443
 Alpha virt. eigenvalues --    2.09931   2.10846   2.11828   2.14801   2.15226
 Alpha virt. eigenvalues --    2.16538   2.18745   2.21307   2.22666   2.25143
 Alpha virt. eigenvalues --    2.26504   2.27424   2.28777   2.29935   2.32321
 Alpha virt. eigenvalues --    2.32944   2.38852   2.39806   2.42507   2.43011
 Alpha virt. eigenvalues --    2.46775   2.50641   2.51579   2.52705   2.53227
 Alpha virt. eigenvalues --    2.54062   2.54805   2.55677   2.57617   2.59838
 Alpha virt. eigenvalues --    2.61170   2.63402   2.65036   2.65717   2.66284
 Alpha virt. eigenvalues --    2.66616   2.69077   2.70519   2.70945   2.72893
 Alpha virt. eigenvalues --    2.76098   2.77786   2.78238   2.78801   2.83103
 Alpha virt. eigenvalues --    2.85943   2.86264   2.86593   2.87704   2.94573
 Alpha virt. eigenvalues --    2.97277   3.03146   3.05629   3.08061   3.11623
 Alpha virt. eigenvalues --    3.15751   3.20705   3.22673   3.25197   3.31380
 Alpha virt. eigenvalues --    3.39070   3.39525   3.42505   3.43365   3.43674
 Alpha virt. eigenvalues --    3.45024   3.45501   3.47773   3.48083   3.49324
 Alpha virt. eigenvalues --    3.63995   3.68528   3.71514   4.12010   4.20336
 Alpha virt. eigenvalues --    4.31578   4.33560   4.40370   4.41283   4.45845
 Alpha virt. eigenvalues --    4.51486   4.53169   4.61748   4.64707   4.73865
          Condensed to atoms (all electrons):
               1          2          3          4          5          6
     1  C    9.326026   0.254576  -3.335718   0.069171  -0.493221  -0.028677
     2  H    0.254576   0.566423   0.049371  -0.005647   0.017056   0.004504
     3  C   -3.335718   0.049371   8.737242   0.193852   0.865697  -0.020150
     4  H    0.069171  -0.005647   0.193852   0.541602  -0.010859   0.000050
     5  C   -0.493221   0.017056   0.865697  -0.010859   6.571497   0.337755
     6  H   -0.028677   0.004504  -0.020150   0.000050   0.337755   0.558117
     7  C    0.837828  -0.050522  -0.667473   0.010210  -1.010080   0.004709
     8  H    0.040161   0.000111  -0.029445   0.000007  -0.114328  -0.001848
     9  H    0.022743   0.002910  -0.017866  -0.000003  -0.151340   0.003633
    10  H    0.001368   0.000102  -0.000109   0.000000  -0.132076  -0.002376
    11  C   -0.286576   0.018698   0.239028   0.077983  -0.006245  -0.009639
    12  H    0.046321   0.000045  -0.088490   0.004491  -0.009372   0.001003
    13  C    0.025463   0.007523  -0.281059  -0.032590  -0.101404   0.015282
    14  H    0.001636   0.000006  -0.002842   0.000070   0.003784   0.000002
    15  H    0.000575   0.000000   0.008825   0.000016  -0.004077   0.000000
    16  C   -0.043847   0.000367  -0.047022  -0.002733   0.000220  -0.000044
    17  C   -0.006172  -0.000052   0.001423  -0.000209  -0.000533   0.000020
    18  H    0.000371   0.000000   0.002629   0.000000  -0.000093   0.000000
    19  H   -0.000023   0.000000  -0.000203   0.000000  -0.000005   0.000000
    20  H   -0.000117   0.000000   0.001724  -0.000001   0.000143   0.000000
    21  O    0.111937   0.000542   0.098651  -0.003321   0.002394   0.000054
    22  O   -0.015361   0.000002  -0.012962   0.000591   0.000063   0.000000
    23  O   -0.000142   0.000000  -0.000502   0.000000   0.000000   0.000000
    24  H    0.000002   0.000000   0.000089   0.000000   0.000000   0.000000
    25  H    0.000001   0.000000   0.000013   0.000000   0.000000   0.000000
    26  O    0.044679   0.000332  -0.037979  -0.017595  -0.002248  -0.000002
    27  H   -0.002853  -0.000002   0.001761   0.000142   0.000200   0.000000
    28  H   -0.003971   0.000001   0.006839  -0.000977   0.000632   0.000000
               7          8          9         10         11         12
     1  C    0.837828   0.040161   0.022743   0.001368  -0.286576   0.046321
     2  H   -0.050522   0.000111   0.002910   0.000102   0.018698   0.000045
     3  C   -0.667473  -0.029445  -0.017866  -0.000109   0.239028  -0.088490
     4  H    0.010210   0.000007  -0.000003   0.000000   0.077983   0.004491
     5  C   -1.010080  -0.114328  -0.151340  -0.132076  -0.006245  -0.009372
     6  H    0.004709  -0.001848   0.003633  -0.002376  -0.009639   0.001003
     7  C    6.286601   0.445048   0.501151   0.491045  -0.070975   0.010235
     8  H    0.445048   0.550760  -0.027779  -0.031568   0.007352   0.000004
     9  H    0.501151  -0.027779   0.537267  -0.027673   0.000100  -0.000001
    10  H    0.491045  -0.031568  -0.027673   0.550006  -0.008776   0.000004
    11  C   -0.070975   0.007352   0.000100  -0.008776   6.765747   0.289265
    12  H    0.010235   0.000004  -0.000001   0.000004   0.289265   0.547661
    13  C    0.009905   0.000851   0.000614  -0.000691  -0.736721   0.057378
    14  H    0.000153   0.000000   0.000000   0.000000   0.053483  -0.001011
    15  H   -0.000285   0.000000   0.000000   0.000000  -0.099658  -0.000443
    16  C   -0.001129  -0.000005  -0.000001   0.000000   0.168962  -0.006061
    17  C   -0.000230   0.000000   0.000000   0.000000  -0.028009   0.003165
    18  H   -0.000004   0.000000   0.000000   0.000000  -0.005135  -0.000002
    19  H    0.000000   0.000000   0.000000   0.000000  -0.007343   0.000000
    20  H    0.000006   0.000000   0.000000   0.000000   0.019920  -0.000001
    21  O    0.000767  -0.000001   0.000001   0.000000  -0.172169   0.001766
    22  O   -0.000012   0.000000   0.000000   0.000000   0.019856   0.000024
    23  O    0.000000   0.000000   0.000000   0.000000  -0.000194   0.000000
    24  H    0.000000   0.000000   0.000000   0.000000  -0.000016   0.000000
    25  H    0.000000   0.000000   0.000000   0.000000   0.000045   0.000000
    26  O    0.000127  -0.000001   0.000001   0.000000  -0.008467  -0.000129
    27  H    0.000005   0.000000   0.000000   0.000000   0.002213   0.000000
    28  H   -0.000026   0.000000   0.000000   0.000000  -0.008423   0.000004
              13         14         15         16         17         18
     1  C    0.025463   0.001636   0.000575  -0.043847  -0.006172   0.000371
     2  H    0.007523   0.000006   0.000000   0.000367  -0.000052   0.000000
     3  C   -0.281059  -0.002842   0.008825  -0.047022   0.001423   0.002629
     4  H   -0.032590   0.000070   0.000016  -0.002733  -0.000209   0.000000
     5  C   -0.101404   0.003784  -0.004077   0.000220  -0.000533  -0.000093
     6  H    0.015282   0.000002   0.000000  -0.000044   0.000020   0.000000
     7  C    0.009905   0.000153  -0.000285  -0.001129  -0.000230  -0.000004
     8  H    0.000851   0.000000   0.000000  -0.000005   0.000000   0.000000
     9  H    0.000614   0.000000   0.000000  -0.000001   0.000000   0.000000
    10  H   -0.000691   0.000000   0.000000   0.000000   0.000000   0.000000
    11  C   -0.736721   0.053483  -0.099658   0.168962  -0.028009  -0.005135
    12  H    0.057378  -0.001011  -0.000443  -0.006061   0.003165  -0.000002
    13  C    6.645934   0.308435   0.449754  -0.219695  -0.004158   0.018678
    14  H    0.308435   0.555389  -0.039969  -0.003219  -0.002591   0.001174
    15  H    0.449754  -0.039969   0.555785  -0.005150   0.006215  -0.000874
    16  C   -0.219695  -0.003219  -0.005150   5.273302  -0.114860  -0.037353
    17  C   -0.004158  -0.002591   0.006215  -0.114860   5.719736   0.370704
    18  H    0.018678   0.001174  -0.000874  -0.037353   0.370704   0.489443
    19  H   -0.000007   0.000005   0.000026  -0.064898   0.434184  -0.022263
    20  H   -0.003830  -0.000563   0.001298  -0.035587   0.367271  -0.021754
    21  O    0.007156  -0.042040  -0.040898   0.108843  -0.166242  -0.001146
    22  O    0.027961  -0.000606  -0.000478   0.428027  -0.105179   0.002632
    23  O    0.001250  -0.000006  -0.000003  -0.044562   0.028166   0.000065
    24  H   -0.000270   0.000000   0.000000   0.009134  -0.008249   0.000064
    25  H    0.000039   0.000000   0.000000   0.004836  -0.002644  -0.000011
    26  O    0.002589  -0.000080  -0.000043  -0.022156  -0.001318   0.000020
    27  H   -0.000296   0.000000   0.000000   0.001793   0.000070   0.000000
    28  H    0.003364   0.000006   0.000016  -0.004105   0.002953  -0.000014
              19         20         21         22         23         24
     1  C   -0.000023  -0.000117   0.111937  -0.015361  -0.000142   0.000002
     2  H    0.000000   0.000000   0.000542   0.000002   0.000000   0.000000
     3  C   -0.000203   0.001724   0.098651  -0.012962  -0.000502   0.000089
     4  H    0.000000  -0.000001  -0.003321   0.000591   0.000000   0.000000
     5  C   -0.000005   0.000143   0.002394   0.000063   0.000000   0.000000
     6  H    0.000000   0.000000   0.000054   0.000000   0.000000   0.000000
     7  C    0.000000   0.000006   0.000767  -0.000012   0.000000   0.000000
     8  H    0.000000   0.000000  -0.000001   0.000000   0.000000   0.000000
     9  H    0.000000   0.000000   0.000001   0.000000   0.000000   0.000000
    10  H    0.000000   0.000000   0.000000   0.000000   0.000000   0.000000
    11  C   -0.007343   0.019920  -0.172169   0.019856  -0.000194  -0.000016
    12  H    0.000000  -0.000001   0.001766   0.000024   0.000000   0.000000
    13  C   -0.000007  -0.003830   0.007156   0.027961   0.001250  -0.000270
    14  H    0.000005  -0.000563  -0.042040  -0.000606  -0.000006   0.000000
    15  H    0.000026   0.001298  -0.040898  -0.000478  -0.000003   0.000000
    16  C   -0.064898  -0.035587   0.108843   0.428027  -0.044562   0.009134
    17  C    0.434184   0.367271  -0.166242  -0.105179   0.028166  -0.008249
    18  H   -0.022263  -0.021754  -0.001146   0.002632   0.000065   0.000064
    19  H    0.471750  -0.022060   0.006981  -0.006960  -0.005556  -0.000313
    20  H   -0.022060   0.488091  -0.001541   0.001959   0.000248   0.000048
    21  O    0.006981  -0.001541   8.615741  -0.122985  -0.002322   0.001815
    22  O   -0.006960   0.001959  -0.122985   8.333552  -0.008554   0.024171
    23  O   -0.005556   0.000248  -0.002322  -0.008554   8.302004   0.248760
    24  H   -0.000313   0.000048   0.001815   0.024171   0.248760   0.321765
    25  H    0.000086  -0.000001   0.000031  -0.000659   0.279897  -0.015473
    26  O   -0.000011   0.000018   0.004656  -0.003219  -0.000155   0.000093
    27  H    0.000000   0.000000  -0.002172   0.001892   0.000012   0.000000
    28  H   -0.000004  -0.000013   0.000048   0.030522   0.000119  -0.000015
              25         26         27         28
     1  C    0.000001   0.044679  -0.002853  -0.003971
     2  H    0.000000   0.000332  -0.000002   0.000001
     3  C    0.000013  -0.037979   0.001761   0.006839
     4  H    0.000000  -0.017595   0.000142  -0.000977
     5  C    0.000000  -0.002248   0.000200   0.000632
     6  H    0.000000  -0.000002   0.000000   0.000000
     7  C    0.000000   0.000127   0.000005  -0.000026
     8  H    0.000000  -0.000001   0.000000   0.000000
     9  H    0.000000   0.000001   0.000000   0.000000
    10  H    0.000000   0.000000   0.000000   0.000000
    11  C    0.000045  -0.008467   0.002213  -0.008423
    12  H    0.000000  -0.000129   0.000000   0.000004
    13  C    0.000039   0.002589  -0.000296   0.003364
    14  H    0.000000  -0.000080   0.000000   0.000006
    15  H    0.000000  -0.000043   0.000000   0.000016
    16  C    0.004836  -0.022156   0.001793  -0.004105
    17  C   -0.002644  -0.001318   0.000070   0.002953
    18  H   -0.000011   0.000020   0.000000  -0.000014
    19  H    0.000086  -0.000011   0.000000  -0.000004
    20  H   -0.000001   0.000018   0.000000  -0.000013
    21  O    0.000031   0.004656  -0.002172   0.000048
    22  O   -0.000659  -0.003219   0.001892   0.030522
    23  O    0.279897  -0.000155   0.000012   0.000119
    24  H   -0.015473   0.000093   0.000000  -0.000015
    25  H    0.357304  -0.000002   0.000000  -0.000002
    26  O   -0.000002   8.307355   0.281038   0.246393
    27  H    0.000000   0.281038   0.360017  -0.016679
    28  H   -0.000002   0.246393  -0.016679   0.304682
 Mulliken charges:
               1
     1  C   -0.566180
     2  H    0.133653
     3  C    0.334677
     4  H    0.175750
     5  C    0.236442
     6  H    0.137607
     7  C   -0.797053
     8  H    0.160683
     9  H    0.156242
    10  H    0.160742
    11  C   -0.214308
    12  H    0.144145
    13  C   -0.201454
    14  H    0.168786
    15  H    0.169369
    16  C    0.656943
    17  C   -0.493462
    18  H    0.202868
    19  H    0.216614
    20  H    0.204741
    21  O   -0.406549
    22  O   -0.594278
    23  O   -0.798526
    24  H    0.418394
    25  H    0.376541
    26  O   -0.793896
    27  H    0.372859
    28  H    0.438652
 Sum of Mulliken charges =   0.00000
 Mulliken charges with hydrogens summed into heavy atoms:
               1
     1  C   -0.432527
     3  C    0.510426
     5  C    0.374049
     7  C   -0.319386
    11  C   -0.070162
    13  C    0.136701
    16  C    0.656943
    17  C    0.130760
    21  O   -0.406549
    22  O   -0.594278
    23  O   -0.003591
    26  O    0.017615
 Electronic spatial extent (au):  <R**2>=           4360.0229
 Charge=              0.0000 electrons
 Dipole moment (field-independent basis, Debye):
    X=             -1.0595    Y=             -5.6370    Z=              0.3158  Tot=              5.7444
 Quadrupole moment (field-independent basis, Debye-Ang):
   XX=            -80.2927   YY=            -68.4891   ZZ=            -74.4858
   XY=             -0.0229   XZ=             -7.8669   YZ=              2.2778
 Traceless Quadrupole moment (field-independent basis, Debye-Ang):
   XX=             -5.8701   YY=              5.9334   ZZ=             -0.0633
   XY=             -0.0229   XZ=             -7.8669   YZ=              2.2778
 Octapole moment (field-independent basis, Debye-Ang**2):
  XXX=            -77.0047  YYY=            -12.5830  ZZZ=              2.5841  XYY=             29.5870
  XXY=              9.3140  XXZ=            -50.2608  XZZ=             24.4333  YZZ=              3.9812
  YYZ=             15.1632  XYZ=             -1.5706
 Hexadecapole moment (field-independent basis, Debye-Ang**3):
 XXXX=          -5072.7558 YYYY=           -737.4481 ZZZZ=           -117.9692 XXXY=            150.9946
 XXXZ=           -359.4111 YYYX=             28.8477 YYYZ=             58.5963 ZZZX=            -13.0383
 ZZZY=              3.1564 XXYY=           -853.5843 XXZZ=           -819.4317 YYZZ=           -129.4489
 XXYZ=            -66.9774 YYXZ=              7.6277 ZZXY=              5.6960
 N-N= 6.914679875298D+02 E-N=-2.819427375952D+03  KE= 6.095537571265D+02
 D1PCM: C-PCM CHGder 1st derivatives, ID1Alg=3 FixD1E=F DoIter=F DoCFld=F I1PDM=0.
 Calling FoFJK, ICntrl=      2127 FMM=F ISym2X=0 I1Cent= 0 IOpClX= 0 NMat=1 NMatS=1 NMatT=0.
 ***** Axes restored to original set *****
 -------------------------------------------------------------------
 Center     Atomic                   Forces (Hartrees/Bohr)
 Number     Number              X              Y              Z
 -------------------------------------------------------------------
      1        6           0.004640311   -0.003399481    0.001035781
      2        1          -0.004185858   -0.001591514    0.003238678
      3        6           0.002386249    0.008575212   -0.001096520
      4        1          -0.004203925   -0.009374434   -0.001765973
      5        6          -0.005554757    0.003251881   -0.001579705
      6        1           0.004342293    0.003286096   -0.000529389
      7        6          -0.013525888    0.002827082   -0.001175477
      8        1           0.000284287   -0.001771064   -0.001212614
      9        1           0.003415751   -0.001538712    0.000470514
     10        1           0.000411225    0.000161615    0.001963019
     11        6           0.001964488   -0.010712814    0.000181883
     12        1          -0.000388992    0.004951943   -0.001107776
     13        6           0.011571674    0.010609317    0.000914139
     14        1          -0.003928762    0.000576709    0.007366042
     15        1          -0.002235171    0.000078086   -0.007673924
     16        6          -0.032458893    0.020135806   -0.003729725
     17        6           0.023341454   -0.023001522    0.003430737
     18        1          -0.004501330    0.006017981    0.003659857
     19        1          -0.013008877    0.004113167   -0.001339780
     20        1          -0.004010818    0.005433809   -0.005036253
     21        8           0.018697134   -0.021172556    0.002526514
     22        8           0.013921904   -0.001447083    0.001863190
     23        8          -0.000428154   -0.002274287    0.008180449
     24        1          -0.002496102   -0.001836149   -0.002032172
     25        1           0.004235471    0.004546767   -0.006968457
     26        8          -0.002637901   -0.005037353   -0.009060423
     27        1           0.003731706    0.004014955    0.007241347
     28        1           0.000621481    0.004576541    0.002236037
 -------------------------------------------------------------------
 Cartesian Forces:  Max     0.032458893 RMS     0.007985253

 GradGradGradGradGradGradGradGradGradGradGradGradGradGradGradGradGradGrad
 Berny optimization.
 FormGI is forming the generalized inverse of G from B-inverse, IUseBI=4.
 Internal  Forces:  Max     0.030852206 RMS     0.006389334
 Search for a local minimum.
 Step number   1 out of a maximum of  123
 All quantities printed in internal units (Hartrees-Bohrs-Radians)
 Mixed Optimization -- RFO/linear search
 Second derivative matrix not updated -- first step.
 ITU=  0
     Eigenvalues ---    0.00230   0.00230   0.00771   0.00853   0.00925
     Eigenvalues ---    0.01096   0.01258   0.01272   0.01338   0.01375
     Eigenvalues ---    0.01757   0.01763   0.02104   0.02112   0.02122
     Eigenvalues ---    0.02132   0.02866   0.02893   0.03975   0.04124
     Eigenvalues ---    0.04748   0.06870   0.06979   0.07044   0.07149
     Eigenvalues ---    0.07233   0.07288   0.11134   0.13580   0.15985
     Eigenvalues ---    0.15998   0.15999   0.15999   0.16000   0.16000
     Eigenvalues ---    0.16000   0.16000   0.16000   0.16000   0.16000
     Eigenvalues ---    0.16000   0.16000   0.16000   0.22000   0.22000
     Eigenvalues ---    0.22000   0.22000   0.22060   0.25000   0.25000
     Eigenvalues ---    0.25000   0.25000   0.25000   0.32705   0.32896
     Eigenvalues ---    0.32921   0.33080   0.33134   0.33208   0.33573
     Eigenvalues ---    0.33584   0.33673   0.33692   0.33851   0.34346
     Eigenvalues ---    0.34428   0.34437   0.35142   0.35786   0.36612
     Eigenvalues ---    0.51205   0.52051   0.52613   0.56128   0.56136
     Eigenvalues ---    0.56935   0.57385   0.92175
 RFO step:  Lambda=-1.82333075D-02 EMin= 2.30000000D-03
 Linear search not attempted -- first point.
 Iteration  1 RMS(Cart)=  0.30806710 RMS(Int)=  0.01063165
 Iteration  2 RMS(Cart)=  0.09290155 RMS(Int)=  0.00096361
 Iteration  3 RMS(Cart)=  0.00237894 RMS(Int)=  0.00040639
 Iteration  4 RMS(Cart)=  0.00000128 RMS(Int)=  0.00040639
 Iteration  5 RMS(Cart)=  0.00000000 RMS(Int)=  0.00040639
 Variable       Old X    -DE/DX   Delta X   Delta X   Delta X     New X
                                 (Linear)    (Quad)   (Total)
    R1        2.06614  -0.00224   0.00000  -0.00618  -0.00618   2.05997
    R2        2.76435   0.00995   0.00000   0.02589   0.02589   2.79024
    R3        2.53452   0.00408   0.00000   0.00694   0.00694   2.54146
    R4        2.07853  -0.00995   0.00000  -0.02801  -0.02801   2.05052
    R5        2.53072   0.00424   0.00000   0.00717   0.00717   2.53789
    R6        2.06599  -0.00250   0.00000  -0.00690  -0.00690   2.05909
    R7        2.81185   0.00889   0.00000   0.02505   0.02505   2.83690
    R8        2.08038  -0.00140   0.00000  -0.00396  -0.00396   2.07643
    R9        2.07583  -0.00198   0.00000  -0.00555  -0.00555   2.07027
   R10        2.08056  -0.00129   0.00000  -0.00365  -0.00365   2.07692
   R11        2.06750  -0.00354   0.00000  -0.00978  -0.00978   2.05772
   R12        2.82212   0.00863   0.00000   0.02471   0.02471   2.84683
   R13        2.09191  -0.00726   0.00000  -0.02088  -0.02088   2.07102
   R14        2.09234  -0.00702   0.00000  -0.02023  -0.02023   2.07211
   R15        2.77718  -0.00239   0.00000  -0.00634  -0.00634   2.77083
   R16        2.78745   0.00734   0.00000   0.01985   0.01985   2.80730
   R17        2.58669  -0.01377   0.00000  -0.02597  -0.02597   2.56071
   R18        2.31947   0.00874   0.00000   0.00929   0.00929   2.32876
   R19        2.08687  -0.00593   0.00000  -0.01692  -0.01692   2.06995
   R20        2.09572  -0.01218   0.00000  -0.03528  -0.03528   2.06044
   R21        2.08816  -0.00601   0.00000  -0.01718  -0.01718   2.07098
   R22        3.66969   0.00127   0.00000   0.01930   0.01930   3.68898
   R23        3.82924   0.00058   0.00000   0.00973   0.00973   3.83896
   R24        1.84017   0.00253   0.00000   0.00465   0.00465   1.84481
   R25        1.80836   0.00933   0.00000   0.01610   0.01610   1.82446
   R26        1.80843   0.00903   0.00000   0.01559   0.01559   1.82402
   R27        1.84550  -0.00166   0.00000  -0.00308  -0.00308   1.84242
    A1        1.99736   0.00109   0.00000   0.01147   0.01145   2.00881
    A2        2.11418  -0.00871   0.00000  -0.04356  -0.04358   2.07060
    A3        2.17153   0.00762   0.00000   0.03194   0.03193   2.20345
    A4        2.00118   0.00180   0.00000   0.01174   0.01174   2.01292
    A5        2.17436   0.00232   0.00000   0.00976   0.00976   2.18412
    A6        2.10751  -0.00412   0.00000  -0.02146  -0.02146   2.08605
    A7        2.12430  -0.00772   0.00000  -0.03920  -0.03920   2.08510
    A8        2.15628   0.00586   0.00000   0.02459   0.02459   2.18087
    A9        2.00258   0.00186   0.00000   0.01459   0.01459   2.01717
   A10        1.94119   0.00035   0.00000   0.00146   0.00146   1.94265
   A11        1.98193  -0.00424   0.00000  -0.02276  -0.02276   1.95918
   A12        1.93993   0.00068   0.00000   0.00334   0.00335   1.94328
   A13        1.86646   0.00232   0.00000   0.01391   0.01391   1.88037
   A14        1.86181  -0.00100   0.00000  -0.00753  -0.00753   1.85428
   A15        1.86627   0.00215   0.00000   0.01303   0.01304   1.87931
   A16        2.13779  -0.00972   0.00000  -0.04584  -0.04584   2.09195
   A17        2.17474   0.01232   0.00000   0.05171   0.05171   2.22645
   A18        1.97065  -0.00260   0.00000  -0.00586  -0.00586   1.96479
   A19        1.95918  -0.00676   0.00000  -0.03472  -0.03650   1.92268
   A20        1.95638  -0.00578   0.00000  -0.02767  -0.02956   1.92683
   A21        1.84787   0.02437   0.00000   0.11406   0.11342   1.96129
   A22        1.92977  -0.00038   0.00000  -0.03795  -0.03978   1.88999
   A23        1.87993  -0.00494   0.00000  -0.00090  -0.00085   1.87909
   A24        1.88576  -0.00548   0.00000  -0.00372  -0.00401   1.88176
   A25        2.11791  -0.01933   0.00000  -0.07208  -0.07208   2.04583
   A26        2.21028  -0.01152   0.00000  -0.04294  -0.04295   2.16733
   A27        1.95500   0.03085   0.00000   0.11502   0.11501   2.07002
   A28        1.97313  -0.00517   0.00000  -0.03190  -0.03249   1.94064
   A29        1.94772  -0.00557   0.00000  -0.02619  -0.02642   1.92130
   A30        1.96869  -0.00503   0.00000  -0.03044  -0.03100   1.93769
   A31        1.85350   0.00678   0.00000   0.04200   0.04175   1.89525
   A32        1.85938   0.00370   0.00000   0.01185   0.01097   1.87035
   A33        1.85279   0.00699   0.00000   0.04447   0.04428   1.89707
   A34        2.12396  -0.01071   0.00000  -0.03992  -0.03992   2.08405
   A35        1.98330   0.00004   0.00000   0.00040   0.00038   1.98369
   A36        1.78502   0.00812   0.00000   0.04573   0.04572   1.83073
   A37        2.51407  -0.00815   0.00000  -0.04566  -0.04569   2.46838
   A38        1.84549   0.00001   0.00000   0.00006   0.00006   1.84555
   A39        2.69429   0.00716   0.00000   0.02670   0.02670   2.72099
   A40        1.84148  -0.00164   0.00000  -0.00919  -0.00919   1.83229
   A41        2.81294  -0.00049   0.00000  -0.00183  -0.00183   2.81111
    D1        0.52297  -0.00022   0.00000  -0.00492  -0.00498   0.51798
    D2       -2.60149  -0.00026   0.00000  -0.00663  -0.00672  -2.60820
    D3       -2.60197   0.00024   0.00000   0.00587   0.00595  -2.59601
    D4        0.55676   0.00019   0.00000   0.00416   0.00422   0.56099
    D5       -3.12615   0.00136   0.00000   0.03094   0.03084  -3.09531
    D6        0.00824   0.00126   0.00000   0.02753   0.02748   0.03573
    D7       -0.00227   0.00097   0.00000   0.02003   0.02008   0.01781
    D8        3.13212   0.00087   0.00000   0.01662   0.01672  -3.13434
    D9       -0.00211   0.00117   0.00000   0.02413   0.02416   0.02204
   D10        3.13585   0.00137   0.00000   0.02952   0.02947  -3.11787
   D11       -3.12558   0.00106   0.00000   0.02199   0.02204  -3.10355
   D12        0.01238   0.00126   0.00000   0.02738   0.02735   0.03973
   D13       -2.09076  -0.00024   0.00000  -0.00212  -0.00210  -2.09285
   D14        0.01555   0.00004   0.00000   0.00090   0.00093   0.01648
   D15        2.12069   0.00034   0.00000   0.00420   0.00421   2.12491
   D16        1.04409  -0.00037   0.00000  -0.00552  -0.00554   1.03855
   D17       -3.13279  -0.00009   0.00000  -0.00250  -0.00252  -3.13530
   D18       -1.02765   0.00021   0.00000   0.00079   0.00077  -1.02688
   D19       -2.11786  -0.00534   0.00000  -0.05420  -0.05320  -2.17106
   D20        1.98101   0.00502   0.00000   0.04546   0.04457   2.02558
   D21       -0.07119  -0.00009   0.00000  -0.00450  -0.00468  -0.07587
   D22        1.02042  -0.00517   0.00000  -0.04935  -0.04830   0.97212
   D23       -1.16390   0.00519   0.00000   0.05031   0.04947  -1.11443
   D24        3.06708   0.00008   0.00000   0.00035   0.00022   3.06730
   D25        3.10503   0.00025   0.00000  -0.00077  -0.00085   3.10418
   D26       -1.07899   0.00285   0.00000   0.01927   0.02026  -1.05873
   D27        1.00612  -0.00336   0.00000  -0.02833  -0.02923   0.97689
   D28        1.02525  -0.00152   0.00000  -0.02087  -0.02047   1.00479
   D29        3.11331  -0.00035   0.00000  -0.00761  -0.00744   3.10588
   D30       -1.08581   0.00122   0.00000   0.01007   0.00995  -1.07586
   D31       -2.11698  -0.00124   0.00000  -0.01385  -0.01375  -2.13072
   D32       -0.02892  -0.00007   0.00000  -0.00059  -0.00072  -0.02964
   D33        2.05515   0.00151   0.00000   0.01709   0.01667   2.07182
   D34        0.00719  -0.00058   0.00000  -0.01481  -0.01469  -0.00750
   D35       -3.13385  -0.00082   0.00000  -0.02085  -0.02097   3.12837
   D36        0.02036   0.00007   0.00000   0.00421   0.00430   0.02466
   D37       -3.08903   0.00006   0.00000  -0.00426  -0.00469  -3.09372
   D38       -3.12182   0.00031   0.00000   0.01062   0.01105  -3.11077
   D39        0.05197   0.00030   0.00000   0.00215   0.00206   0.05403
   D40        0.32112  -0.00029   0.00000  -0.00565  -0.00544   0.31568
   D41       -2.87408   0.00043   0.00000   0.01238   0.01218  -2.86190
   D42        2.66190   0.00089   0.00000   0.03737   0.03724   2.69915
   D43       -0.42944   0.00031   0.00000   0.02097   0.02110  -0.40834
   D44        1.97116   0.00048   0.00000   0.01512   0.01512   1.98628
   D45       -0.48672   0.00050   0.00000   0.01571   0.01571  -0.47101
         Item               Value     Threshold  Converged?
 Maximum Force            0.030852     0.000450     NO 
 RMS     Force            0.006389     0.000300     NO 
 Maximum Displacement     1.622349     0.001800     NO 
 RMS     Displacement     0.394881     0.001200     NO 
 Predicted change in Energy=-9.922110D-03
 GradGradGradGradGradGradGradGradGradGradGradGradGradGradGradGradGradGrad

                          Input orientation:                          
 ---------------------------------------------------------------------
 Center     Atomic      Atomic             Coordinates (Angstroms)
 Number     Number       Type             X           Y           Z
 ---------------------------------------------------------------------
      1          6           0       -3.483492    0.389388   -0.257904
      2          1           0       -3.788718    1.316690   -0.742921
      3          6           0       -2.025117    0.168801   -0.189881
      4          1           0       -1.421214    1.068965   -0.140653
      5          6           0       -4.434349   -0.420270    0.241129
      6          1           0       -4.142754   -1.328996    0.766930
      7          6           0       -5.911846   -0.171468    0.147513
      8          1           0       -6.367995   -0.096298    1.144323
      9          1           0       -6.143588    0.751079   -0.396007
     10          1           0       -6.425019   -0.997954   -0.363859
     11          6           0       -1.423505   -1.031838   -0.202334
     12          1           0       -2.022219   -1.937375   -0.287483
     13          6           0        0.051945   -1.320871   -0.107531
     14          1           0        0.374703   -1.923091   -0.964408
     15          1           0        0.273714   -1.880175    0.809167
     16          6           0        2.206455   -0.191364    0.032519
     17          6           0        2.783773   -1.554170    0.160369
     18          1           0        2.512338   -2.181089   -0.695864
     19          1           0        3.871047   -1.496285    0.217981
     20          1           0        2.410584   -2.056388    1.060113
     21          8           0        0.860509   -0.097780   -0.093537
     22          8           0        2.872888    0.845207    0.028294
     23          8           0        5.622007    0.021828    0.114815
     24          1           0        4.796318    0.540381    0.163540
     25          1           0        6.132280    0.409071   -0.607531
     26          8           0        1.090854    3.221854    0.009893
     27          1           0        1.525422    3.627245    0.770471
     28          1           0        1.506073    2.344261   -0.079466
 ---------------------------------------------------------------------
                    Distance matrix (angstroms):
                    1          2          3          4          5
     1  C    0.000000
     2  H    1.090088   0.000000
     3  C    1.476531   2.175728   0.000000
     4  H    2.174525   2.455436   1.085088   0.000000
     5  C    1.344883   2.098148   2.517374   3.382685   0.000000
     6  H    2.106598   3.066699   2.764646   3.739077   1.089622
     7  C    2.525039   2.741379   3.916156   4.667706   1.501221
     8  H    3.243839   3.494409   4.550930   5.242102   2.158635
     9  H    2.688123   2.446565   4.164534   4.739944   2.167833
    10  H    3.254002   3.528647   4.555296   5.418490   2.159282
    11  C    2.503302   3.376692   1.342992   2.101709   3.104168
    12  H    2.747730   3.730533   2.108438   3.069339   2.898173
    13  C    3.930256   4.702248   2.557360   2.807598   4.589061
    14  H    4.553283   5.280087   3.276438   3.585567   5.180616
    15  H    4.517317   5.397432   3.237441   3.531624   4.961839
    16  C    5.726877   6.230380   4.252691   3.844269   6.648022
    17  C    6.575028   7.228791   5.120228   4.965216   7.307089
    18  H    6.538283   7.206940   5.134832   5.132635   7.227372
    19  H    7.607331   8.216335   6.140327   5.892127   8.374840
    20  H    6.516067   7.284225   5.117558   5.088453   7.085247
    21  O    4.374322   4.902829   2.899514   2.563157   5.315216
    22  O    6.379126   6.722653   4.949301   4.303246   7.419059
    23  O    9.120533   9.538035   7.654603   7.125217  10.066861
    24  H    8.291904   8.667593   6.840684   6.247371   9.280845
    25  H    9.622147   9.963348   8.171615   7.596625  10.633047
    26  O    5.386948   5.292126   4.366957   3.311809   6.621661
    27  H    6.052313   5.989082   5.048707   4.007195   7.223673
    28  H    5.361822   5.434233   4.148991   3.193609   6.560033
                    6          7          8          9         10
     6  H    0.000000
     7  C    2.203006   0.000000
     8  H    2.571706   1.098797   0.000000
     9  H    3.111667   1.095541   1.772293   0.000000
    10  H    2.568464   1.099058   1.758082   1.771823   0.000000
    11  C    2.902083   4.583430   5.209290   5.049306   5.004236
    12  H    2.445113   4.293814   4.932079   4.921915   4.502554
    13  C    4.284886   6.078896   6.654499   6.539176   6.490073
    14  H    4.874207   6.620064   7.297116   7.068408   6.888597
    15  H    4.450929   6.451249   6.885263   7.039724   6.857647
    16  C    6.491996   8.119139   8.646753   8.413980   8.678136
    17  C    6.956680   8.804875   9.319250   9.236965   9.240457
    18  H    6.867028   8.701536   9.305534   9.143992   9.021440
    19  H    8.034322   9.872441  10.375744  10.282050  10.324527
    20  H    6.600098   8.581876   8.995137   9.120089   9.011984
    21  O    5.223881   6.777043   7.333728   7.061828   7.345904
    22  O    7.381867   8.844172   9.355526   9.026945   9.486944
    23  O    9.879298  11.535518  12.034699  11.799236  12.099583
    24  H    9.152358  10.731810  11.225381  10.956232  11.338564
    25  H   10.511248  12.081725  12.632548  12.282453  12.638230
    26  O    6.976674   7.782761   8.242056   7.655497   8.627561
    27  H    7.529446   8.374440   8.735592   8.273253   9.267615
    28  H    6.791057   7.836194   8.333963   7.820214   8.611243
                   11         12         13         14         15
    11  C    0.000000
    12  H    1.088901   0.000000
    13  C    1.506480   2.171317   0.000000
    14  H    2.146775   2.490717   1.095938   0.000000
    15  H    2.150200   2.545039   1.096512   1.776966   0.000000
    16  C    3.733385   4.586136   2.436660   2.710730   2.681558
    17  C    4.255065   4.842002   2.754829   2.684184   2.612971
    18  H    4.129795   4.559428   2.672011   2.169830   2.714241
    19  H    5.331478   5.931327   3.836961   3.715458   3.665744
    20  H    4.164579   4.634644   2.732683   2.874242   2.158759
    21  O    2.470024   3.425178   1.466261   2.079949   2.082339
    22  O    4.694196   5.639552   3.559222   3.858738   3.846190
    23  O    7.130921   7.901551   5.733922   5.699266   5.718739
    24  H    6.425880   7.268779   5.103607   5.185715   5.170094
    25  H    7.702616   8.491413   6.341386   6.222221   6.447517
    26  O    4.945800   6.033017   4.661487   5.285130   5.228504
    27  H    5.599070   6.683564   5.236972   5.927917   5.648004
    28  H    4.471641   5.551984   3.943155   4.502601   4.489348
                   16         17         18         19         20
    16  C    0.000000
    17  C    1.485558   0.000000
    18  H    2.140820   1.095372   0.000000
    19  H    2.123225   1.090337   1.774869   0.000000
    20  H    2.139143   1.095917   1.763338   1.776473   0.000000
    21  O    1.355072   2.425796   2.726081   3.334097   2.751325
    22  O    1.232327   2.404661   3.132550   2.552428   3.114102
    23  O    3.423188   3.246755   3.896163   2.319735   3.940280
    24  H    2.694440   2.904735   3.655344   2.237654   3.638513
    25  H    4.022722   3.956827   4.452046   3.070020   4.765559
    26  O    3.590980   5.069421   5.631208   5.480293   5.541163
    27  H    3.948437   5.366818   6.071317   5.661958   5.759436
    28  H    2.632959   4.109478   4.676678   4.520108   4.634922
                   21         22         23         24         25
    21  O    0.000000
    22  O    2.225699   0.000000
    23  O    4.767555   2.871079   0.000000
    24  H    3.995489   1.952125   0.976234   0.000000
    25  H    5.320965   3.349347   0.965464   1.548092   0.000000
    26  O    3.329223   2.970595   5.548200   4.576502   5.805940
    27  H    3.881293   3.179029   5.496446   4.538266   5.786076
    28  H    2.525969   2.031492   4.729942   3.760152   5.042381
                   26         27         28
    26  O    0.000000
    27  H    0.965231   0.000000
    28  H    0.974967   1.539096   0.000000
 Stoichiometry    C8H16O4
 Framework group  C1[X(C8H16O4)]
 Deg. of freedom    78
 Full point group                 C1      NOp   1
 Largest Abelian subgroup         C1      NOp   1
 Largest concise Abelian subgroup C1      NOp   1
                         Standard orientation:                         
 ---------------------------------------------------------------------
 Center     Atomic      Atomic             Coordinates (Angstroms)
 Number     Number       Type             X           Y           Z
 ---------------------------------------------------------------------
      1          6           0       -3.501329    0.494555   -0.245698
      2          1           0       -3.771245    1.434508   -0.727287
      3          6           0       -2.052603    0.216281   -0.183241
      4          1           0       -1.413405    1.091721   -0.133774
      5          6           0       -4.481806   -0.278208    0.254513
      6          1           0       -4.224640   -1.199171    0.776978
      7          6           0       -5.948607    0.029084    0.166600
      8          1           0       -6.398110    0.119545    1.165158
      9          1           0       -6.145480    0.961538   -0.373754
     10          1           0       -6.495770   -0.775078   -0.345128
     11          6           0       -1.499001   -1.007174   -0.200835
     12          1           0       -2.133348   -1.888090   -0.286254
     13          6           0       -0.035832   -1.354587   -0.111832
     14          1           0        0.260001   -1.966787   -0.971352
     15          1           0        0.166684   -1.924696    0.802663
     16          6           0        2.162125   -0.311554    0.023728
     17          6           0        2.685504   -1.696466    0.146102
     18          1           0        2.386638   -2.309847   -0.710800
     19          1           0        3.774402   -1.681782    0.200135
     20          1           0        2.295733   -2.185958    1.045830
     21          8           0        0.820523   -0.164473   -0.097473
     22          8           0        2.869023    0.697857    0.019878
     23          8           0        5.583692   -0.233832    0.094863
     24          1           0        4.779328    0.316836    0.147747
     25          1           0        6.106480    0.134875   -0.628233
     26          8           0        1.182346    3.143163    0.013681
     27          1           0        1.635136    3.528997    0.773802
     28          1           0        1.562227    2.250080   -0.079352
 ---------------------------------------------------------------------
 Rotational constants (GHZ):      1.6832615      0.2580117      0.2258360
 Standard basis: 6-31+G(d,p) (6D, 7F)
 There are   308 symmetry adapted cartesian basis functions of A   symmetry.
 There are   308 symmetry adapted basis functions of A   symmetry.
   308 basis functions,   496 primitive gaussians,   308 cartesian basis functions
    48 alpha electrons       48 beta electrons
       nuclear repulsion energy       676.1965880409 Hartrees.
 NAtoms=   28 NActive=   28 NUniq=   28 SFac= 1.00D+00 NAtFMM=   60 NAOKFM=F Big=F
 Integral buffers will be    131072 words long.
 Raffenetti 2 integral format.
 Two-electron integral symmetry is turned on.
 Nuclear repulsion after empirical dispersion term =      676.1765175751 Hartrees.
 ------------------------------------------------------------------------------
 Polarizable Continuum Model (PCM)
 =================================
 Model                : C-PCM.
 Atomic radii         : UFF (Universal Force Field).
 Polarization charges : Total charges.
 Charge compensation  : None.
 Solution method      : On-the-fly selection.
 Cavity type          : Scaled VdW (van der Waals Surface) (Alpha=1.100).
 Cavity algorithm     : GePol (No added spheres)
                        Default sphere list used, NSphG=   28.
                        Lebedev-Laikov grids with approx.  5.0 points / Ang**2.
                        Smoothing algorithm: Karplus/York (Gamma=1.0000).
                        Polarization charges: spherical gaussians, with
                                              point-specific exponents (IZeta= 3).
                        Self-potential: point-specific (ISelfS= 7).
                        Self-field    : sphere-specific E.n sum rule (ISelfD= 2).
 1st derivatives      : Analytical E(r).r(x)/FMM algorithm (CHGder, D1EAlg=3).
                        Cavity 1st derivative terms included.
 Solvent              : Water, Eps=  78.355300 Eps(inf)=   1.777849
 ------------------------------------------------------------------------------
 One-electron integrals computed using PRISM.
 NBasis=   308 RedAO= T EigKep=  4.00D-06  NBF=   308
 NBsUse=   308 1.00D-06 EigRej= -1.00D+00 NBFU=   308
 Initial guess from the checkpoint file:  "b3lyp_PM6_2H2O_diene_pm6_cpcmtoluene_1_water.chk"
 B after Tr=     0.000000    0.000000    0.000000
         Rot=    0.999679   -0.005274   -0.000701    0.024787 Ang=  -2.91 deg.
 ExpMin= 4.38D-02 ExpMax= 5.48D+03 ExpMxC= 8.25D+02 IAcc=2 IRadAn=         4 AccDes= 0.00D+00
 Harris functional with IExCor=  402 and IRadAn=       4 diagonalized for initial guess.
 HarFok:  IExCor=  402 AccDes= 0.00D+00 IRadAn=         4 IDoV= 1 UseB2=F ITyADJ=14
 ICtDFT=  3500011 ScaDFX=  1.000000  1.000000  1.000000  1.000000
 FoFCou: FMM=F IPFlag=           0 FMFlag=      100000 FMFlg1=           0
         NFxFlg=           0 DoJE=T BraDBF=F KetDBF=T FulRan=T
         wScrn=  0.000000 ICntrl=     500 IOpCl=  0 I1Cent=   200000004 NGrid=           0
         NMat0=    1 NMatS0=      1 NMatT0=    0 NMatD0=    1 NMtDS0=    0 NMtDT0=    0
 Petite list used in FoFCou.
 Requested convergence on RMS density matrix=1.00D-08 within 128 cycles.
 Requested convergence on MAX density matrix=1.00D-06.
 Requested convergence on             energy=1.00D-06.
 No special actions if energy rises.
 Inv3:  Mode=1 IEnd=    16091568.
 Iteration    1 A*A^-1 deviation from unit magnitude is 6.99D-15 for   2310.
 Iteration    1 A*A^-1 deviation from orthogonality  is 4.17D-15 for   2310   1837.
 Iteration    1 A^-1*A deviation from unit magnitude is 6.77D-15 for   2310.
 Iteration    1 A^-1*A deviation from orthogonality  is 1.85D-15 for   2122     98.
 Error on total polarization charges =  0.01902
 SCF Done:  E(RB3LYP) =  -615.449894686     A.U. after   14 cycles
            NFock= 14  Conv=0.37D-08     -V/T= 2.0098
 D1PCM: C-PCM CHGder 1st derivatives, ID1Alg=3 FixD1E=F DoIter=F DoCFld=F I1PDM=0.
 Calling FoFJK, ICntrl=      2127 FMM=F ISym2X=0 I1Cent= 0 IOpClX= 0 NMat=1 NMatS=1 NMatT=0.
 ***** Axes restored to original set *****
 -------------------------------------------------------------------
 Center     Atomic                   Forces (Hartrees/Bohr)
 Number     Number              X              Y              Z
 -------------------------------------------------------------------
      1        6           0.003112051   -0.001037770    0.000378071
      2        1          -0.000709841    0.000575750    0.000413600
      3        6          -0.003294635   -0.001855607    0.000243591
      4        1           0.003149008    0.000992247   -0.000750976
      5        6          -0.001389479    0.000397585   -0.000711250
      6        1           0.001358854   -0.000098726    0.000593368
      7        6          -0.002489262    0.000963035   -0.000641734
[...]
 0,0.00267171,0.01449388,0.01819545,0.00842259,-0.02683462,0.00683666,-
 0.05384275,-0.00600374,0.00030647,0.01752080,-0.00255892,0.00243835,-0
 .00030655,-0.00032318,0.00097509,0.00225909,0.00258922,-0.00287616,0.0
 0020794,0.05802119,0.01840881,0.06915078,0.00011708,-0.00035188,0.0001
 8684,-0.00026172,0.00013656,-0.00006338,-0.00007076,0.00044117,-0.0000
 6464,0.00043371,-0.00033631,0.00001286,-0.00015243,0.00029731,-0.00000
 548,0.00004972,0.00000042,-0.00003345,-0.00009958,-0.00019709,0.000035
 42,-0.00012001,0.00005344,0.00002598,-0.00002933,0.00004522,-0.0000208
 9,-0.00015375,0.00004306,-0.00004087,0.00006801,-0.00426794,-0.0002809
 0,-0.00160715,0.00054604,-0.00010717,0.00489772,0.01361238,0.00001744,
 -0.00203212,-0.00265882,-0.00079670,-0.00178784,-0.00226404,0.00033619
 ,-0.18900611,-0.20756868,-0.01618546,0.01260475,0.00529696,-0.00089971
 ,0.00065416,0.00265952,0.00030355,0.00245371,-0.00080791,0.00022317,0.
 00020214,0.00307769,-0.00030201,-0.08926122,-0.07711068,-0.01303313,0.
 28242885,0.00011248,-0.00035522,0.00019387,-0.00025079,0.00013299,-0.0
 0006027,-0.00043300,0.00034860,-0.00010682,0.00031863,-0.00053496,-0.0
 0000644,-0.00016138,0.00029433,-0.00000331,0.00004232,-0.00000485,-0.0
 0002732,-0.00009872,-0.00019062,0.00002986,-0.00011386,0.00005072,0.00
 002483,-0.00002619,0.00004245,-0.00002046,-0.00014658,0.00004243,-0.00
 003863,0.00057721,-0.00273124,-0.00010323,-0.00118510,0.00029442,-0.00
 010624,0.00752189,0.01246870,0.00069229,-0.00152703,-0.00166702,-0.000
 23649,-0.00116792,-0.00125800,0.00003250,-0.18032055,-0.53782910,-0.02
 792995,-0.01953692,-0.05006412,-0.00289836,0.00278132,-0.00509133,0.00
 206564,-0.00136873,0.00151595,-0.00036879,0.00239539,-0.00423540,-0.00
 157385,-0.07644521,-0.00706741,-0.00883178,0.26274089,0.60114834,0.000
 02154,-0.00004866,0.00004141,-0.00003064,0.00001750,-0.00000743,-0.000
 00735,0.00002977,0.00003893,0.00006175,-0.00004042,0.00001496,-0.00001
 767,0.00004265,-0.00000480,0.00000607,-0.00000003,-0.00000384,-0.00001
 411,-0.00002844,-0.00000050,-0.00001429,0.00000649,0.00000383,-0.00000
 354,0.00000538,-0.00000267,-0.00002023,0.00000605,-0.00000433,-0.00006
 310,-0.00072180,0.00015892,-0.00022044,0.00009268,-0.00019979,-0.00031
 576,0.00165865,0.00774273,0.00070114,0.00066287,-0.00030404,-0.0009398
 2,-0.00110154,-0.00034343,-0.01585213,-0.03147075,-0.07638996,-0.00135
 488,0.00040618,0.02702253,-0.00218569,0.00357706,-0.00137461,0.0000988
 3,0.00011334,-0.00036380,0.00233381,-0.00373816,-0.00110182,-0.0128181
 0,-0.00896036,0.01126639,0.03129394,0.03893820,0.03880373,0.00001312,-
 0.00005724,0.00002161,-0.00003367,0.00001798,-0.00000825,-0.00004402,0
 .00006630,-0.00000750,0.00005889,-0.00005971,0.00000125,-0.00002070,0.
 00004013,-0.00000227,0.00000600,-0.00000063,-0.00000364,-0.00001364,-0
 .00002667,0.00000599,-0.00001615,0.00000728,0.00000366,-0.00000364,0.0
 0000604,-0.00000269,-0.00002036,0.00000553,-0.00000549,0.00004340,-0.0
 0036160,-0.00002794,-0.00017191,0.00004312,-0.00001144,0.00071733,0.00
 136803,0.00003886,-0.00015958,-0.00026596,-0.00004535,-0.00011358,-0.0
 0021319,0.00001071,0.00482187,0.01006307,0.00097399,-0.00000566,-0.000
 92721,0.00009633,-0.00001793,-0.00019847,-0.00000108,-0.00003148,0.000
 56777,-0.00001017,-0.00000613,-0.00022041,-0.00002141,-0.00579674,-0.0
 0273224,-0.00085232,-0.01798839,-0.00869765,-0.00033313,0.56921113,0.0
 0000227,-0.00000985,0.00000937,-0.00000900,0.00000473,-0.00000233,-0.0
 0002730,0.00001013,-0.00000694,0.00000940,-0.00001313,-0.00000031,-0.0
 0000587,0.00000985,-0.00000045,0.00000179,-0.00000011,-0.00000104,-0.0
 0000344,-0.00000684,0.00000072,-0.00000391,0.00000166,0.00000091,-0.00
 000099,0.00000161,-0.00000088,-0.00000510,0.00000151,-0.00000132,0.000
 03288,-0.00002182,0.00000339,-0.00003097,0.00000424,-0.00000251,0.0001
 7707,0.00021529,0.00002320,-0.00001347,-0.00004577,0.00002145,0.000004
 16,-0.00003103,-0.00002271,0.00214195,0.00043520,0.00019434,0.00060754
 ,-0.00035379,0.00012800,-0.00034517,-0.00005033,-0.00001652,0.00011241
 ,0.00103304,-0.00009915,-0.00034735,-0.00005223,-0.00002505,-0.0010219
 0,-0.00000658,-0.00015693,-0.00302092,0.00212788,-0.00015216,0.0411794
 6,0.01918959,-0.00000138,0.00000203,-0.00000438,0.00000201,-0.00000115
 ,0.00000025,0.00000574,-0.00000397,0.00000107,-0.00000301,0.00000308,-
 0.00000145,-0.00000052,-0.00000378,-0.00000055,-0.00000026,0.00000004,
 0.00000003,0.00000040,0.00000342,0.00000045,0.00000082,-0.00000037,-0.
 00000010,0.00000023,-0.00000033,0.00000009,0.00000120,-0.00000025,0.00
 000020,-0.00000534,0.00001899,0.00000033,0.00000993,-0.00000298,0.0000
 0502,0.00000413,-0.00003843,-0.00015912,-0.00001403,-0.00000724,0.0000
 0320,0.00002467,0.00002585,0.00000693,-0.00054067,-0.00040645,0.000450
 75,0.00000346,0.00008837,0.00028914,0.00006557,0.00003645,-0.00000580,
 -0.00000189,-0.00010881,-0.00036544,-0.00004031,-0.00000147,-0.0000146
 4,0.00035658,0.00011707,-0.00024233,0.00098109,0.00011003,0.00305325,-
 0.10596635,-0.08401148,0.50647527,-0.00002164,0.00009505,-0.00003862,0
 .00005794,-0.00003077,0.00001417,0.00007177,-0.00010587,0.00001409,-0.
 00009892,0.00010474,-0.00000148,0.00003817,-0.00006832,0.00000258,-0.0
 0001034,0.00000101,0.00000646,0.00002302,0.00004583,-0.00001069,0.0000
 2776,-0.00001241,-0.00000603,0.00000641,-0.00001024,0.00000464,0.00003
 466,-0.00000963,0.00000940,-0.00008389,0.00065674,0.00004282,0.0003007
 3,-0.00007141,0.00002424,-0.00123467,-0.00238052,-0.00016409,0.0002757
 6,0.00045154,0.00011001,0.00023229,0.00039162,-0.00003912,-0.01183024,
 -0.01806980,-0.00153351,0.00059253,0.00149548,-0.00006927,-0.00027208,
 0.00046769,-0.00000376,0.00016106,-0.00025257,-0.00000869,-0.00025504,
 0.00047937,0.00001238,0.01058007,0.00460625,0.00129855,0.00662348,0.01
 242208,0.00111772,-0.46003019,-0.01742076,-0.01051522,0.46787700,-0.00
 000247,0.00001533,-0.00001076,0.00001306,-0.00000699,0.00000346,0.0000
 4061,-0.00001466,0.00000705,-0.00001891,0.00002044,0.00000042,0.000008
 68,-0.00001498,-0.00000239,-0.00000241,0.00000047,0.00000134,0.0000053
 3,0.00000956,-0.00000096,0.00000602,-0.00000260,-0.00000132,0.00000132
 ,-0.00000219,0.00000126,0.00000805,-0.00000249,0.00000194,-0.00003611,
 0.00005527,0.00000368,0.00005034,-0.00000854,0.00000439,-0.00027773,-0
 .00034418,-0.00004696,0.00002949,0.00008690,-0.00001690,0.00001281,0.0
 0006665,0.00002491,-0.00656001,-0.00258554,-0.00064666,-0.00098768,0.0
 0010607,-0.00002259,0.00038699,0.00014071,0.00001848,-0.00013401,-0.00
 250521,-0.00002817,0.00035123,0.00014661,0.00002125,0.00188163,0.00016
 298,0.00026326,0.00609251,-0.00409844,0.00037129,-0.00831636,-0.008793
 98,0.00648888,0.01529592,0.01786292,-0.00000028,0.00000506,-0.00000318
 ,0.00000113,-0.00000047,0.00000029,-0.00000088,-0.00000491,0.00000796,
 -0.00000370,0.00000295,0.00000284,0.00000207,-0.00000175,0.00000139,-0
 .00000005,0.00000012,0.00000020,0.00000125,-0.00000100,-0.00000122,0.0
 0000063,-0.00000022,-0.00000010,0.,-0.00000015,0.00000017,0.00000060,-
 0.00000012,0.00000035,-0.00000390,0.00000891,0.00000626,0.00000365,-0.
 00000037,-0.00000976,-0.00008838,-0.00007084,0.00033824,0.00005123,0.0
 0005802,-0.00000234,-0.00003145,-0.00002498,-0.00001535,-0.00035778,-0
 .00046208,-0.00072345,0.00010940,0.00004441,-0.00054891,-0.00004393,-0
 .00005910,0.00002539,-0.00001989,-0.00001281,0.00023481,0.00001303,0.0
 0009075,0.00002841,0.00017799,0.00001781,0.00064598,-0.00000348,0.0003
 2551,-0.00491733,-0.06337293,0.00413702,-0.05045020,0.01728658,-0.0060
 9307,0.05622533,0.00000022,0.00000013,0.00000126,-0.00000023,0.0000001
 1,-0.00000004,-0.00000047,-0.00000023,-0.00000092,0.00000028,0.0000001
 3,0.00000018,-0.00000002,0.00000048,0.00000058,0.,0.,-0.00000005,0.000
 00012,-0.00000045,-0.00000026,0.00000005,-0.00000005,-0.00000005,-0.00
 000002,-0.00000002,-0.00000002,0.00000002,0.00000004,0.00000007,-0.000
 00166,-0.00000962,0.00000178,-0.00000242,0.00000149,-0.00000182,-0.000
 01758,0.00000079,0.00004688,0.00000418,0.00000333,-0.00000270,-0.00000
 810,-0.00000801,-0.00000187,0.00001229,0.00027398,-0.00015846,-0.00000
 030,-0.00000860,-0.00004492,0.00001509,-0.00000337,0.00000443,-0.00004
 793,-0.00007666,0.00003674,0.00002439,0.00000555,0.00000170,-0.0000722
 8,-0.00009551,0.00007763,-0.00105751,-0.00008109,-0.00104682,-0.090739
 65,-0.02203763,0.11566952,-0.01249930,-0.00775337,0.04628388,0.1043566
 1,-0.00000025,0.00000047,-0.00000051,0.00000066,-0.00000036,0.00000026
 ,0.00000159,-0.00000019,0.00000087,-0.00000089,0.00000112,-0.00000009,
 0.00000042,-0.00000015,0.00000066,-0.00000010,-0.00000004,0.00000013,0
 .00000019,0.00000054,-0.00000019,0.00000027,-0.00000009,-0.00000008,0.
 00000009,-0.00000015,0.00000009,0.00000028,-0.00000009,0.00000008,-0.0
 0000249,0.00000245,-0.00000277,0.00000213,-0.00000045,0.00000013,-0.00
 001071,-0.00001660,0.00000765,0.00000388,0.00000248,-0.00000014,-0.000
 00120,0.00000245,-0.00000192,-0.00006070,-0.00005709,0.00002462,-0.000
 02373,-0.00003557,-0.00010123,-0.00000542,0.00000502,0.00000201,-0.000
 02961,-0.00003277,0.00011213,0.00001913,0.00000624,0.00000281,0.000076
 02,0.00002098,0.00002235,0.00008155,0.00016042,-0.00006931,-0.03058360
 ,-0.01350356,0.07765268,0.00073341,-0.00059188,0.00201079,0.02980686,0
 .01403019,0.00000090,-0.00000313,0.00000219,-0.00000252,0.00000139,-0.
 00000047,-0.00000464,0.00000449,-0.00000149,0.00000453,-0.00000441,0.0
 0000082,-0.00000124,0.00000389,-0.00000028,0.00000046,-0.00000005,-0.0
 0000025,-0.00000104,-0.00000252,0.00000031,-0.00000115,0.00000053,0.00
 000024,-0.00000029,0.00000043,-0.00000018,-0.00000151,0.00000039,-0.00
 000039,0.00000674,-0.00002306,-0.00000235,-0.00001257,0.00000248,-0.00
 000091,0.00004128,0.00007997,0.00001117,-0.00001064,-0.00001832,-0.000
 00153,-0.00000617,-0.00001420,-0.00000008,0.00052923,0.00054130,0.0000
 5711,-0.00002527,-0.00009348,-0.00000881,-0.00002305,-0.00001997,-0.00
 000199,0.00003505,0.00014730,0.00000339,-0.00001795,-0.00002302,-0.000
 00019,-0.00042568,-0.00012906,-0.00002497,-0.00122235,-0.00038379,-0.0
 0016940,0.16949853,0.07997795,-0.45905534,-0.00752014,-0.00033604,-0.0
 0085266,-0.16086501,-0.07965482,0.46003724,0.00000994,-0.00020373,0.00
 000370,0.00000355,0.00001467,0.00000182,0.00035622,0.00037442,0.000004
 69,-0.00003798,0.00035228,-0.00004276,-0.00005198,0.00003581,-0.000013
 58,0.00000477,-0.00000680,-0.00000299,-0.00000509,-0.00000956,0.000020
 52,-0.00001678,0.00000503,0.00000178,0.00000055,0.00000367,-0.00000176
 ,-0.00000794,-0.00000097,-0.00000193,-0.00021666,0.00002053,0.00000265
 ,0.00006950,-0.00010076,-0.00000066,-0.00002534,-0.00039058,-0.0000051
 5,0.00005285,0.00002840,0.00000406,0.00003259,0.00000811,-0.00000170,-
 0.00689580,-0.00245142,-0.00083061,0.00073050,0.00078735,0.00013694,-0
 .00009450,0.00025054,-0.00004203,0.00008184,-0.00010994,0.00001156,-0.
 00007801,0.00021179,0.00001937,0.00250108,-0.00056960,0.00025033,0.000
 05915,0.01043836,-0.00001556,-0.00040006,-0.00005998,0.00001445,0.0007
 1296,0.00014249,0.00000758,0.00001005,0.00000017,-0.00002236,0.4304952
 3,0.00001421,-0.00037517,0.00002988,-0.00005152,0.00004212,-0.00001692
 ,0.00020784,0.00052179,-0.00001048,0.00047033,0.00026959,-0.00002979,-
 0.00010281,0.00010526,-0.00002691,0.00001326,-0.00000939,-0.00001009,-
 0.00002882,-0.00005152,0.00004565,-0.00004310,0.00001551,0.00000648,-0
 .00000454,0.00001270,-0.00000659,-0.00003604,0.00000725,-0.00000942,-0
 .00011284,-0.00040005,-0.00002539,-0.00012803,-0.00008674,-0.00001814,
 0.00106599,0.00123324,0.00018003,-0.00011148,-0.00029370,-0.00005696,-
 0.00010514,-0.00028403,0.00000930,0.00650777,0.00604857,0.00079582,-0.
 00067657,-0.00131275,-0.00005147,0.00011633,-0.00034759,0.00003764,-0.
 00006675,0.00008356,-0.00001330,0.00010842,-0.00032920,-0.00002729,-0.
 00357600,-0.00162484,-0.00033811,0.00678583,-0.01392974,0.00031930,0.0
 0086686,0.00019699,-0.00004808,-0.00159389,-0.00044547,-0.00001536,0.0
 0000899,-0.00000829,0.00005811,0.01692559,0.65694666,-0.00000616,-0.00
 002445,0.00001122,0.00000170,0.00000059,-0.00000343,0.00003622,0.00004
 060,-0.00004679,-0.00004784,-0.00005915,-0.00022460,-0.00000235,0.0000
 0917,0.00000219,-0.00000004,-0.00000157,-0.00000112,-0.00000125,-0.000
 00519,0.00000327,-0.00000263,0.00000054,0.00000053,0.00000011,0.000000
 30,-0.00000054,-0.00000109,0.00000100,-0.00000014,-0.00002463,-0.00000
 717,0.00004947,0.00000516,-0.00000997,-0.00000590,0.00001531,-0.000017
 45,0.00005032,0.00000670,0.00000932,0.00000182,-0.00000255,-0.00001602
 ,-0.00000042,-0.00064548,-0.00016988,0.00001304,0.00010205,0.00005880,
 -0.00040753,0.00002050,-0.00003952,0.00001382,0.00001035,-0.00001169,0
 .00001046,-0.00003498,0.00008604,0.00001551,0.00018573,0.00001155,0.00
 023981,-0.00016136,0.00085085,0.00248308,-0.00002674,-0.00000873,0.000
 01323,0.00005109,0.00001688,0.00000215,-0.00000483,0.00000535,-0.00000
 459,0.03870401,0.00311524,0.00810878,0.00000015,-0.00007335,-0.0000103
 0,-0.00000185,0.00000367,-0.00000034,0.00009026,0.00011183,0.00000818,
 0.00000291,-0.00000244,-0.00000845,-0.00001732,0.00001280,-0.00000769,
 0.00000133,-0.00000194,-0.00000142,-0.00000332,-0.00000415,0.00001244,
 -0.00000550,0.00000162,0.00000025,-0.00000020,0.00000121,-0.00000050,-
 0.00000221,0.00000015,-0.00000090,-0.00006962,-0.00003723,-0.00000415,
 0.00001622,-0.00002979,0.00000053,-0.00013308,-0.00010259,-0.00002055,
 0.00002014,0.00001711,0.00000318,0.00002164,0.00001924,0.00000120,-0.0
 0025362,-0.00076262,-0.00002128,0.00001501,0.00011671,-0.00000557,-0.0
 0000698,0.00001670,0.00000299,0.00000669,-0.00000691,0.00000145,-0.000
 00632,0.00001549,-0.00000260,0.00036385,0.00018166,0.00003262,-0.00125
 317,0.00108288,-0.00012319,-0.00005442,-0.00002702,0.00000616,0.000121
 27,0.00003922,0.00000450,-0.00000261,0.00000087,-0.00000459,-0.2148254
 7,-0.25631493,-0.02005194,0.20244786,-0.00000337,0.00000925,0.00000305
 ,0.00000164,-0.00000040,0.00000149,0.00005438,0.00007331,-0.00000299,-
 0.00003305,-0.00007054,0.00000433,0.00000345,-0.00000101,-0.00000207,-
 0.00000004,0.00000020,0.00000042,0.00000096,0.00000055,-0.00000176,0.0
 0000124,-0.00000045,-0.00000035,0.00000003,-0.00000037,0.00000026,0.00
 000087,-0.00000023,0.00000028,0.00002572,-0.00001238,0.00000713,-0.000
 00554,0.00000503,0.00000101,0.00006386,0.00002228,0.00000737,-0.000005
 60,-0.00000892,0.00000164,-0.00000659,-0.00001037,-0.00000420,-0.00049
 908,0.00008720,-0.00005827,0.00004022,0.00003152,0.00000778,-0.0000051
 6,0.00001050,-0.00000209,0.00000554,-0.00000492,0.00000046,-0.00000456
 ,0.00000862,0.00000153,0.00008096,-0.00013067,0.00000114,0.00099602,0.
 00029809,0.00009991,-0.00001184,0.00001253,0.00000010,-0.00000057,-0.0
 0000725,-0.00000218,0.00000248,0.00000007,-0.00000118,-0.20200542,-0.3
 4708485,-0.01907547,0.23028183,0.37415000,0.00000154,-0.00000741,0.000
 00479,-0.00000058,0.00000092,0.00000019,0.00000868,0.00000999,0.000064
 15,0.00000535,0.00000655,-0.00003231,-0.00000304,0.00000112,-0.0000033
 6,0.00000019,0.00000006,-0.00000017,-0.00000061,0.00000002,0.00000029,
 -0.00000021,0.00000020,-0.00000007,-0.00000004,0.00000019,0.00000003,-
 0.00000018,-0.00000029,-0.00000006,-0.00000396,0.00000055,-0.00001338,
 0.00000125,-0.00000167,-0.00000785,-0.00000600,-0.00000787,0.00000332,
 0.00000423,0.00000465,-0.00000029,-0.00000213,-0.00000414,-0.00000151,
 -0.00002232,-0.00006083,-0.00010642,0.00000459,0.00001129,-0.00001972,
 0.00000024,-0.00000250,0.00000078,0.00000090,-0.00000095,-0.00000048,-
 0.00000211,0.00000503,-0.00000039,0.00000384,-0.00001391,0.00019094,-0
 .00011915,0.00009726,0.00017035,-0.00000256,-0.00000150,-0.00000493,0.
 00000820,0.00000131,0.00000592,0.00000111,-0.00000169,-0.00000057,-0.0
 1992733,-0.02400177,-0.00207695,0.01885311,0.02169857,0.00209252,0.000
 02245,0.00014677,0.00000297,-0.00000694,-0.00000107,-0.00000094,-0.000
 13855,-0.00026569,0.00000802,-0.00027583,-0.00002439,-0.00003023,0.000
 03218,-0.00001021,0.00001648,-0.00000073,0.00000415,0.00000012,0.00000
 024,-0.00000244,-0.00001509,0.00000582,-0.00000124,0.00000024,-0.00000
 152,-0.00000028,0.00000026,-0.00000197,0.00000259,0.,0.00010599,-0.000
 19653,-0.00002013,-0.00010563,0.00007969,-0.00000642,-0.00003543,0.000
 78915,0.00000803,-0.00006762,-0.00005174,-0.00001731,-0.00004088,-0.00
 001666,0.00001642,0.01242827,0.00602438,0.00139141,-0.00115390,-0.0016
 7249,-0.00021993,0.00018317,-0.00042800,0.00005645,-0.00013413,0.00016
 494,-0.00002248,0.00014827,-0.00035443,-0.00002320,-0.00499729,0.00018
 808,-0.00047548,-0.00571140,-0.00887275,-0.00025835,0.00079614,0.00011
 185,-0.00005694,-0.00140058,-0.00027664,-0.00001688,0.00002677,-0.0000
 0884,0.00005146,-0.21246519,0.22986104,-0.01812504,0.01352837,-0.02897
 839,0.00119702,0.19925994,-0.00001787,0.00013376,-0.00004979,0.0000624
 0,-0.00003504,0.00001643,0.00009524,-0.00021467,0.00003493,-0.00024463
 ,0.00016618,-0.00002442,0.00005123,-0.00007708,0.00000465,-0.00001139,
 0.00000195,0.00000682,0.00002446,0.00004912,-0.00001244,0.00003023,-0.
 00001278,-0.00000613,0.00000639,-0.00001107,0.00000550,0.00003612,-0.0
 0001014,0.00000938,-0.00015696,0.00049425,0.00002057,0.00027048,-0.000
 04493,0.00002387,-0.00199956,-0.00211236,-0.00030948,0.00029080,0.0005
 2826,0.00010766,0.00027460,0.00050761,-0.00001448,-0.00869892,-0.01557
 970,-0.00117748,0.00089119,0.00219703,0.00002819,-0.00019695,0.0005209
 7,-0.00004238,0.00010010,-0.00008151,0.00002278,-0.00018505,0.00049805
 ,0.00003749,0.00695023,0.00190146,0.00079338,-0.00432231,0.01013213,-0
 .00001571,-0.00155878,-0.00035525,0.00008781,0.00278003,0.00075048,0.0
 0004807,-0.00002971,0.00001484,-0.00011118,0.17630952,-0.29889992,0.01
 524001,0.02545998,-0.02737681,0.00226683,-0.19621086,0.32691517,0.0000
 0209,0.00001468,-0.00000365,-0.00000008,-0.00000013,0.00000030,-0.0000
 1145,-0.00002690,-0.00002288,-0.00002712,0.00000224,0.00002389,0.00000
 402,-0.00000205,0.00000482,-0.00000081,0.00000050,0.00000016,0.0000008
 1,0.00000097,-0.00000194,0.00000101,-0.00000030,-0.00000032,-0.0000001
 2,-0.00000005,0.00000013,0.00000057,-0.00000033,0.,0.00000716,-0.00000
 806,-0.00002332,-0.00000432,0.00000475,0.00000941,-0.00003642,0.000041
 00,-0.00020125,-0.00002317,-0.00002731,0.00000005,0.00002604,0.0000464
 1,0.00000931,0.00111488,0.00030510,0.00085798,-0.00020063,-0.00012995,
 0.00107148,-0.00005807,0.00012842,-0.00005192,-0.00001913,0.00001938,-
 0.00002865,0.00008846,-0.00021304,-0.00004657,-0.00034884,0.00009815,-
 0.00086008,-0.00007635,-0.00066513,-0.00561236,0.00005033,0.00001365,0
 .00000507,-0.00009229,-0.00002397,-0.00000119,0.00000203,-0.00000986,0
 .00001397,-0.01827502,0.02010861,-0.00824667,0.00133686,-0.00268592,-0
 .00026483,0.01653956,-0.01699086,0.01336906\\-0.00000054,-0.00000145,0
 .00000243,-0.00000113,-0.00000140,0.00000051,-0.00000038,0.00000070,0.
 00000176,-0.00000047,-0.00000044,0.00000025,0.00000117,-0.00000045,0.0
 0000554,0.00000116,0.00000044,0.00000568,-0.00000124,0.,0.00000520,0.0
 0000157,0.00000153,0.00000651,-0.00000008,-0.00000146,0.00000435,0.,-0
 .00000171,0.00000837,-0.00000038,-0.00000067,0.00000152,-0.00000059,-0
 .00000078,0.00000541,-0.00000314,-0.00000492,-0.00000064,-0.00000141,-
 0.00000114,0.00000299,0.00000202,0.00000171,0.00000371,-0.00000477,0.0
 0000466,-0.00000447,0.00000529,-0.00000268,-0.00000105,-0.00000092,-0.
 00000125,0.00000124,0.00000045,0.00000175,-0.00000224,0.00000121,0.000
 00123,0.00000018,0.00000457,0.00000482,0.00000278,-0.00000316,-0.00002
 158,-0.00005908,-0.00000052,-0.00001787,-0.00004915,0.00000229,0.00003
 238,0.00005511,-0.00000050,-0.00000141,-0.00000786,-0.00000614,-0.0000
 1227,-0.00006502,-0.00000006,0.00000062,-0.00000783,0.00000571,0.00002
 160,0.00008381\\\@


 ARTHROPOD AXIOM: A COMPUTER SYSTEM IS LIKE A SPIDER'S WEB.
 YOU CANNOT PULL ON ONE END WITHOUT MAKING THE OTHER END MOVE.
     -- GREG WETTSTEIN
 Job cpu time:       0 days  0 hours 36 minutes 12.8 seconds.
 File lengths (MBytes):  RWF=    315 Int=      0 D2E=      0 Chk=     16 Scr=      1
 Normal termination of Gaussian 09 at Thu Aug 27 17:42:04 2020.
