 Entering Gaussian System, Link 0=g09
 Input=b3lyp_PM6_2H2O_dienophile_pm6_cpcmtoluene_1_water.com
 Output=b3lyp_PM6_2H2O_dienophile_pm6_cpcmtoluene_1_water.log
 Initial command:
 /apps/applications/gaussian/G09.D01/2/default/g09/l1.exe "/local/713769.1.40core-192G.q/Gau-383858.inp" -scrdir="/local/713769.1.40core-192G.q/"
 Entering Link 1 = /apps/applications/gaussian/G09.D01/2/default/g09/l1.exe PID=    383859.
  
 Copyright (c) 1988,1990,1992,1993,1995,1998,2003,2009,2013,
            Gaussian, Inc.  All Rights Reserved.
  
 This is part of the Gaussian(R) 09 program.  It is based on
 the Gaussian(R) 03 system (copyright 2003, Gaussian, Inc.),
 the Gaussian(R) 98 system (copyright 1998, Gaussian, Inc.),
 the Gaussian(R) 94 system (copyright 1995, Gaussian, Inc.),
 the Gaussian 92(TM) system (copyright 1992, Gaussian, Inc.),
 the Gaussian 90(TM) system (copyright 1990, Gaussian, Inc.),
 the Gaussian 88(TM) system (copyright 1988, Gaussian, Inc.),
 the Gaussian 86(TM) system (copyright 1986, Carnegie Mellon
 University), and the Gaussian 82(TM) system (copyright 1983,
 Carnegie Mellon University). Gaussian is a federally registered
 trademark of Gaussian, Inc.
  
 This software contains proprietary and confidential information,
 including trade secrets, belonging to Gaussian, Inc.
  
 This software is provided under written license and may be
 used, copied, transmitted, or stored only in accord with that
 written license.
  
 The following legend is applicable only to US Government
 contracts under FAR:
  
                    RESTRICTED RIGHTS LEGEND
  
 Use, reproduction and disclosure by the US Government is
 subject to restrictions as set forth in subparagraphs (a)
 and (c) of the Commercial Computer Software - Restricted
 Rights clause in FAR 52.227-19.
  
 Gaussian, Inc.
 340 Quinnipiac St., Bldg. 40, Wallingford CT 06492
  
  
 ---------------------------------------------------------------
 Warning -- This program may not be used in any manner that
 competes with the business of Gaussian, Inc. or will provide
 assistance to any competitor of Gaussian, Inc.  The licensee
 of this program is prohibited from giving any competitor of
 Gaussian, Inc. access to this program.  By using this program,
 the user acknowledges that Gaussian, Inc. is engaged in the
 business of creating and licensing software in the field of
 computational chemistry and represents and warrants to the
 licensee that it is not a competitor of Gaussian, Inc. and that
 it will not use this program in any manner prohibited above.
 ---------------------------------------------------------------
  

 Cite this work as:
 Gaussian 09, Revision D.01,
 M. J. Frisch, G. W. Trucks, H. B. Schlegel, G. E. Scuseria, 
 M. A. Robb, J. R. Cheeseman, G. Scalmani, V. Barone, B. Mennucci, 
 G. A. Petersson, H. Nakatsuji, M. Caricato, X. Li, H. P. Hratchian, 
 A. F. Izmaylov, J. Bloino, G. Zheng, J. L. Sonnenberg, M. Hada, 
 M. Ehara, K. Toyota, R. Fukuda, J. Hasegawa, M. Ishida, T. Nakajima, 
 Y. Honda, O. Kitao, H. Nakai, T. Vreven, J. A. Montgomery, Jr., 
 J. E. Peralta, F. Ogliaro, M. Bearpark, J. J. Heyd, E. Brothers, 
 K. N. Kudin, V. N. Staroverov, T. Keith, R. Kobayashi, J. Normand, 
 K. Raghavachari, A. Rendell, J. C. Burant, S. S. Iyengar, J. Tomasi, 
 M. Cossi, N. Rega, J. M. Millam, M. Klene, J. E. Knox, J. B. Cross, 
 V. Bakken, C. Adamo, J. Jaramillo, R. Gomperts, R. E. Stratmann, 
 O. Yazyev, A. J. Austin, R. Cammi, C. Pomelli, J. W. Ochterski, 
 R. L. Martin, K. Morokuma, V. G. Zakrzewski, G. A. Voth, 
 P. Salvador, J. J. Dannenberg, S. Dapprich, A. D. Daniels, 
 O. Farkas, J. B. Foresman, J. V. Ortiz, J. Cioslowski, 
 and D. J. Fox, Gaussian, Inc., Wallingford CT, 2013.
 
 ******************************************
 Gaussian 09:  ES64L-G09RevD.01 24-Apr-2013
                27-Aug-2020 
 ******************************************
 %nprocshared=4
 Will use up to    4 processors via shared memory.
 %chk=b3lyp_PM6_2H2O_dienophile_pm6_cpcmtoluene_1_water.chk
 ----------------------------------------------------------------------
 # opt freq b3lyp/6-31+g(d,p) scrf=(cpcm,solvent=water) geom=connectivi
 ty empiricaldispersion=gd3
 ----------------------------------------------------------------------
 1/14=-1,18=20,19=15,26=3,38=1,57=2/1,3;
 2/9=110,12=2,17=6,18=5,40=1/2;
 3/5=1,6=6,7=111,11=2,16=1,25=1,30=1,70=2101,71=1,72=1,74=-5,124=31/1,2,3;
 4//1;
 5/5=2,38=5,53=1/2;
 6/7=2,8=2,9=2,10=2,28=1/1;
 7//1,2,3,16;
 1/14=-1,18=20,19=15,26=3/3(2);
 2/9=110/2;
 99//99;
 2/9=110/2;
 3/5=1,6=6,7=111,11=2,16=1,25=1,30=1,70=2105,71=1,72=1,74=-5,124=31/1,2,3;
 4/5=5,16=3,69=1/1;
 5/5=2,38=5,53=1/2;
 7//1,2,3,16;
 1/14=-1,18=20,19=15,26=3/3(-5);
 2/9=110/2;
 6/7=2,8=2,9=2,10=2,19=2,28=1/1;
 99/9=1/99;
 -------------------
 Title Card Required
 -------------------
 Symbolic Z-matrix:
 Charge =  0 Multiplicity = 1
 C                     1.17624   0.3728   -0.02041 
 C                     0.66791  -1.0556   -0.06331 
 C                    -0.66877  -1.05548  -0.06406 
 C                    -1.17671   0.3728   -0.02172 
 H                     1.37301  -1.88191  -0.08645 
 H                    -1.37411  -1.88159  -0.08788 
 C                     0.00323   2.6642    0.03764 
 H                    -1.00165   3.04676   0.29275 
 H                     0.71673   3.03518   0.79544 
 H                     0.29218   3.07596  -0.94647 
 N                    -0.00028   1.19102   0.00826 
 O                    -2.31162   0.78719  -0.00914 
 O                     2.3115    0.78581  -0.00678 
 O                    -3.67602  -1.78117  -0.02757 
 H                    -4.21823  -1.98015   0.73701 
 H                    -3.61114  -0.81433  -0.06194 
 O                     3.67457  -1.78309  -0.02925 
 H                     3.60942  -0.81618  -0.06208 
 H                     4.21689  -1.98315   0.73496 
 
 Add virtual bond connecting atoms H18        and O13        Dist= 3.90D+00.
 Add virtual bond connecting atoms H16        and O12        Dist= 3.90D+00.

 GradGradGradGradGradGradGradGradGradGradGradGradGradGradGradGradGradGrad
 Berny optimization.
 Initialization pass.
                           ----------------------------
                           !    Initial Parameters    !
                           ! (Angstroms and Degrees)  !
 --------------------------                            --------------------------
 ! Name  Definition              Value          Derivative Info.                !
 --------------------------------------------------------------------------------
 ! R1    R(1,2)                  1.5168         estimate D2E/DX2                !
 ! R2    R(1,11)                 1.4334         estimate D2E/DX2                !
 ! R3    R(1,13)                 1.2081         estimate D2E/DX2                !
 ! R4    R(2,3)                  1.3367         estimate D2E/DX2                !
 ! R5    R(2,5)                  1.0865         estimate D2E/DX2                !
 ! R6    R(3,4)                  1.5165         estimate D2E/DX2                !
 ! R7    R(3,6)                  1.0865         estimate D2E/DX2                !
 ! R8    R(4,11)                 1.4333         estimate D2E/DX2                !
 ! R9    R(4,12)                 1.2083         estimate D2E/DX2                !
 ! R10   R(7,8)                  1.1051         estimate D2E/DX2                !
 ! R11   R(7,9)                  1.105          estimate D2E/DX2                !
 ! R12   R(7,10)                 1.1052         estimate D2E/DX2                !
 ! R13   R(7,11)                 1.4735         estimate D2E/DX2                !
 ! R14   R(12,16)                2.0631         estimate D2E/DX2                !
 ! R15   R(13,18)                2.0625         estimate D2E/DX2                !
 ! R16   R(14,15)                0.9582         estimate D2E/DX2                !
 ! R17   R(14,16)                0.9696         estimate D2E/DX2                !
 ! R18   R(17,18)                0.9697         estimate D2E/DX2                !
 ! R19   R(17,19)                0.9582         estimate D2E/DX2                !
 ! A1    A(2,1,11)             105.2517         estimate D2E/DX2                !
 ! A2    A(2,1,13)             129.5824         estimate D2E/DX2                !
 ! A3    A(11,1,13)            125.1655         estimate D2E/DX2                !
 ! A4    A(1,2,3)              109.5771         estimate D2E/DX2                !
 ! A5    A(1,2,5)              119.9553         estimate D2E/DX2                !
 ! A6    A(3,2,5)              130.4675         estimate D2E/DX2                !
 ! A7    A(2,3,4)              109.5729         estimate D2E/DX2                !
 ! A8    A(2,3,6)              130.4751         estimate D2E/DX2                !
 ! A9    A(4,3,6)              119.9519         estimate D2E/DX2                !
 ! A10   A(3,4,11)             105.2674         estimate D2E/DX2                !
 ! A11   A(3,4,12)             129.6364         estimate D2E/DX2                !
 ! A12   A(11,4,12)            125.0957         estimate D2E/DX2                !
 ! A13   A(8,7,9)              108.2168         estimate D2E/DX2                !
 ! A14   A(8,7,10)             108.3199         estimate D2E/DX2                !
 ! A15   A(8,7,11)             110.3988         estimate D2E/DX2                !
 ! A16   A(9,7,10)             108.4669         estimate D2E/DX2                !
 ! A17   A(9,7,11)             110.5409         estimate D2E/DX2                !
 ! A18   A(10,7,11)            110.8152         estimate D2E/DX2                !
 ! A19   A(1,11,4)             110.3297         estimate D2E/DX2                !
 ! A20   A(1,11,7)             124.6923         estimate D2E/DX2                !
 ! A21   A(4,11,7)             124.9679         estimate D2E/DX2                !
 ! A22   A(4,12,16)            108.9744         estimate D2E/DX2                !
 ! A23   A(1,13,18)            108.996          estimate D2E/DX2                !
 ! A24   A(15,14,16)           105.855          estimate D2E/DX2                !
 ! A25   A(12,16,14)           144.6145         estimate D2E/DX2                !
 ! A26   A(18,17,19)           105.8558         estimate D2E/DX2                !
 ! A27   A(13,18,17)           144.6748         estimate D2E/DX2                !
 ! D1    D(11,1,2,3)             0.2035         estimate D2E/DX2                !
 ! D2    D(11,1,2,5)          -179.728          estimate D2E/DX2                !
 ! D3    D(13,1,2,3)           179.9594         estimate D2E/DX2                !
 ! D4    D(13,1,2,5)             0.0278         estimate D2E/DX2                !
 ! D5    D(2,1,11,4)            -0.3352         estimate D2E/DX2                !
 ! D6    D(2,1,11,7)          -179.2283         estimate D2E/DX2                !
 ! D7    D(13,1,11,4)          179.8949         estimate D2E/DX2                !
 ! D8    D(13,1,11,7)            1.0019         estimate D2E/DX2                !
 ! D9    D(2,1,13,18)            0.2781         estimate D2E/DX2                !
 ! D10   D(11,1,13,18)         179.99           estimate D2E/DX2                !
 ! D11   D(1,2,3,4)             -0.0004         estimate D2E/DX2                !
 ! D12   D(1,2,3,6)           -179.915          estimate D2E/DX2                !
 ! D13   D(5,2,3,4)            179.9216         estimate D2E/DX2                !
 ! D14   D(5,2,3,6)              0.007          estimate D2E/DX2                !
 ! D15   D(2,3,4,11)            -0.2029         estimate D2E/DX2                !
 ! D16   D(2,3,4,12)          -179.9473         estimate D2E/DX2                !
 ! D17   D(6,3,4,11)           179.7222         estimate D2E/DX2                !
 ! D18   D(6,3,4,12)            -0.0223         estimate D2E/DX2                !
 ! D19   D(3,4,11,1)             0.335          estimate D2E/DX2                !
 ! D20   D(3,4,11,7)           179.2244         estimate D2E/DX2                !
 ! D21   D(12,4,11,1)         -179.9055         estimate D2E/DX2                !
 ! D22   D(12,4,11,7)           -1.0161         estimate D2E/DX2                !
 ! D23   D(3,4,12,16)           -0.173          estimate D2E/DX2                !
 ! D24   D(11,4,12,16)        -179.8716         estimate D2E/DX2                !
 ! D25   D(8,7,11,1)          -166.7793         estimate D2E/DX2                !
 ! D26   D(8,7,11,4)            14.4873         estimate D2E/DX2                !
 ! D27   D(9,7,11,1)           -47.0757         estimate D2E/DX2                !
 ! D28   D(9,7,11,4)           134.191          estimate D2E/DX2                !
 ! D29   D(10,7,11,1)           73.2112         estimate D2E/DX2                !
 ! D30   D(10,7,11,4)         -105.5221         estimate D2E/DX2                !
 ! D31   D(4,12,16,14)           6.7181         estimate D2E/DX2                !
 ! D32   D(1,13,18,17)          -6.7445         estimate D2E/DX2                !
 ! D33   D(15,14,16,12)        119.5193         estimate D2E/DX2                !
 ! D34   D(19,17,18,13)       -119.5163         estimate D2E/DX2                !
 --------------------------------------------------------------------------------
 Trust Radius=3.00D-01 FncErr=1.00D-07 GrdErr=1.00D-06
 Number of steps in this run=     90 maximum allowed number of steps=    114.
 GradGradGradGradGradGradGradGradGradGradGradGradGradGradGradGradGradGrad

                          Input orientation:                          
 ---------------------------------------------------------------------
 Center     Atomic      Atomic             Coordinates (Angstroms)
 Number     Number       Type             X           Y           Z
 ---------------------------------------------------------------------
      1          6           0        1.176243    0.372804   -0.020407
      2          6           0        0.667913   -1.055599   -0.063314
      3          6           0       -0.668773   -1.055484   -0.064063
      4          6           0       -1.176712    0.372795   -0.021722
      5          1           0        1.373014   -1.881909   -0.086447
      6          1           0       -1.374105   -1.881589   -0.087883
      7          6           0        0.003225    2.664204    0.037635
      8          1           0       -1.001646    3.046764    0.292748
      9          1           0        0.716729    3.035184    0.795444
     10          1           0        0.292180    3.075963   -0.946469
     11          7           0       -0.000281    1.191018    0.008258
     12          8           0       -2.311620    0.787189   -0.009137
     13          8           0        2.311501    0.785811   -0.006784
     14          8           0       -3.676015   -1.781172   -0.027566
     15          1           0       -4.218227   -1.980149    0.737014
     16          1           0       -3.611139   -0.814326   -0.061937
     17          8           0        3.674568   -1.783086   -0.029254
     18          1           0        3.609420   -0.816183   -0.062075
     19          1           0        4.216886   -1.983148    0.734962
 ---------------------------------------------------------------------
                    Distance matrix (angstroms):
                    1          2          3          4          5
     1  C    0.000000
     2  C    1.516765   0.000000
     3  C    2.333666   1.336686   0.000000
     4  C    2.352955   2.333384   1.516501   0.000000
     5  H    2.264246   1.086504   2.202810   3.404259   0.000000
     6  H    3.404573   2.202885   1.086513   2.263976   2.747119
     7  C    2.574850   3.780071   3.781270   2.578048   4.749617
     8  H    3.462850   4.443376   4.131169   2.698083   5.484033
     9  H    2.822239   4.180234   4.403627   3.367669   5.038476
    10  H    2.991024   4.241573   4.332543   3.212463   5.146682
    11  N    1.433354   2.344972   2.344970   1.433310   3.367163
    12  O    3.512411   3.503772   2.469293   1.208262   4.550449
    13  O    1.208127   2.468880   3.503667   3.512611   2.829105
    14  O    5.308867   4.404253   3.093778   3.299413   5.050377
    15  H    5.933834   5.036833   3.754378   3.919546   5.652408
    16  H    4.932548   4.285849   2.952233   2.708747   5.097265
    17  O    3.299935   3.093602   4.404001   5.308747   2.304384
    18  H    2.708464   2.951234   4.284881   4.931770   2.477474
    19  H    3.920026   3.754038   5.036732   5.934133   2.961852
                    6          7          8          9         10
     6  H    0.000000
     7  C    4.751529   0.000000
     8  H    4.957042   1.105079   0.000000
     9  H    5.415396   1.104984   1.790433   0.000000
    10  H    5.300094   1.105215   1.791786   1.793367   0.000000
    11  N    3.367128   1.473483   2.127783   2.129487   2.133086
    12  O    2.829755   2.980584   2.629229   3.856388   3.591219
    13  O    4.550307   2.976318   4.022259   2.871680   3.194599
    14  O    2.304889   5.770825   5.528455   6.570451   6.338984
    15  H    2.962971   6.315046   5.984448   7.036389   6.981558
    16  H    2.478718   5.017341   4.673679   5.855277   5.581455
    17  O    5.049974   5.767289   6.730387   5.713551   5.991009
    18  H    5.096202   5.012752   6.025794   4.892446   5.189897
    19  H    5.652130   6.311821   7.261449   6.118694   6.620055
                   11         12         13         14         15
    11  N    0.000000
    12  O    2.346416   0.000000
    13  O    2.347074   4.623122   0.000000
    14  O    4.727179   2.908331   6.514613   0.000000
    15  H    5.327143   3.442390   7.130296   0.958211   0.000000
    16  H    4.130935   2.063101   6.135238   0.969630   1.538188
    17  O    4.727707   6.514688   2.908211   7.350583   7.932352
    18  H    4.130828   6.134519   2.062531   7.349147   7.953956
    19  H    5.328032   7.130907   3.442065   7.932221   8.435114
                   16         17         18         19
    16  H    0.000000
    17  O    7.349904   0.000000
    18  H    7.220559   0.969651   0.000000
    19  H    7.954820   0.958207   1.538210   0.000000
 Stoichiometry    C5H9NO4
 Framework group  C1[X(C5H9NO4)]
 Deg. of freedom    51
 Full point group                 C1      NOp   1
 Largest Abelian subgroup         C1      NOp   1
 Largest concise Abelian subgroup C1      NOp   1
                         Standard orientation:                         
 ---------------------------------------------------------------------
 Center     Atomic      Atomic             Coordinates (Angstroms)
 Number     Number       Type             X           Y           Z
 ---------------------------------------------------------------------
      1          6           0        1.176243    0.372804   -0.020407
      2          6           0        0.667913   -1.055599   -0.063314
      3          6           0       -0.668773   -1.055484   -0.064063
      4          6           0       -1.176712    0.372795   -0.021722
      5          1           0        1.373014   -1.881909   -0.086447
      6          1           0       -1.374105   -1.881589   -0.087883
      7          6           0        0.003225    2.664204    0.037635
      8          1           0       -1.001646    3.046764    0.292748
      9          1           0        0.716729    3.035184    0.795444
     10          1           0        0.292180    3.075963   -0.946469
     11          7           0       -0.000281    1.191018    0.008258
     12          8           0       -2.311620    0.787189   -0.009137
     13          8           0        2.311501    0.785811   -0.006784
     14          8           0       -3.676015   -1.781172   -0.027566
     15          1           0       -4.218227   -1.980149    0.737014
     16          1           0       -3.611139   -0.814326   -0.061937
     17          8           0        3.674568   -1.783086   -0.029254
     18          1           0        3.609420   -0.816183   -0.062075
     19          1           0        4.216886   -1.983148    0.734962
 ---------------------------------------------------------------------
 Rotational constants (GHZ):      1.6626816      0.7044638      0.4976112
 Standard basis: 6-31+G(d,p) (6D, 7F)
 There are   235 symmetry adapted cartesian basis functions of A   symmetry.
 There are   235 symmetry adapted basis functions of A   symmetry.
   235 basis functions,   383 primitive gaussians,   235 cartesian basis functions
    39 alpha electrons       39 beta electrons
       nuclear repulsion energy       523.1997670741 Hartrees.
 NAtoms=   19 NActive=   19 NUniq=   19 SFac= 1.00D+00 NAtFMM=   60 NAOKFM=F Big=F
 Integral buffers will be    131072 words long.
 Raffenetti 2 integral format.
 Two-electron integral symmetry is turned on.
 Nuclear repulsion after empirical dispersion term =      523.1854372874 Hartrees.
 ------------------------------------------------------------------------------
 Polarizable Continuum Model (PCM)
 =================================
 Model                : C-PCM.
 Atomic radii         : UFF (Universal Force Field).
 Polarization charges : Total charges.
 Charge compensation  : None.
 Solution method      : On-the-fly selection.
 Cavity type          : Scaled VdW (van der Waals Surface) (Alpha=1.100).
 Cavity algorithm     : GePol (No added spheres)
                        Default sphere list used, NSphG=   19.
                        Lebedev-Laikov grids with approx.  5.0 points / Ang**2.
                        Smoothing algorithm: Karplus/York (Gamma=1.0000).
                        Polarization charges: spherical gaussians, with
                                              point-specific exponents (IZeta= 3).
                        Self-potential: point-specific (ISelfS= 7).
                        Self-field    : sphere-specific E.n sum rule (ISelfD= 2).
 1st derivatives      : Analytical E(r).r(x)/FMM algorithm (CHGder, D1EAlg=3).
                        Cavity 1st derivative terms included.
 Solvent              : Water, Eps=  78.355300 Eps(inf)=   1.777849
 ------------------------------------------------------------------------------
 Spheres list:
 ISph  on   Nord     Re0    Alpha      Xe            Ye            Ze
    1   C      1    1.9255  1.100      1.176243      0.372804     -0.020407
    2   C      2    1.9255  1.100      0.667913     -1.055599     -0.063314
    3   C      3    1.9255  1.100     -0.668773     -1.055484     -0.064063
    4   C      4    1.9255  1.100     -1.176712      0.372795     -0.021722
    5   H      5    1.4430  1.100      1.373014     -1.881909     -0.086447
    6   H      6    1.4430  1.100     -1.374105     -1.881589     -0.087883
    7   C      7    1.9255  1.100      0.003225      2.664204      0.037635
    8   H      8    1.4430  1.100     -1.001646      3.046764      0.292748
    9   H      9    1.4430  1.100      0.716729      3.035184      0.795444
   10   H     10    1.4430  1.100      0.292180      3.075963     -0.946469
   11   N     11    1.8300  1.100     -0.000281      1.191018      0.008258
   12   O     12    1.7500  1.100     -2.311620      0.787189     -0.009137
   13   O     13    1.7500  1.100      2.311501      0.785811     -0.006784
   14   O     14    1.7500  1.100     -3.676015     -1.781172     -0.027566
   15   H     15    1.4430  1.100     -4.218227     -1.980149      0.737014
   16   H     16    1.4430  1.100     -3.611139     -0.814326     -0.061937
   17   O     17    1.7500  1.100      3.674568     -1.783086     -0.029254
   18   H     18    1.4430  1.100      3.609420     -0.816183     -0.062075
   19   H     19    1.4430  1.100      4.216886     -1.983148      0.734962
 ------------------------------------------------------------------------------
 One-electron integrals computed using PRISM.
 NBasis=   235 RedAO= T EigKep=  8.47D-06  NBF=   235
 NBsUse=   235 1.00D-06 EigRej= -1.00D+00 NBFU=   235
 ExpMin= 4.38D-02 ExpMax= 5.48D+03 ExpMxC= 8.25D+02 IAcc=2 IRadAn=         4 AccDes= 0.00D+00
 Harris functional with IExCor=  402 and IRadAn=       4 diagonalized for initial guess.
 HarFok:  IExCor=  402 AccDes= 0.00D+00 IRadAn=         4 IDoV= 1 UseB2=F ITyADJ=14
 ICtDFT=  3500011 ScaDFX=  1.000000  1.000000  1.000000  1.000000
 FoFCou: FMM=F IPFlag=           0 FMFlag=      100000 FMFlg1=           0
         NFxFlg=           0 DoJE=T BraDBF=F KetDBF=T FulRan=T
         wScrn=  0.000000 ICntrl=     500 IOpCl=  0 I1Cent=   200000004 NGrid=           0
         NMat0=    1 NMatS0=      1 NMatT0=    0 NMatD0=    1 NMtDS0=    0 NMtDT0=    0
 Petite list used in FoFCou.
 Requested convergence on RMS density matrix=1.00D-08 within 128 cycles.
 Requested convergence on MAX density matrix=1.00D-06.
 Requested convergence on             energy=1.00D-06.
 No special actions if energy rises.
 Inv3:  Mode=1 IEnd=     9114147.
 Iteration    1 A*A^-1 deviation from unit magnitude is 5.33D-15 for   1731.
 Iteration    1 A*A^-1 deviation from orthogonality  is 3.38D-15 for   1739   1610.
 Iteration    1 A^-1*A deviation from unit magnitude is 5.33D-15 for   1731.
 Iteration    1 A^-1*A deviation from orthogonality  is 2.41D-15 for   1735    926.
 Error on total polarization charges =  0.01497
 SCF Done:  E(RB3LYP) =  -551.680044533     A.U. after   13 cycles
            NFock= 13  Conv=0.36D-08     -V/T= 2.0097

 **********************************************************************

            Population analysis using the SCF density.

 **********************************************************************

 Orbital symmetries:
       Occupied  (A) (A) (A) (A) (A) (A) (A) (A) (A) (A) (A) (A)
                 (A) (A) (A) (A) (A) (A) (A) (A) (A) (A) (A) (A)
                 (A) (A) (A) (A) (A) (A) (A) (A) (A) (A) (A) (A)
                 (A) (A) (A)
       Virtual   (A) (A) (A) (A) (A) (A) (A) (A) (A) (A) (A) (A)
                 (A) (A) (A) (A) (A) (A) (A) (A) (A) (A) (A) (A)
                 (A) (A) (A) (A) (A) (A) (A) (A) (A) (A) (A) (A)
                 (A) (A) (A) (A) (A) (A) (A) (A) (A) (A) (A) (A)
                 (A) (A) (A) (A) (A) (A) (A) (A) (A) (A) (A) (A)
                 (A) (A) (A) (A) (A) (A) (A) (A) (A) (A) (A) (A)
                 (A) (A) (A) (A) (A) (A) (A) (A) (A) (A) (A) (A)
                 (A) (A) (A) (A) (A) (A) (A) (A) (A) (A) (A) (A)
                 (A) (A) (A) (A) (A) (A) (A) (A) (A) (A) (A) (A)
                 (A) (A) (A) (A) (A) (A) (A) (A) (A) (A) (A) (A)
                 (A) (A) (A) (A) (A) (A) (A) (A) (A) (A) (A) (A)
                 (A) (A) (A) (A) (A) (A) (A) (A) (A) (A) (A) (A)
                 (A) (A) (A) (A) (A) (A) (A) (A) (A) (A) (A) (A)
                 (A) (A) (A) (A) (A) (A) (A) (A) (A) (A) (A) (A)
                 (A) (A) (A) (A) (A) (A) (A) (A) (A) (A) (A) (A)
                 (A) (A) (A) (A) (A) (A) (A) (A) (A) (A) (A) (A)
                 (A) (A) (A) (A)
 The electronic state is 1-A.
 Alpha  occ. eigenvalues --  -19.18510 -19.18474 -19.16195 -19.16195 -14.40101
 Alpha  occ. eigenvalues --  -10.33793 -10.33771 -10.23671 -10.23381 -10.23294
 Alpha  occ. eigenvalues --   -1.09976  -1.08898  -1.01682  -1.01675  -0.96714
 Alpha  occ. eigenvalues --   -0.83426  -0.71563  -0.68831  -0.61233  -0.56772
 Alpha  occ. eigenvalues --   -0.54005  -0.53598  -0.51904  -0.49244  -0.48521
 Alpha  occ. eigenvalues --   -0.46538  -0.45843  -0.44478  -0.42645  -0.42332
 Alpha  occ. eigenvalues --   -0.40777  -0.39503  -0.39112  -0.32720  -0.32382
 Alpha  occ. eigenvalues --   -0.32108  -0.31946  -0.29309  -0.28289
 Alpha virt. eigenvalues --   -0.10984   0.00069   0.01211   0.01848   0.02876
 Alpha virt. eigenvalues --    0.04111   0.04384   0.04662   0.04810   0.04987
 Alpha virt. eigenvalues --    0.07876   0.08270   0.08483   0.09026   0.09813
 Alpha virt. eigenvalues --    0.11114   0.11563   0.12795   0.13591   0.14324
 Alpha virt. eigenvalues --    0.14926   0.16144   0.16344   0.16836   0.17444
 Alpha virt. eigenvalues --    0.17760   0.18724   0.18961   0.19668   0.19971
 Alpha virt. eigenvalues --    0.21363   0.21571   0.21752   0.21921   0.23929
 Alpha virt. eigenvalues --    0.24700   0.24797   0.25347   0.25883   0.26173
 Alpha virt. eigenvalues --    0.26817   0.27204   0.28437   0.28842   0.29320
 Alpha virt. eigenvalues --    0.29823   0.30094   0.32952   0.34313   0.35074
 Alpha virt. eigenvalues --    0.37394   0.38006   0.39593   0.39947   0.42114
 Alpha virt. eigenvalues --    0.42984   0.43288   0.47602   0.48521   0.57330
 Alpha virt. eigenvalues --    0.63527   0.64538   0.66902   0.70080   0.71149
 Alpha virt. eigenvalues --    0.72471   0.73335   0.75982   0.77580   0.78918
 Alpha virt. eigenvalues --    0.82957   0.84432   0.90359   0.90751   0.93445
 Alpha virt. eigenvalues --    0.94860   0.95928   0.97092   0.98399   1.00618
 Alpha virt. eigenvalues --    1.02213   1.07249   1.08753   1.09966   1.10994
 Alpha virt. eigenvalues --    1.11782   1.14224   1.15746   1.16472   1.17294
 Alpha virt. eigenvalues --    1.19112   1.19889   1.20591   1.21646   1.21940
 Alpha virt. eigenvalues --    1.23737   1.24690   1.26329   1.28668   1.29898
 Alpha virt. eigenvalues --    1.30664   1.32074   1.33345   1.36389   1.36428
 Alpha virt. eigenvalues --    1.39797   1.41015   1.43707   1.47875   1.49257
 Alpha virt. eigenvalues --    1.52153   1.55517   1.56194   1.58987   1.60057
 Alpha virt. eigenvalues --    1.62711   1.64866   1.65854   1.67981   1.68875
 Alpha virt. eigenvalues --    1.71354   1.73743   1.74728   1.75810   1.76451
 Alpha virt. eigenvalues --    1.86174   1.89892   1.91763   1.92507   1.93505
 Alpha virt. eigenvalues --    1.94865   1.98762   2.00115   2.05052   2.06172
 Alpha virt. eigenvalues --    2.07243   2.08768   2.11438   2.14976   2.16183
 Alpha virt. eigenvalues --    2.23084   2.25608   2.27434   2.27764   2.28344
 Alpha virt. eigenvalues --    2.34252   2.36126   2.36803   2.38104   2.41787
 Alpha virt. eigenvalues --    2.46310   2.47542   2.49884   2.50127   2.50614
 Alpha virt. eigenvalues --    2.54822   2.56223   2.63739   2.65397   2.65517
 Alpha virt. eigenvalues --    2.66328   2.67982   2.68946   2.69625   2.73471
 Alpha virt. eigenvalues --    2.74896   2.79804   2.83073   2.85644   2.95045
 Alpha virt. eigenvalues --    3.01430   3.02775   3.04983   3.05482   3.18609
 Alpha virt. eigenvalues --    3.23752   3.25382   3.29615   3.29892   3.39952
 Alpha virt. eigenvalues --    3.41370   3.43786   3.43978   3.60437   3.62590
 Alpha virt. eigenvalues --    3.70466   4.13046   4.18158   4.22562   4.27445
 Alpha virt. eigenvalues --    4.32779   4.45478   4.54133   4.63614   4.66087
 Alpha virt. eigenvalues --    5.00820
          Condensed to atoms (all electrons):
               1          2          3          4          5          6
     1  C    5.909385  -0.173924   0.166086  -0.719219  -0.031835   0.003862
     2  C   -0.173924   9.017636  -2.930926   0.182300   0.273031   0.084077
     3  C    0.166086  -2.930926   9.152521  -0.235041   0.086373   0.277326
     4  C   -0.719219   0.182300  -0.235041   5.936632   0.002339  -0.035308
     5  H   -0.031835   0.273031   0.086373   0.002339   0.480979  -0.002079
     6  H    0.003862   0.084077   0.277326  -0.035308  -0.002079   0.481273
     7  C   -0.114546  -0.022685  -0.056489  -0.073873  -0.000517  -0.000685
     8  H    0.002990  -0.005543   0.002133  -0.006832   0.000002  -0.000002
     9  H   -0.003244   0.003520  -0.001450   0.003643  -0.000001   0.000001
    10  H   -0.002316   0.002135   0.000430   0.000325   0.000000   0.000001
    11  N    0.244815  -0.290836  -0.328856   0.257182   0.009939   0.010021
    12  O    0.097058  -0.108786   0.027262   0.247071  -0.000433  -0.005627
    13  O    0.250004   0.016748  -0.111172   0.093259  -0.005384  -0.000408
    14  O    0.008104   0.091648   0.025150  -0.114953   0.000090  -0.020080
    15  H   -0.000664   0.003084  -0.006098   0.007003   0.000000   0.000351
    16  H   -0.001983  -0.017284  -0.032880   0.051664  -0.000001   0.000251
    17  O   -0.112304   0.015140   0.098323   0.008743  -0.020252   0.000092
    18  H    0.052450  -0.033014  -0.017734  -0.002014   0.000273  -0.000001
    19  H    0.007042  -0.005818   0.002764  -0.000673   0.000360   0.000000
               7          8          9         10         11         12
     1  C   -0.114546   0.002990  -0.003244  -0.002316   0.244815   0.097058
     2  C   -0.022685  -0.005543   0.003520   0.002135  -0.290836  -0.108786
     3  C   -0.056489   0.002133  -0.001450   0.000430  -0.328856   0.027262
     4  C   -0.073873  -0.006832   0.003643   0.000325   0.257182   0.247071
     5  H   -0.000517   0.000002  -0.000001   0.000000   0.009939  -0.000433
     6  H   -0.000685  -0.000002   0.000001   0.000001   0.010021  -0.005627
     7  C    5.144409   0.413164   0.397937   0.400442   0.218278  -0.029291
     8  H    0.413164   0.500319  -0.023134  -0.026255  -0.045179   0.007134
     9  H    0.397937  -0.023134   0.516495  -0.030848  -0.042370  -0.000025
    10  H    0.400442  -0.026255  -0.030848   0.523646  -0.043967   0.000374
    11  N    0.218278  -0.045179  -0.042370  -0.043967   7.352949  -0.084327
    12  O   -0.029291   0.007134  -0.000025   0.000374  -0.084327   8.426439
    13  O   -0.010881  -0.000152   0.003926   0.001361  -0.080572  -0.001978
    14  O   -0.000530   0.000010   0.000000  -0.000002  -0.004660  -0.013417
    15  H    0.000048   0.000000   0.000000   0.000000   0.000128  -0.000273
    16  H    0.000937  -0.000003   0.000000   0.000000   0.002365   0.013825
    17  O    0.000119  -0.000001   0.000002  -0.000003  -0.004120   0.000016
    18  H    0.000838   0.000000  -0.000001   0.000000   0.002316   0.000004
    19  H    0.000030   0.000000   0.000000   0.000000   0.000110   0.000000
              13         14         15         16         17         18
     1  C    0.250004   0.008104  -0.000664  -0.001983  -0.112304   0.052450
     2  C    0.016748   0.091648   0.003084  -0.017284   0.015140  -0.033014
     3  C   -0.111172   0.025150  -0.006098  -0.032880   0.098323  -0.017734
     4  C    0.093259  -0.114953   0.007003   0.051664   0.008743  -0.002014
     5  H   -0.005384   0.000090   0.000000  -0.000001  -0.020252   0.000273
     6  H   -0.000408  -0.020080   0.000351   0.000251   0.000092  -0.000001
     7  C   -0.010881  -0.000530   0.000048   0.000937   0.000119   0.000838
     8  H   -0.000152   0.000010   0.000000  -0.000003  -0.000001   0.000000
     9  H    0.003926   0.000000   0.000000   0.000000   0.000002  -0.000001
    10  H    0.001361  -0.000002   0.000000   0.000000  -0.000003   0.000000
    11  N   -0.080572  -0.004660   0.000128   0.002365  -0.004120   0.002316
    12  O   -0.001978  -0.013417  -0.000273   0.013825   0.000016   0.000004
    13  O    8.415522   0.000006   0.000000   0.000004  -0.013229   0.014219
    14  O    0.000006   8.233157   0.280398   0.271264   0.000014   0.000000
    15  H    0.000000   0.280398   0.351864  -0.016951   0.000000   0.000000
    16  H    0.000004   0.271264  -0.016951   0.332706   0.000000   0.000000
    17  O   -0.013229   0.000014   0.000000   0.000000   8.231025   0.270920
    18  H    0.014219   0.000000   0.000000   0.000000   0.270920   0.332953
    19  H   -0.000305   0.000000   0.000000   0.000000   0.280662  -0.016940
              19
     1  C    0.007042
     2  C   -0.005818
     3  C    0.002764
     4  C   -0.000673
     5  H    0.000360
     6  H    0.000000
     7  C    0.000030
     8  H    0.000000
     9  H    0.000000
    10  H    0.000000
    11  N    0.000110
    12  O    0.000000
    13  O   -0.000305
    14  O    0.000000
    15  H    0.000000
    16  H    0.000000
    17  O    0.280662
    18  H   -0.016940
    19  H    0.351834
 Mulliken charges:
               1
     1  C    0.418239
     2  C   -0.100502
     3  C   -0.117721
     4  C    0.397754
     5  H    0.207117
     6  H    0.206934
     7  C   -0.266708
     8  H    0.181349
     9  H    0.175549
    10  H    0.174677
    11  N   -0.173215
    12  O   -0.575024
    13  O   -0.570966
    14  O   -0.756198
    15  H    0.381110
    16  H    0.396087
    17  O   -0.755146
    18  H    0.395731
    19  H    0.380933
 Sum of Mulliken charges =   0.00000
 Mulliken charges with hydrogens summed into heavy atoms:
               1
     1  C    0.418239
     2  C    0.106615
     3  C    0.089213
     4  C    0.397754
     7  C    0.264867
    11  N   -0.173215
    12  O   -0.575024
    13  O   -0.570966
    14  O    0.020999
    17  O    0.021518
 Electronic spatial extent (au):  <R**2>=           2156.0503
 Charge=              0.0000 electrons
 Dipole moment (field-independent basis, Debye):
    X=             -0.0442    Y=              1.6657    Z=              3.0165  Tot=              3.4461
 Quadrupole moment (field-independent basis, Debye-Ang):
   XX=            -65.0140   YY=            -58.5714   ZZ=            -58.2723
   XY=             -0.1896   XZ=             -0.0059   YZ=             -6.3799
 Traceless Quadrupole moment (field-independent basis, Debye-Ang):
   XX=             -4.3948   YY=              2.0479   ZZ=              2.3469
   XY=             -0.1896   XZ=             -0.0059   YZ=             -6.3799
 Octapole moment (field-independent basis, Debye-Ang**2):
  XXX=             -0.6632  YYY=             22.7374  ZZZ=              3.6236  XYY=             -0.6009
  XXY=             -8.9505  XXZ=             61.3834  XZZ=              0.4768  YZZ=             -1.4985
  YYZ=             15.3164  XYZ=             -0.0596
 Hexadecapole moment (field-independent basis, Debye-Ang**3):
 XXXX=          -1508.4352 YYYY=           -791.6410 ZZZZ=            -68.9470 XXXY=             -2.4512
 XXXZ=             -0.2101 YYYX=             -2.3758 YYYZ=            -31.1818 ZZZX=              0.0651
 ZZZY=             -9.6333 XXYY=           -467.2151 XXZZ=           -268.3002 YYZZ=           -145.7055
 XXYZ=           -127.2677 YYXZ=             -0.0381 ZZXY=              1.6457
 N-N= 5.231854372874D+02 E-N=-2.336460104462D+03  KE= 5.463825711388D+02
 D1PCM: C-PCM CHGder 1st derivatives, ID1Alg=3 FixD1E=F DoIter=F DoCFld=F I1PDM=0.
 Calling FoFJK, ICntrl=      2127 FMM=F ISym2X=0 I1Cent= 0 IOpClX= 0 NMat=1 NMatS=1 NMatT=0.
 ***** Axes restored to original set *****
 -------------------------------------------------------------------
 Center     Atomic                   Forces (Hartrees/Bohr)
 Number     Number              X              Y              Z
 -------------------------------------------------------------------
      1        6          -0.048878014    0.001584689    0.000516203
      2        6           0.006728702    0.003861126   -0.000347641
      3        6          -0.006841136    0.003765779   -0.000346907
      4        6           0.047694925    0.001859485    0.000584710
      5        1          -0.003468111    0.001548616    0.000227603
      6        1           0.003466295    0.001570749    0.000232738
      7        6           0.001633718    0.002547370   -0.000541984
      8        1           0.006850785   -0.008162428   -0.002015842
      9        1          -0.004435585   -0.005510753   -0.005086097
     10        1          -0.001646263   -0.003963044    0.005870188
     11        7          -0.001220321   -0.007603253    0.001000570
     12        8          -0.016168967    0.004738784   -0.000541901
     13        8           0.016275005    0.005679177   -0.000515194
     14        8           0.000904049   -0.001783289   -0.007037266
     15        1          -0.004925415   -0.001479639    0.006308203
     16        1           0.002557725    0.002303719    0.001209460
     17        8          -0.000914410   -0.001765367   -0.007045150
     18        1          -0.002545161    0.002297385    0.001215389
     19        1           0.004932178   -0.001489107    0.006312919
 -------------------------------------------------------------------
 Cartesian Forces:  Max     0.048878014 RMS     0.010246862

 GradGradGradGradGradGradGradGradGradGradGradGradGradGradGradGradGradGrad
 Berny optimization.
 FormGI is forming the generalized inverse of G from B-inverse, IUseBI=4.
 Internal  Forces:  Max     0.025826881 RMS     0.006403854
 Search for a local minimum.
 Step number   1 out of a maximum of   90
 All quantities printed in internal units (Hartrees-Bohrs-Radians)
 Mixed Optimization -- RFO/linear search
 Second derivative matrix not updated -- first step.
 ITU=  0
     Eigenvalues ---    0.00230   0.00230   0.00720   0.00872   0.01111
     Eigenvalues ---    0.01149   0.01430   0.01430   0.01632   0.01802
     Eigenvalues ---    0.01836   0.02259   0.03887   0.03890   0.04228
     Eigenvalues ---    0.04230   0.07264   0.07320   0.16000   0.16000
     Eigenvalues ---    0.16000   0.16000   0.16000   0.16000   0.16000
     Eigenvalues ---    0.16000   0.16000   0.22685   0.24788   0.24992
     Eigenvalues ---    0.25000   0.25000   0.25000   0.25000   0.29615
     Eigenvalues ---    0.30499   0.33112   0.33127   0.33137   0.35219
     Eigenvalues ---    0.35220   0.35327   0.38294   0.39664   0.53448
     Eigenvalues ---    0.53453   0.55400   0.55860   0.55861   1.00779
     Eigenvalues ---    1.00843
 RFO step:  Lambda=-8.73646788D-03 EMin= 2.30000000D-03
 Linear search not attempted -- first point.
 Iteration  1 RMS(Cart)=  0.11467670 RMS(Int)=  0.00221964
 Iteration  2 RMS(Cart)=  0.00750239 RMS(Int)=  0.00008422
 Iteration  3 RMS(Cart)=  0.00002640 RMS(Int)=  0.00008376
 Iteration  4 RMS(Cart)=  0.00000000 RMS(Int)=  0.00008376
 Variable       Old X    -DE/DX   Delta X   Delta X   Delta X     New X
                                 (Linear)    (Quad)   (Total)
    R1        2.86627  -0.00772   0.00000  -0.02318  -0.02318   2.84309
    R2        2.70865  -0.02583   0.00000  -0.06500  -0.06498   2.64367
    R3        2.28303   0.01829   0.00000   0.01798   0.01798   2.30101
    R4        2.52597  -0.00457   0.00000  -0.00557  -0.00560   2.52037
    R5        2.05319  -0.00343   0.00000  -0.00951  -0.00951   2.04368
    R6        2.86577  -0.00768   0.00000  -0.02286  -0.02288   2.84289
    R7        2.05321  -0.00345   0.00000  -0.00956  -0.00956   2.04365
    R8        2.70856  -0.02443   0.00000  -0.06153  -0.06152   2.64705
    R9        2.28328   0.01786   0.00000   0.01757   0.01757   2.30085
   R10        2.08830  -0.00952   0.00000  -0.02800  -0.02800   2.06029
   R11        2.08812  -0.00820   0.00000  -0.02412  -0.02412   2.06399
   R12        2.08855  -0.00713   0.00000  -0.02099  -0.02099   2.06757
   R13        2.78448  -0.01512   0.00000  -0.04176  -0.04176   2.74272
   R14        3.89870   0.00165   0.00000   0.03476   0.03476   3.93345
   R15        3.89762   0.00166   0.00000   0.03476   0.03476   3.93238
   R16        1.81076   0.00813   0.00000   0.01433   0.01433   1.82508
   R17        1.83233   0.00350   0.00000   0.00644   0.00644   1.83877
   R18        1.83237   0.00349   0.00000   0.00642   0.00642   1.83880
   R19        1.81075   0.00814   0.00000   0.01435   0.01435   1.82509
    A1        1.83699   0.00568   0.00000   0.02003   0.02006   1.85704
    A2        2.26164  -0.00001   0.00000   0.00095   0.00093   2.26257
    A3        2.18455  -0.00568   0.00000  -0.02097  -0.02098   2.16357
    A4        1.91248  -0.00572   0.00000  -0.01698  -0.01700   1.89548
    A5        2.09362   0.00453   0.00000   0.01840   0.01841   2.11202
    A6        2.27709   0.00119   0.00000  -0.00143  -0.00142   2.27567
    A7        1.91241  -0.00570   0.00000  -0.01669  -0.01673   1.89568
    A8        2.27722   0.00119   0.00000  -0.00147  -0.00146   2.27576
    A9        2.09356   0.00451   0.00000   0.01816   0.01817   2.11173
   A10        1.83726   0.00530   0.00000   0.01886   0.01886   1.85612
   A11        2.26258  -0.00083   0.00000  -0.00238  -0.00239   2.26020
   A12        2.18333  -0.00447   0.00000  -0.01646  -0.01646   2.16687
   A13        1.88874   0.00429   0.00000   0.02217   0.02168   1.91042
   A14        1.89054   0.00342   0.00000   0.01947   0.01935   1.90989
   A15        1.92682  -0.00684   0.00000  -0.04263  -0.04293   1.88389
   A16        1.89310   0.00224   0.00000   0.01724   0.01724   1.91034
   A17        1.92930  -0.00273   0.00000  -0.01577  -0.01600   1.91330
   A18        1.93409   0.00000   0.00000   0.00169   0.00163   1.93572
   A19        1.92562   0.00044   0.00000  -0.00521  -0.00517   1.92044
   A20        2.17629  -0.00094   0.00000  -0.00019  -0.00021   2.17608
   A21        2.18110   0.00050   0.00000   0.00538   0.00536   2.18646
   A22        1.90196   0.00936   0.00000   0.05547   0.05547   1.95743
   A23        1.90234   0.00940   0.00000   0.05572   0.05572   1.95806
   A24        1.84752  -0.00036   0.00000  -0.00215  -0.00215   1.84537
   A25        2.52400   0.00741   0.00000   0.02863   0.02863   2.55263
   A26        1.84753  -0.00037   0.00000  -0.00217  -0.00217   1.84536
   A27        2.52505   0.00740   0.00000   0.02861   0.02861   2.55366
    D1        0.00355  -0.00004   0.00000  -0.00080  -0.00081   0.00274
    D2       -3.13685   0.00006   0.00000   0.00315   0.00315  -3.13369
    D3        3.14088   0.00005   0.00000   0.00304   0.00307  -3.13923
    D4        0.00049   0.00015   0.00000   0.00699   0.00703   0.00752
    D5       -0.00585   0.00005   0.00000   0.00129   0.00130  -0.00455
    D6       -3.12812   0.00006   0.00000   0.00267   0.00266  -3.12546
    D7        3.13976  -0.00005   0.00000  -0.00240  -0.00237   3.13739
    D8        0.01749  -0.00004   0.00000  -0.00102  -0.00100   0.01649
    D9        0.00485  -0.00021   0.00000  -0.00512  -0.00509  -0.00024
   D10        3.14142  -0.00008   0.00000  -0.00048  -0.00050   3.14091
   D11       -0.00001   0.00000   0.00000   0.00003   0.00003   0.00002
   D12       -3.14011   0.00011   0.00000   0.00448   0.00444  -3.13567
   D13        3.14022  -0.00011   0.00000  -0.00446  -0.00441   3.13581
   D14        0.00012   0.00000   0.00000   0.00000   0.00000   0.00012
   D15       -0.00354   0.00004   0.00000   0.00077   0.00077  -0.00277
   D16       -3.14067  -0.00005   0.00000  -0.00305  -0.00307   3.13944
   D17        3.13674  -0.00006   0.00000  -0.00316  -0.00317   3.13357
   D18       -0.00039  -0.00015   0.00000  -0.00697  -0.00700  -0.00739
   D19        0.00585  -0.00005   0.00000  -0.00128  -0.00128   0.00456
   D20        3.12806  -0.00008   0.00000  -0.00274  -0.00274   3.12532
   D21       -3.13994   0.00005   0.00000   0.00235   0.00233  -3.13761
   D22       -0.01773   0.00002   0.00000   0.00089   0.00088  -0.01686
   D23       -0.00302   0.00019   0.00000   0.00473   0.00471   0.00169
   D24       -3.13935   0.00006   0.00000   0.00015   0.00017  -3.13918
   D25       -2.91085   0.00019   0.00000   0.00114   0.00099  -2.90986
   D26        0.25285   0.00021   0.00000   0.00285   0.00269   0.25554
   D27       -0.82163  -0.00062   0.00000  -0.00878  -0.00858  -0.83020
   D28        2.34207  -0.00061   0.00000  -0.00707  -0.00688   2.33520
   D29        1.27778   0.00038   0.00000   0.00356   0.00352   1.28130
   D30       -1.84171   0.00040   0.00000   0.00527   0.00522  -1.83649
   D31        0.11725   0.00014   0.00000   0.01284   0.01284   0.13009
   D32       -0.11771  -0.00015   0.00000  -0.01357  -0.01357  -0.13129
   D33        2.08600   0.00065   0.00000   0.02838   0.02838   2.11438
   D34       -2.08595  -0.00065   0.00000  -0.02838  -0.02838  -2.11433
         Item               Value     Threshold  Converged?
 Maximum Force            0.025827     0.000450     NO 
 RMS     Force            0.006404     0.000300     NO 
 Maximum Displacement     0.463976     0.001800     NO 
 RMS     Displacement     0.120360     0.001200     NO 
 Predicted change in Energy=-4.510353D-03
 GradGradGradGradGradGradGradGradGradGradGradGradGradGradGradGradGradGrad

                          Input orientation:                          
 ---------------------------------------------------------------------
 Center     Atomic      Atomic             Coordinates (Angstroms)
 Number     Number       Type             X           Y           Z
 ---------------------------------------------------------------------
      1          6           0        1.145405    0.339341   -0.020116
      2          6           0        0.663870   -1.085169   -0.069254
      3          6           0       -0.669854   -1.083662   -0.069756
      4          6           0       -1.148462    0.341736   -0.021015
      5          1           0        1.363673   -1.909374   -0.092495
      6          1           0       -1.371567   -1.906210   -0.093424
      7          6           0        0.010070    2.593529    0.042522
      8          1           0       -0.994403    2.930483    0.299748
      9          1           0        0.715298    2.939083    0.801593
     10          1           0        0.293204    3.003576   -0.931528
     11          7           0        0.000386    1.142523    0.010686
     12          8           0       -2.285534    0.776891   -0.008567
     13          8           0        2.282407    0.774897   -0.006898
     14          8           0       -3.869477   -1.700718   -0.024188
     15          1           0       -4.461644   -1.837037    0.726486
     16          1           0       -3.707814   -0.741950   -0.061986
     17          8           0        3.869414   -1.700556   -0.025326
     18          1           0        3.705777   -0.742077   -0.062297
     19          1           0        4.462411   -1.836219    0.724817
 ---------------------------------------------------------------------
                    Distance matrix (angstroms):
                    1          2          3          4          5
     1  C    0.000000
     2  C    1.504500   0.000000
     3  C    2.307070   1.333725   0.000000
     4  C    2.293869   2.307148   1.504394   0.000000
     5  H    2.260442   1.081470   2.194891   3.373933   0.000000
     6  H    3.373874   2.194924   1.081455   2.260151   2.735241
     7  C    2.524732   3.738016   3.741208   2.533141   4.703892
     8  H    3.375664   4.360217   4.044160   2.613089   5.398017
     9  H    2.760227   4.117720   4.342853   3.300984   4.972657
    10  H    2.941949   4.195085   4.286683   3.161143   5.097740
    11  N    1.398971   2.325771   2.326284   1.400756   3.344140
    12  O    3.458747   3.488543   2.464919   1.217558   4.532083
    13  O    1.217643   2.466454   3.489132   3.458134   2.838434
    14  O    5.413954   4.575168   3.258898   3.402286   5.237753
    15  H    6.060778   5.241125   3.947055   4.035218   5.883050
    16  H    4.972392   4.385142   3.057127   2.779629   5.204209
    17  O    3.403150   3.264375   4.581210   5.417569   2.515324
    18  H    2.779703   3.061203   4.388951   4.973931   2.617049
    19  H    4.036151   3.952663   5.247651   6.064788   3.205547
                    6          7          8          9         10
     6  H    0.000000
     7  C    4.709039   0.000000
     8  H    4.867282   1.090261   0.000000
     9  H    5.350974   1.092219   1.781853   0.000000
    10  H    5.251655   1.094110   1.783063   1.784946   0.000000
    11  N    3.344827   1.451387   2.066389   2.089081   2.106425
    12  O    2.835766   2.927897   2.529829   3.786347   3.529854
    13  O    4.532918   2.910906   3.934217   2.791628   3.127119
    14  O    2.507304   5.787563   5.460678   6.574939   6.346775
    15  H    3.197751   6.331978   5.910424   7.043982   6.984921
    16  H    2.610468   4.995899   4.580417   5.818908   5.549164
    17  O    5.245456   5.773932   6.723757   5.670846   5.978238
    18  H    5.209184   4.979508   5.975823   4.820810   5.141121
    19  H    5.891495   6.317557   7.258026   6.070441   6.599195
                   11         12         13         14         15
    11  N    0.000000
    12  O    2.315057   0.000000
    13  O    2.311509   4.567941   0.000000
    14  O    4.802195   2.940691   6.631337   0.000000
    15  H    5.412934   3.479709   7.269268   0.965793   0.000000
    16  H    4.160201   2.081493   6.179531   0.973036   1.545691
    17  O    4.801434   6.634863   2.940544   7.738890   8.366024
    18  H    4.157759   6.181097   2.080928   7.635765   8.278157
    19  H    5.412260   7.273305   3.479332   8.366584   8.924055
                   16         17         18         19
    16  H    0.000000
    17  O    7.637712   0.000000
    18  H    7.413591   0.973050   0.000000
    19  H    8.280644   0.965798   1.545701   0.000000
 Stoichiometry    C5H9NO4
 Framework group  C1[X(C5H9NO4)]
 Deg. of freedom    51
 Full point group                 C1      NOp   1
 Largest Abelian subgroup         C1      NOp   1
 Largest concise Abelian subgroup C1      NOp   1
                         Standard orientation:                         
 ---------------------------------------------------------------------
 Center     Atomic      Atomic             Coordinates (Angstroms)
 Number     Number       Type             X           Y           Z
 ---------------------------------------------------------------------
      1          6           0        1.145828    0.341755   -0.021425
      2          6           0        0.663156   -1.082478   -0.067314
      3          6           0       -0.670566   -1.079910   -0.067803
      4          6           0       -1.148037    0.345977   -0.022302
      5          1           0        1.362302   -1.907291   -0.088687
      6          1           0       -1.372934   -1.901950   -0.089589
      7          6           0        0.012291    2.596984    0.036094
      8          1           0       -0.991909    2.935324    0.292564
      9          1           0        0.717805    2.943703    0.794368
     10          1           0        0.295739    3.004587   -0.938890
     11          7           0        0.001450    1.145918    0.007562
     12          8           0       -2.284761    0.782066   -0.010831
     13          8           0        2.283176    0.776434   -0.009212
     14          8           0       -3.870679   -1.694309   -0.020792
     15          1           0       -4.462944   -1.828446    0.730197
     16          1           0       -3.708253   -0.735759   -0.060775
     17          8           0        3.868209   -1.700319   -0.022023
     18          1           0        3.705336   -0.741796   -0.061174
     19          1           0        4.461109   -1.834746    0.728420
 ---------------------------------------------------------------------
 Rotational constants (GHZ):      1.7649804      0.6613818      0.4837149
 Standard basis: 6-31+G(d,p) (6D, 7F)
 There are   235 symmetry adapted cartesian basis functions of A   symmetry.
 There are   235 symmetry adapted basis functions of A   symmetry.
   235 basis functions,   383 primitive gaussians,   235 cartesian basis functions
    39 alpha electrons       39 beta electrons
       nuclear repulsion energy       522.9050615479 Hartrees.
 NAtoms=   19 NActive=   19 NUniq=   19 SFac= 1.00D+00 NAtFMM=   60 NAOKFM=F Big=F
 Integral buffers will be    131072 words long.
 Raffenetti 2 integral format.
 Two-electron integral symmetry is turned on.
 Nuclear repulsion after empirical dispersion term =      522.8910743539 Hartrees.
 ------------------------------------------------------------------------------
 Polarizable Continuum Model (PCM)
 =================================
 Model                : C-PCM.
 Atomic radii         : UFF (Universal Force Field).
 Polarization charges : Total charges.
 Charge compensation  : None.
 Solution method      : On-the-fly selection.
 Cavity type          : Scaled VdW (van der Waals Surface) (Alpha=1.100).
 Cavity algorithm     : GePol (No added spheres)
                        Default sphere list used, NSphG=   19.
                        Lebedev-Laikov grids with approx.  5.0 points / Ang**2.
                        Smoothing algorithm: Karplus/York (Gamma=1.0000).
                        Polarization charges: spherical gaussians, with
                                              point-specific exponents (IZeta= 3).
                        Self-potential: point-specific (ISelfS= 7).
                        Self-field    : sphere-specific E.n sum rule (ISelfD= 2).
 1st derivatives      : Analytical E(r).r(x)/FMM algorithm (CHGder, D1EAlg=3).
                        Cavity 1st derivative terms included.
 Solvent              : Water, Eps=  78.355300 Eps(inf)=   1.777849
 ------------------------------------------------------------------------------
 Spheres list:
 ISph  on   Nord     Re0    Alpha      Xe            Ye            Ze
    1   C      1    1.9255  1.100      1.145828      0.341755     -0.021425
    2   C      2    1.9255  1.100      0.663156     -1.082478     -0.067314
    3   C      3    1.9255  1.100     -0.670566     -1.079910     -0.067803
    4   C      4    1.9255  1.100     -1.148037      0.345977     -0.022302
    5   H      5    1.4430  1.100      1.362302     -1.907291     -0.088687
    6   H      6    1.4430  1.100     -1.372934     -1.901950     -0.089589
    7   C      7    1.9255  1.100      0.012291      2.596984      0.036094
    8   H      8    1.4430  1.100     -0.991909      2.935324      0.292564
    9   H      9    1.4430  1.100      0.717805      2.943703      0.794368
   10   H     10    1.4430  1.100      0.295739      3.004587     -0.938890
   11   N     11    1.8300  1.100      0.001450      1.145918      0.007562
   12   O     12    1.7500  1.100     -2.284761      0.782066     -0.010831
   13   O     13    1.7500  1.100      2.283176      0.776434     -0.009212
   14   O     14    1.7500  1.100     -3.870679     -1.694309     -0.020792
   15   H     15    1.4430  1.100     -4.462944     -1.828446      0.730197
   16   H     16    1.4430  1.100     -3.708253     -0.735759     -0.060775
   17   O     17    1.7500  1.100      3.868209     -1.700319     -0.022023
   18   H     18    1.4430  1.100      3.705336     -0.741796     -0.061174
   19   H     19    1.4430  1.100      4.461109     -1.834746      0.728420
 ------------------------------------------------------------------------------
 One-electron integrals computed using PRISM.
 NBasis=   235 RedAO= T EigKep=  8.18D-06  NBF=   235
 NBsUse=   235 1.00D-06 EigRej= -1.00D+00 NBFU=   235
 Initial guess from the checkpoint file:  "b3lyp_PM6_2H2O_dienophile_pm6_cpcmtoluene_1_water.chk"
 B after Tr=     0.000000    0.000000    0.000000
         Rot=    0.999999    0.000905   -0.000007    0.000451 Ang=   0.12 deg.
 ExpMin= 4.38D-02 ExpMax= 5.48D+03 ExpMxC= 8.25D+02 IAcc=2 IRadAn=         4 AccDes= 0.00D+00
 Harris functional with IExCor=  402 and IRadAn=       4 diagonalized for initial guess.
 HarFok:  IExCor=  402 AccDes= 0.00D+00 IRadAn=         4 IDoV= 1 UseB2=F ITyADJ=14
 ICtDFT=  3500011 ScaDFX=  1.000000  1.000000  1.000000  1.000000
 FoFCou: FMM=F IPFlag=           0 FMFlag=      100000 FMFlg1=           0
         NFxFlg=           0 DoJE=T BraDBF=F KetDBF=T FulRan=T
         wScrn=  0.000000 ICntrl=     500 IOpCl=  0 I1Cent=   200000004 NGrid=           0
         NMat0=    1 NMatS0=      1 NMatT0=    0 NMatD0=    1 NMtDS0=    0 NMtDT0=    0
 Petite list used in FoFCou.
 Requested convergence on RMS density matrix=1.00D-08 within 128 cycles.
 Requested convergence on MAX density matrix=1.00D-06.
 Requested convergence on             energy=1.00D-06.
 No special actions if energy rises.
 Inv3:  Mode=1 IEnd=     9271692.
 Iteration    1 A*A^-1 deviation from unit magnitude is 6.22D-15 for   1730.
 Iteration    1 A*A^-1 deviation from orthogonality  is 1.90D-15 for   1748    844.
 Iteration    1 A^-1*A deviation from unit magnitude is 6.22D-15 for   1730.
 Iteration    1 A^-1*A deviation from orthogonality  is 1.15D-15 for   1756   1753.
 Error on total polarization charges =  0.01489
 SCF Done:  E(RB3LYP) =  -551.684800424     A.U. after   12 cycles
            NFock= 12  Conv=0.51D-08     -V/T= 2.0094
 D1PCM: C-PCM CHGder 1st derivatives, ID1Alg=3 FixD1E=F DoIter=F DoCFld=F I1PDM=0.
 Calling FoFJK, ICntrl=      2127 FMM=F ISym2X=0 I1Cent= 0 IOpClX= 0 NMat=1 NMatS=1 NMatT=0.
 ***** Axes restored to original set *****
 -------------------------------------------------------------------
 Center     Atomic                   Forces (Hartrees/Bohr)
 Number     Number              X              Y              Z
 -------------------------------------------------------------------
      1        6          -0.016229527    0.003287947   -0.000093170
      2        6           0.007128218    0.000938246    0.000080013
      3        6          -0.006843256    0.001076443    0.000085448
      4        6           0.015436432    0.003693440   -0.000039391
      5        1          -0.000162081   -0.000627091    0.000020430
      6        1           0.000113996   -0.000566918    0.000021499
      7        6          -0.000109830    0.002288439    0.000640805
      8        1           0.000049247    0.000215157   -0.000227835
      9        1          -0.000004383   -0.000161416   -0.000470395
     10        1           0.000054338   -0.000319860    0.000351793
     11        7           0.000353265   -0.007734861   -0.000088494
     12        8          -0.009192742   -0.000907230   -0.000547635
     13        8           0.009473741   -0.000362763   -0.000554802
     14        8          -0.001269826    0.000295717   -0.001183056
     15        1          -0.000346808    0.000338055    0.000114803
     16        1           0.003006138   -0.001044141    0.001476480
     17        8           0.001254388    0.000276258   -0.001178169
     18        1          -0.003053997   -0.001023421    0.001479033
     19        1           0.000342688    0.000337998    0.000112645
 -------------------------------------------------------------------
 Cartesian Forces:  Max     0.016229527 RMS     0.003973837

 GradGradGradGradGradGradGradGradGradGradGradGradGradGradGradGradGradGrad
 Berny optimization.
 Using GEDIIS/GDIIS optimizer.
 FormGI is forming the generalized inverse of G from B-inverse, IUseBI=4.
 GSVD:  received Info=                   1 from GESDD.
 Internal  Forces:  Max     0.007209945 RMS     0.002016782
 Search for a local minimum.
 Step number   2 out of a maximum of   90
 All quantities printed in internal units (Hartrees-Bohrs-Radians)
 Mixed Optimization -- RFO/linear search
 Update second derivatives using D2CorX and points    1    2
 DE= -4.76D-03 DEPred=-4.51D-03 R= 1.05D+00
 TightC=F SS=  1.41D+00  RLast= 1.81D-01 DXNew= 5.0454D-01 5.4169D-01
 Trust test= 1.05D+00 RLast= 1.81D-01 DXMaxT set to 5.05D-01
 ITU=  1  0
 Use linear search instead of GDIIS.
     Eigenvalues ---    0.00230   0.00231   0.00720   0.00871   0.01110
     Eigenvalues ---    0.01135   0.01426   0.01430   0.01618   0.01785
     Eigenvalues ---    0.01818   0.02247   0.03888   0.03951   0.04228
     Eigenvalues ---    0.04230   0.07362   0.07661   0.15667   0.15999
     Eigenvalues ---    0.16000   0.16000   0.16000   0.16000   0.16000
     Eigenvalues ---    0.16000   0.16689   0.21485   0.22710   0.24882
     Eigenvalues ---    0.24991   0.25000   0.25000   0.26314   0.29563
     Eigenvalues ---    0.30459   0.33108   0.33131   0.33452   0.35219
     Eigenvalues ---    0.35227   0.35370   0.38210   0.39636   0.53450
     Eigenvalues ---    0.53550   0.55596   0.55860   0.56553   0.96923
     Eigenvalues ---    1.00811
 RFO step:  Lambda=-1.15103367D-03 EMin= 2.29999911D-03
 Quartic linear search produced a step of  0.11242.
 Iteration  1 RMS(Cart)=  0.03908651 RMS(Int)=  0.00057321
 Iteration  2 RMS(Cart)=  0.00071449 RMS(Int)=  0.00002456
 Iteration  3 RMS(Cart)=  0.00000080 RMS(Int)=  0.00002456
 Variable       Old X    -DE/DX   Delta X   Delta X   Delta X     New X
                                 (Linear)    (Quad)   (Total)
    R1        2.84309  -0.00188  -0.00261  -0.00685  -0.00945   2.83364
    R2        2.64367  -0.00469  -0.00730  -0.01528  -0.02258   2.62109
    R3        2.30101   0.00721   0.00202   0.00836   0.01038   2.31139
    R4        2.52037   0.00240  -0.00063   0.00529   0.00466   2.52504
    R5        2.04368   0.00037  -0.00107   0.00096  -0.00011   2.04357
    R6        2.84289  -0.00174  -0.00257  -0.00627  -0.00884   2.83405
    R7        2.04365   0.00036  -0.00107   0.00091  -0.00017   2.04349
    R8        2.64705  -0.00429  -0.00692  -0.01408  -0.02100   2.62605
    R9        2.30085   0.00681   0.00197   0.00792   0.00989   2.31074
   R10        2.06029  -0.00003  -0.00315  -0.00075  -0.00390   2.05640
   R11        2.06399  -0.00038  -0.00271  -0.00184  -0.00455   2.05945
   R12        2.06757  -0.00041  -0.00236  -0.00187  -0.00422   2.06334
   R13        2.74272   0.00203  -0.00469   0.00541   0.00072   2.74344
   R14        3.93345  -0.00066   0.00391  -0.01763  -0.01372   3.91973
   R15        3.93238  -0.00071   0.00391  -0.01903  -0.01512   3.91726
   R16        1.82508   0.00026   0.00161   0.00084   0.00245   1.82753
   R17        1.83877  -0.00040   0.00072  -0.00068   0.00005   1.83882
   R18        1.83880  -0.00038   0.00072  -0.00064   0.00008   1.83888
   R19        1.82509   0.00025   0.00161   0.00083   0.00245   1.82754
    A1        1.85704   0.00231   0.00225   0.00996   0.01221   1.86925
    A2        2.26257  -0.00614   0.00011  -0.02681  -0.02670   2.23587
    A3        2.16357   0.00383  -0.00236   0.01685   0.01449   2.17805
    A4        1.89548  -0.00193  -0.00191  -0.00703  -0.00895   1.88653
    A5        2.11202   0.00150   0.00207   0.00746   0.00954   2.12156
    A6        2.27567   0.00042  -0.00016  -0.00044  -0.00059   2.27508
    A7        1.89568  -0.00166  -0.00188  -0.00563  -0.00753   1.88815
    A8        2.27576   0.00037  -0.00016  -0.00061  -0.00077   2.27499
    A9        2.11173   0.00129   0.00204   0.00624   0.00829   2.12002
   A10        1.85612   0.00198   0.00212   0.00856   0.01066   1.86678
   A11        2.26020  -0.00637  -0.00027  -0.02795  -0.02822   2.23198
   A12        2.16687   0.00439  -0.00185   0.01939   0.01754   2.18441
   A13        1.91042   0.00011   0.00244   0.00321   0.00559   1.91600
   A14        1.90989  -0.00005   0.00218   0.00012   0.00227   1.91216
   A15        1.88389   0.00050  -0.00483   0.00349  -0.00137   1.88252
   A16        1.91034  -0.00006   0.00194  -0.00190   0.00003   1.91037
   A17        1.91330  -0.00007  -0.00180  -0.00092  -0.00275   1.91055
   A18        1.93572  -0.00042   0.00018  -0.00383  -0.00366   1.93206
   A19        1.92044  -0.00071  -0.00058  -0.00590  -0.00649   1.91395
   A20        2.17608  -0.00004  -0.00002   0.00108   0.00105   2.17713
   A21        2.18646   0.00075   0.00060   0.00471   0.00530   2.19176
   A22        1.95743  -0.00150   0.00624  -0.00910  -0.00287   1.95457
   A23        1.95806  -0.00171   0.00626  -0.01053  -0.00426   1.95380
   A24        1.84537  -0.00065  -0.00024  -0.00451  -0.00475   1.84062
   A25        2.55263   0.00374   0.00322   0.01723   0.02045   2.57308
   A26        1.84536  -0.00065  -0.00024  -0.00452  -0.00477   1.84060
   A27        2.55366   0.00371   0.00322   0.01707   0.02028   2.57394
    D1        0.00274   0.00007  -0.00009   0.00583   0.00576   0.00850
    D2       -3.13369   0.00008   0.00035   0.00668   0.00703  -3.12666
    D3       -3.13923  -0.00001   0.00035   0.00121   0.00162  -3.13761
    D4        0.00752   0.00000   0.00079   0.00206   0.00289   0.01041
    D5       -0.00455  -0.00011   0.00015  -0.00946  -0.00933  -0.01388
    D6       -3.12546  -0.00007   0.00030  -0.00331  -0.00307  -3.12853
    D7        3.13739  -0.00003  -0.00027  -0.00516  -0.00535   3.13204
    D8        0.01649   0.00001  -0.00011   0.00099   0.00091   0.01739
    D9       -0.00024   0.00005  -0.00057   0.00263   0.00205   0.00181
   D10        3.14091  -0.00005  -0.00006  -0.00272  -0.00277   3.13815
   D11        0.00002   0.00000   0.00000  -0.00015  -0.00015  -0.00012
   D12       -3.13567   0.00001   0.00050   0.00096   0.00142  -3.13425
   D13        3.13581  -0.00001  -0.00050  -0.00108  -0.00153   3.13428
   D14        0.00012   0.00000   0.00000   0.00004   0.00003   0.00015
   D15       -0.00277  -0.00007   0.00009  -0.00557  -0.00550  -0.00827
   D16        3.13944   0.00002  -0.00034  -0.00074  -0.00116   3.13828
   D17        3.13357  -0.00008  -0.00036  -0.00658  -0.00693   3.12665
   D18       -0.00739   0.00001  -0.00079  -0.00175  -0.00259  -0.00999
   D19        0.00456   0.00011  -0.00014   0.00937   0.00923   0.01379
   D20        3.12532   0.00005  -0.00031   0.00312   0.00284   3.12816
   D21       -3.13761   0.00003   0.00026   0.00484   0.00502  -3.13259
   D22       -0.01686  -0.00003   0.00010  -0.00140  -0.00136  -0.01822
   D23        0.00169  -0.00008   0.00053  -0.00346  -0.00292  -0.00123
   D24       -3.13918   0.00002   0.00002   0.00215   0.00216  -3.13702
   D25       -2.90986  -0.00018   0.00011  -0.00763  -0.00753  -2.91739
   D26        0.25554  -0.00011   0.00030  -0.00043  -0.00014   0.25540
   D27       -0.83020   0.00021  -0.00096  -0.00224  -0.00318  -0.83338
   D28        2.33520   0.00028  -0.00077   0.00497   0.00421   2.33941
   D29        1.28130  -0.00018   0.00040  -0.00769  -0.00729   1.27400
   D30       -1.83649  -0.00011   0.00059  -0.00049   0.00009  -1.83639
   D31        0.13009  -0.00026   0.00144  -0.08387  -0.08243   0.04766
   D32       -0.13129   0.00026  -0.00153   0.08272   0.08120  -0.05009
   D33        2.11438   0.00042   0.00319   0.03085   0.03404   2.14843
   D34       -2.11433  -0.00042  -0.00319  -0.03054  -0.03373  -2.14806
         Item               Value     Threshold  Converged?
 Maximum Force            0.007210     0.000450     NO 
 RMS     Force            0.002017     0.000300     NO 
 Maximum Displacement     0.117765     0.001800     NO 
 RMS     Displacement     0.039352     0.001200     NO 
 Predicted change in Energy=-6.336402D-04
 GradGradGradGradGradGradGradGradGradGradGradGradGradGradGradGradGradGrad

                          Input orientation:                          
 ---------------------------------------------------------------------
 Center     Atomic      Atomic             Coordinates (Angstroms)
 Number     Number       Type             X           Y           Z
 ---------------------------------------------------------------------
      1          6           0        1.131879    0.360825   -0.014699
      2          6           0        0.664237   -1.063486   -0.048534
      3          6           0       -0.671954   -1.061573   -0.048806
      4          6           0       -1.137917    0.363516   -0.014997
      5          1           0        1.363259   -1.888494   -0.061973
      6          1           0       -1.373229   -1.884604   -0.062404
      7          6           0        0.012837    2.612806    0.037785
      8          1           0       -0.990230    2.951912    0.288864
      9          1           0        0.718632    2.957857    0.793089
     10          1           0        0.300017    3.011296   -0.937368
     11          7           0       -0.000472    1.161274    0.015258
     12          8           0       -2.288546    0.777318   -0.008619
     13          8           0        2.281723    0.777811   -0.008385
     14          8           0       -3.826307   -1.729511   -0.054654
     15          1           0       -4.400337   -1.897883    0.705214
     16          1           0       -3.670259   -0.769045   -0.054065
     17          8           0        3.824247   -1.724976   -0.055243
     18          1           0        3.665487   -0.764920   -0.055224
     19          1           0        4.400093   -1.891035    0.703765
 ---------------------------------------------------------------------
                    Distance matrix (angstroms):
                    1          2          3          4          5
     1  C    0.000000
     2  C    1.499498   0.000000
     3  C    2.297431   1.336192   0.000000
     4  C    2.269797   2.298961   1.499715   0.000000
     5  H    2.261682   1.081411   2.196830   3.365953   0.000000
     6  H    3.364490   2.196747   1.081366   2.260899   2.736491
     7  C    2.515239   3.734554   3.738648   2.527117   4.700562
     8  H    3.362920   4.355975   4.040220   2.610351   5.393656
     9  H    2.750976   4.108830   4.335704   3.290954   4.963244
    10  H    2.927167   4.186469   4.280482   3.151056   5.089669
    11  N    1.387024   2.322814   2.322937   1.389645   3.341678
    12  O    3.445694   3.479810   2.448776   1.222792   4.521623
    13  O    1.223135   2.451173   3.479824   3.444651   2.820572
    14  O    5.380958   4.539672   3.224302   3.407313   5.192006
    15  H    6.018758   5.187896   3.894715   4.034354   5.814439
    16  H    4.933425   4.344489   3.012546   2.774343   5.156504
    17  O    3.406032   3.228510   4.544883   5.383910   2.466423
    18  H    2.772746   3.016072   4.347578   4.934337   2.561780
    19  H    4.033396   3.899667   5.194230   6.022389   3.131887
                    6          7          8          9         10
     6  H    0.000000
     7  C    4.707219   0.000000
     8  H    4.864356   1.088199   0.000000
     9  H    5.343892   1.089813   1.781710   0.000000
    10  H    5.247394   1.091875   1.780985   1.781173   0.000000
    11  N    3.341835   1.451768   2.064187   2.085628   2.102468
    12  O    2.815408   2.944067   2.550094   3.800080   3.543147
    13  O    4.522173   2.918421   3.939639   2.799681   3.127079
    14  O    2.457989   5.796834   5.484256   6.583811   6.346730
    15  H    3.122947   6.345697   5.943289   7.056187   6.992241
    16  H    2.553603   5.001054   4.598443   5.819779   5.552863
    17  O    5.199932   5.775106   6.720929   5.682731   5.969138
    18  H    5.161628   4.975896   5.967323   4.823138   5.134625
    19  H    5.823942   6.322667   7.258227   6.088750   6.598241
                   11         12         13         14         15
    11  N    0.000000
    12  O    2.320188   0.000000
    13  O    2.314308   4.570269   0.000000
    14  O    4.795679   2.941262   6.602791   0.000000
    15  H    5.403081   3.482229   7.233152   0.967087   0.000000
    16  H    4.147080   2.074231   6.149873   0.973060   1.543954
    17  O    4.792065   6.605292   2.940326   7.650556   8.261475
    18  H    4.141793   6.150706   2.072925   7.553637   8.180427
    19  H    5.399593   7.236400   3.481003   8.262866   8.800432
                   16         17         18         19
    16  H    0.000000
    17  O    7.555225   0.000000
    18  H    7.335747   0.973093   0.000000
    19  H    8.183137   0.967092   1.543970   0.000000
 Stoichiometry    C5H9NO4
 Framework group  C1[X(C5H9NO4)]
 Deg. of freedom    51
 Full point group                 C1      NOp   1
 Largest Abelian subgroup         C1      NOp   1
 Largest concise Abelian subgroup C1      NOp   1
                         Standard orientation:                         
 ---------------------------------------------------------------------
 Center     Atomic      Atomic             Coordinates (Angstroms)
 Number     Number       Type             X           Y           Z
 ---------------------------------------------------------------------
      1          6           0        1.133480    0.357994   -0.014651
      2          6           0        0.662869   -1.065472   -0.042266
      3          6           0       -0.673315   -1.060773   -0.042588
      4          6           0       -1.136305    0.365420   -0.015032
      5          1           0        1.360168   -1.891988   -0.052071
      6          1           0       -1.376306   -1.882391   -0.052604
      7          6           0        0.019138    2.612513    0.027939
      8          1           0       -0.983225    2.954807    0.277499
      9          1           0        0.725636    2.959394    0.781747
     10          1           0        0.307171    3.006130   -0.948941
     11          7           0        0.002801    1.160927    0.011765
     12          8           0       -2.286068    0.781645   -0.010501
     13          8           0        2.284192    0.772604   -0.010128
     14          8           0       -3.829056   -1.722148   -0.045609
     15          1           0       -4.403452   -1.885994    0.714971
     16          1           0       -3.671003   -0.762016   -0.049220
     17          8           0        3.821492   -1.733577   -0.045981
     18          1           0        3.664736   -0.773201   -0.050170
     19          1           0        4.396973   -1.897513    0.713765
 ---------------------------------------------------------------------
 Rotational constants (GHZ):      1.7370569      0.6729119      0.4875881
 Standard basis: 6-31+G(d,p) (6D, 7F)
 There are   235 symmetry adapted cartesian basis functions of A   symmetry.
 There are   235 symmetry adapted basis functions of A   symmetry.
   235 basis functions,   383 primitive gaussians,   235 cartesian basis functions
    39 alpha electrons       39 beta electrons
       nuclear repulsion energy       524.0883491187 Hartrees.
 NAtoms=   19 NActive=   19 NUniq=   19 SFac= 1.00D+00 NAtFMM=   60 NAOKFM=F Big=F
 Integral buffers will be    131072 words long.
 Raffenetti 2 integral format.
 Two-electron integral symmetry is turned on.
 Nuclear repulsion after empirical dispersion term =      524.0742582926 Hartrees.
 ------------------------------------------------------------------------------
 Polarizable Continuum Model (PCM)
 =================================
 Model                : C-PCM.
 Atomic radii         : UFF (Universal Force Field).
 Polarization charges : Total charges.
 Charge compensation  : None.
 Solution method      : On-the-fly selection.
 Cavity type          : Scaled VdW (van der Waals Surface) (Alpha=1.100).
 Cavity algorithm     : GePol (No added spheres)
                        Default sphere list used, NSphG=   19.
                        Lebedev-Laikov grids with approx.  5.0 points / Ang**2.
                        Smoothing algorithm: Karplus/York (Gamma=1.0000).
                        Polarization charges: spherical gaussians, with
                                              point-specific exponents (IZeta= 3).
                        Self-potential: point-specific (ISelfS= 7).
                        Self-field    : sphere-specific E.n sum rule (ISelfD= 2).
 1st derivatives      : Analytical E(r).r(x)/FMM algorithm (CHGder, D1EAlg=3).
                        Cavity 1st derivative terms included.
 Solvent              : Water, Eps=  78.355300 Eps(inf)=   1.777849
 ------------------------------------------------------------------------------
 Spheres list:
 ISph  on   Nord     Re0    Alpha      Xe            Ye            Ze
    1   C      1    1.9255  1.100      1.133480      0.357994     -0.014651
    2   C      2    1.9255  1.100      0.662869     -1.065472     -0.042266
    3   C      3    1.9255  1.100     -0.673315     -1.060773     -0.042588
    4   C      4    1.9255  1.100     -1.136305      0.365420     -0.015032
    5   H      5    1.4430  1.100      1.360168     -1.891988     -0.052071
    6   H      6    1.4430  1.100     -1.376306     -1.882391     -0.052604
    7   C      7    1.9255  1.100      0.019138      2.612513      0.027939
    8   H      8    1.4430  1.100     -0.983225      2.954807      0.277499
    9   H      9    1.4430  1.100      0.725636      2.959394      0.781747
   10   H     10    1.4430  1.100      0.307171      3.006130     -0.948941
   11   N     11    1.8300  1.100      0.002801      1.160927      0.011765
   12   O     12    1.7500  1.100     -2.286068      0.781645     -0.010501
   13   O     13    1.7500  1.100      2.284192      0.772604     -0.010128
   14   O     14    1.7500  1.100     -3.829056     -1.722148     -0.045609
   15   H     15    1.4430  1.100     -4.403452     -1.885994      0.714971
   16   H     16    1.4430  1.100     -3.671003     -0.762016     -0.049220
   17   O     17    1.7500  1.100      3.821492     -1.733577     -0.045981
[...]
 00005633,0.92121584,-0.03081702,0.06989019,0.00291615,0.02192864,-0.01
 115953,-0.00063193,0.00300799,-0.18732742,-0.00343731,-0.16044799,0.55
 914981,-0.00006384,0.00227399,-0.01738426,0.00106264,-0.00072072,0.003
 09093,0.00033464,-0.00335562,-0.07270086,-0.01307602,0.01278446,0.1902
 2880,0.01119356,-0.00963803,-0.00039959,-0.17986358,0.15105864,0.00606
 467,-0.00740435,0.02308961,0.00086786,-0.00464146,-0.00356200,0.000059
 12,0.17958924,0.01938899,-0.01004845,-0.00050664,0.14894887,-0.2380609
 9,-0.00766315,-0.00500623,0.00999060,0.00012494,-0.00322481,-0.0022387
 3,-0.00040119,-0.16003463,0.24174831,0.00052976,-0.00018621,0.00019830
 ,0.00598430,-0.00762643,-0.03629159,0.00001930,-0.00020258,0.00785536,
 0.00007221,-0.00040060,0.01217448,-0.00647799,0.00820057,0.02398432,-0
 .00461709,0.00356048,0.00029138,-0.00748322,-0.02300371,-0.00054516,-0
 .18125955,-0.15148424,-0.00306369,0.01108336,0.00962077,0.00017101,0.0
 0117478,0.00061694,-0.00005834,0.18101217,0.00318113,-0.00226891,-0.00
 047157,0.00508269,0.01007407,0.00001816,-0.14924342,-0.23679489,-0.004
 50731,-0.01937302,-0.01012205,-0.00010342,-0.00061974,0.00007042,0.000
 17908,0.16025655,0.24050947,0.00028059,-0.00047635,0.01216254,0.000308
 67,0.00028378,0.00796645,-0.00298651,-0.00443552,-0.03615372,-0.000753
 59,-0.00039304,0.00023862,-0.00008256,0.00016531,-0.00555027,0.0032253
 3,0.00482791,0.02378232,0.00732143,0.02841499,0.00063181,-0.00583078,0
 .00281544,0.00023881,-0.00370752,-0.00406288,-0.00012709,0.01292031,-0
 .02481581,-0.00076667,0.00100635,0.00131167,0.00006330,0.00086400,-0.0
 0104420,-0.00005131,0.61978559,0.01781795,-0.02282685,-0.00086027,-0.0
 0021185,0.00351833,0.00002113,0.00013542,0.00350629,-0.00002613,-0.020
 19897,-0.02158363,-0.00024641,-0.00000843,0.00056335,-0.00000715,0.000
 00511,0.00060264,-0.00001709,0.00223109,0.46456274,0.00004101,-0.00073
 612,-0.00145573,-0.00005702,-0.00008069,0.00225120,0.00022528,-0.00004
 320,0.00343827,-0.00039043,0.00006995,-0.00603075,0.00000236,-0.000008
 31,0.00092881,0.00000243,0.00000617,0.00132914,-0.00046748,-0.00351722
 ,0.58220037,0.00064399,-0.00165807,-0.00008481,-0.00005919,0.00001428,
 -0.00001897,0.00004345,0.00011301,-0.00001171,-0.00208071,-0.00117485,
 0.00003898,-0.00003748,-0.00001937,-0.00000233,-0.00001473,0.00006101,
 0.00000364,-0.30424019,0.08525661,-0.00512053,0.32230139,-0.00541209,-
 0.00456803,0.00012569,0.00156624,-0.00127597,-0.00011027,0.00022383,0.
 00009683,0.00000026,0.00390883,-0.00017080,-0.00004845,-0.00035881,-0.
 00042409,-0.00003051,-0.00007241,0.00006882,0.00000200,0.07238324,-0.0
 7299514,0.00141607,-0.08970165,0.08912075,-0.00001482,-0.00020440,-0.0
 0026468,0.00007325,-0.00004026,0.00033354,0.00000592,0.00001915,-0.000
 02943,0.00001977,-0.00001027,0.00128548,-0.00001159,-0.00001714,0.0000
 0937,-0.00000374,0.00000244,-0.00004260,-0.00555050,0.00169119,-0.0487
 3856,0.00556423,-0.00110991,0.04551656,-0.00006166,0.00105817,0.000975
 32,0.00023615,0.00009306,-0.00037041,-0.00024830,0.00016432,-0.0000968
 2,-0.00034996,0.00003616,-0.00054050,-0.00000938,-0.00002809,-0.000019
 51,0.00002528,-0.00005374,0.00002950,-0.10382855,-0.03531907,-0.103149
 37,-0.01003051,-0.00926768,-0.02550576,0.10409813,-0.00485270,0.001370
 46,-0.00087340,-0.00060788,-0.00088063,0.00036049,-0.00029444,-0.00152
 922,0.00081349,0.00647205,-0.00071840,-0.00301985,0.00000696,-0.000013
 56,0.00013303,0.00019712,-0.00024629,0.00028937,-0.03120987,-0.0668749
 3,-0.06054777,0.00304328,0.00408932,0.00977889,0.04017368,0.08505248,-
 0.00180850,-0.00005055,0.00041784,0.00002971,-0.00020304,-0.00024619,0
 .00015328,-0.00010974,-0.00025169,0.00136371,0.00136790,-0.00015933,-0
 .00002111,-0.00002761,0.00000945,0.00000420,0.00001890,0.00000379,-0.1
 0342544,-0.06618513,-0.24652749,0.00120300,0.00146758,0.00165631,0.112
 08164,0.07303632,0.25810575,-0.00017523,0.00113180,-0.00088700,0.00026
 655,0.00007722,0.00035512,-0.00025912,0.00016314,0.00016662,-0.0003903
 7,0.00015036,0.00050371,-0.00001213,-0.00003714,0.00001212,0.00002326,
 -0.00005038,-0.00002802,-0.11619146,-0.04617708,0.10849302,-0.01123867
 ,-0.01073944,0.02403046,0.00814290,0.00577865,-0.01226472,0.11774725,-
 0.00475625,0.00124158,0.00087530,-0.00060984,-0.00078083,-0.00032953,-
 0.00043713,-0.00147862,-0.00086783,0.00660445,-0.00122143,0.00289525,0
 .00001492,0.00000467,-0.00011826,0.00020802,-0.00024975,-0.00031155,-0
 .04145673,-0.07530639,0.06847755,0.00368108,0.00475585,-0.00952412,0.0
 0541149,0.00468983,-0.00650405,0.05192467,0.09430634,0.00163190,0.0001
 1460,0.00061651,-0.00007438,0.00017979,-0.00023942,-0.00020261,0.00003
 264,-0.00024389,-0.00108625,-0.00147366,-0.00009301,0.00002139,0.00002
 569,0.00000066,0.00001078,-0.00003852,-0.00001585,0.10910764,0.0742633
 8,-0.22654501,-0.00178982,-0.00197436,0.00242513,0.01421927,0.00831858
 ,-0.01961102,-0.11773451,-0.07987043,0.23594832,-0.14000350,0.04024074
 ,0.00206414,0.01083800,0.01144133,0.00039712,0.00960865,-0.01143041,-0
 .00030087,-0.14060303,-0.03894628,-0.00025297,0.00003741,-0.00071118,-
 0.00004090,0.00009202,0.00059529,0.00003011,-0.10752616,-0.00384165,0.
 00042366,0.00430182,0.03878530,0.00143130,0.00116087,-0.01879474,0.002
 45831,0.00123454,-0.02069745,-0.00387616,0.58234531,0.06479218,-0.2078
 5111,-0.00511928,0.02081306,-0.05398437,-0.00226761,-0.02095987,-0.053
 90393,-0.00179406,-0.06091129,-0.20529465,-0.00397203,-0.00410742,-0.0
 0425740,-0.00009139,0.00410509,-0.00430961,-0.00016870,-0.00633783,-0.
 21320143,-0.00559990,0.00188012,-0.02115480,-0.00052905,-0.00093399,-0
 .02689843,-0.00350042,-0.00081818,-0.02812273,0.00118909,0.00428842,0.
 75948547,0.00285978,-0.00505145,-0.05918571,0.00083106,-0.00215388,0.0
 1532832,-0.00073209,-0.00188313,0.01439958,-0.00093830,-0.00434319,-0.
 05290059,-0.00014386,-0.00013497,-0.00013923,0.00013384,-0.00013912,-0
 .00052742,0.00032427,-0.00525172,-0.05727769,0.00030216,0.00019343,-0.
 00151022,0.00239213,-0.02821813,0.00674553,-0.00263858,0.02518818,0.00
 798770,-0.00498799,0.02093285,0.09371322,0.03001429,-0.02551309,-0.000
 98768,0.00544901,0.00357889,0.00008835,-0.02475358,0.02520163,0.001180
 77,-0.58088331,0.20100923,0.01195161,-0.00092511,0.00016875,-0.0000004
 9,0.00004683,0.00166851,0.00007040,-0.00174237,0.01059251,0.00022164,0
 .00045639,-0.00170428,-0.00002943,0.00019554,-0.00189533,-0.00035454,0
 .00016777,-0.00180105,0.00024071,-0.11338466,0.00229921,0.00156863,0.7
 0654704,-0.00164596,-0.01142274,-0.00055506,0.00131682,-0.00782588,-0.
 00032140,0.04587470,-0.00415565,-0.00113725,0.19157902,-0.18064801,-0.
 00559370,0.00229728,0.00121487,0.00008433,-0.00192687,0.00224344,0.000
 11998,0.00167056,-0.00056138,0.00022843,-0.00171786,0.00122371,0.00000
 048,-0.00065699,0.00092304,-0.00004141,-0.00077190,0.00096614,-0.00000
 520,-0.01971466,0.02967195,0.00068040,-0.21016949,0.17574123,-0.000341
 21,-0.00027280,0.00841011,-0.00000211,-0.00031692,0.00111923,0.0018847
 4,-0.00092823,0.01801298,0.01131988,-0.00556857,-0.06617425,0.00005567
 ,0.00010883,-0.00240858,-0.00007224,0.00008464,-0.00075974,0.00008804,
 -0.00009641,-0.00125565,-0.00009017,0.00003346,-0.00075181,0.00025615,
 -0.00015736,-0.00008979,-0.00025919,0.00024880,-0.00007642,0.00103535,
 0.00044277,0.01574347,-0.01385854,0.00633093,0.03205625,-0.58049731,-0
 .19993396,-0.00113055,-0.02446847,-0.02544000,-0.00030095,0.00538274,-
 0.00355568,-0.00017844,0.02936922,0.02536315,0.00052139,-0.00001710,-0
 .00174960,-0.00009085,-0.00092582,-0.00016613,-0.00002948,0.00099476,-
 0.01030885,-0.00022538,-0.00001976,0.00050448,-0.00000480,0.00068364,0
 .00194564,0.00055964,0.00069930,0.00186501,-0.00045100,-0.11458683,-0.
 00413698,0.00109885,-0.02162520,-0.00167499,0.00022902,0.70470252,-0.1
 9109356,-0.18128090,-0.00159436,-0.04569242,-0.00412015,-0.00016398,-0
 .00112626,-0.00784043,-0.00029923,0.00223465,-0.01094451,-0.00058465,0
 .00196187,0.00224692,0.00007771,-0.00227543,0.00123563,0.00013366,0.00
 010182,0.00135834,0.00035629,0.00026871,0.00121541,-0.00005895,-0.0007
 3335,0.00091527,0.00071039,-0.00069017,0.00108234,-0.00075049,0.018780
 77,0.03009512,0.00025458,0.00147098,0.00315812,0.00013521,0.21231247,0
 .17346313,-0.00054455,-0.00130860,-0.06610375,-0.00099900,-0.00039565,
 0.01793339,-0.00008735,-0.00024960,0.00118079,-0.00005972,-0.00077827,
 0.00835270,0.00005697,0.00011951,-0.00076536,-0.00008726,0.00011389,-0
 .00243386,-0.00006839,0.00020842,-0.00232535,0.00000369,0.00003197,0.0
 0011165,-0.00024399,0.00006972,-0.00005018,0.00023114,-0.00013816,-0.0
 0015044,0.00164579,0.00048481,0.01645497,0.00015741,0.00016457,-0.0018
 6531,-0.00016789,0.00175170,0.03168124,0.00173217,0.00015511,-0.000039
 35,-0.00037729,-0.00110928,-0.00001727,-0.00020233,0.00196160,0.000182
 16,0.00759234,-0.00160097,-0.00016639,-0.00006037,-0.00001987,0.000004
 43,0.00086072,-0.00109352,-0.00012577,-0.00007616,0.00066830,0.0000248
 2,0.00008204,0.00010315,-0.00000171,-0.00005409,-0.00013882,-0.0000233
 4,-0.00006365,-0.00013187,0.00000992,-0.00328731,-0.00040950,0.0000083
 4,-0.01029427,-0.00748494,0.00023873,-0.00181301,-0.00052022,-0.000001
 58,0.30059013,0.00182772,-0.00090076,-0.00004523,-0.00011907,0.0002297
 9,0.00003907,-0.00007875,-0.00010428,-0.00011778,0.00677486,-0.0036248
 0,-0.00006575,-0.00005891,0.00000434,-0.00000668,-0.00058777,0.0000236
 9,0.00008449,-0.00002187,0.00056045,0.00002115,0.00008044,0.00011633,-
 0.00000026,-0.00004283,-0.00009436,-0.00001840,-0.00005259,-0.00009142
 ,0.00000786,-0.00372918,0.00037587,-0.00005216,-0.01250246,-0.00399923
 ,0.00063515,-0.00148908,-0.00006431,0.00001499,0.24266268,0.37541846,-
 0.00018689,-0.00002331,-0.00013659,0.00002701,0.00010699,-0.00000019,0
 .00011420,-0.00014873,0.00027640,-0.00102898,-0.00001781,0.00028916,0.
 00001021,0.00000256,-0.00000392,-0.00012446,0.00009958,-0.00024019,0.0
 0001497,-0.00006519,-0.00001142,-0.00000930,-0.00001268,0.00000282,0.0
 0001583,0.00000996,0.00000196,-0.00000178,0.00001938,-0.00000197,0.000
 36610,0.00006825,-0.00037625,0.00128722,0.00113765,0.00270335,0.000195
 46,0.00006052,0.00004654,-0.22030350,0.03136879,0.42216391,-0.00001144
 ,0.00005149,0.00002862,-0.00000515,-0.00007392,-0.00003646,-0.00002523
 ,0.00019406,-0.00000755,0.00010713,0.00005516,-0.00003443,-0.00000122,
 -0.00000027,-0.00000200,-0.00005256,-0.00011100,0.00005860,-0.00000180
 ,0.00000411,0.00000284,-0.00000027,-0.00000016,-0.00000090,-0.00000221
 ,0.00000090,-0.00000011,0.00000038,-0.00000165,-0.00000012,0.00001888,
 -0.00002548,0.00005379,-0.00014353,-0.00061983,-0.00045796,-0.00001656
 ,-0.00002113,-0.00000493,-0.14978204,-0.03894327,0.21253278,0.16212510
 ,0.00012031,-0.00008674,0.00001873,0.00001791,0.00007869,-0.00002664,0
 .00013148,-0.00005052,0.00007025,0.00064618,-0.00023054,-0.00015124,-0
 .00000419,0.00000063,0.00000400,-0.00017421,0.00006767,-0.00004921,-0.
 00000252,0.00003163,0.00000147,0.00000373,0.00000836,-0.00000110,-0.00
 000587,-0.00000377,-0.00000078,-0.00000192,-0.00000384,0.00000065,-0.0
 0025877,0.00003480,0.00011650,-0.00111521,-0.00094728,-0.00066198,-0.0
 0007560,0.00001078,-0.00000938,-0.01533012,-0.03188861,-0.01162471,0.0
 3659293,0.03440768,0.00014370,0.00001450,-0.00000952,-0.00002501,-0.00
 008341,0.00006411,-0.00012118,0.00008563,-0.00011517,0.00069070,-0.000
 06068,0.00000303,-0.00000900,-0.00000336,0.00000242,0.00014684,-0.0000
 7887,0.00000266,-0.00001415,0.00004937,0.00000442,0.00000855,0.0000123
 9,0.00000064,-0.00000569,-0.00001208,-0.00000190,-0.00000516,-0.000011
 82,0.00000063,-0.00028408,-0.00003850,0.00001980,-0.00096259,-0.000683
 13,-0.00003893,-0.00015219,-0.00004684,-0.00000204,0.24104421,0.029047
 24,-0.38168755,-0.23617963,-0.02234283,0.38187729,-0.00350256,0.000488
 57,0.00004540,0.00055697,0.00041900,0.00001577,-0.00068080,-0.00079217
 ,-0.00005136,-0.01789704,0.00088305,0.00025094,0.00016059,0.00003158,0
 .00000217,-0.00093156,0.00092525,0.00005905,0.00015264,-0.00109957,-0.
 00004645,-0.00013528,-0.00017821,0.00000233,0.00009170,0.00022561,0.00
 004103,0.00010565,0.00021667,-0.00001787,0.00651699,0.00058533,-0.0000
 4010,0.00961191,0.00367459,-0.00001037,0.00308689,0.00058084,-0.000004
 83,-0.14495223,-0.19380040,0.00710411,-0.01221093,-0.02054769,-0.00428
 431,0.16020143,-0.00325979,0.00164854,0.00006855,0.00015895,-0.0005988
 9,-0.00002281,0.00084836,0.00084466,0.00003720,-0.01135689,0.00559346,
 0.00029596,0.00010694,-0.00000784,-0.00000183,0.00099933,-0.00090094,-
 0.00005262,0.00007467,-0.00096299,-0.00003175,-0.00011229,-0.00014099,
 0.00000074,0.00007027,0.00017032,0.00003279,0.00007734,0.00016460,-0.0
 0001631,0.00670827,-0.00054530,-0.00013063,0.00972800,-0.00561023,-0.0
 0003280,0.00258088,0.00009290,-0.00001120,-0.21763561,-0.33590189,-0.0
 2099000,0.00289849,-0.00142524,-0.00584088,0.20825469,0.33746962,0.000
 09339,-0.00002660,0.00022404,-0.00000347,0.00000851,-0.00003332,0.0000
 7738,0.00002364,-0.00042159,0.00055691,0.00000599,-0.00030642,-0.00000
 272,-0.00000179,0.00006469,-0.00003304,-0.00000916,0.00017169,0.000000
 28,0.00003017,0.00001338,0.00000282,0.00000431,-0.00000838,-0.00001923
 ,0.00000746,-0.00000009,0.00001156,-0.00001816,0.00000232,-0.00017334,
 -0.00003486,0.00091467,-0.00058783,-0.00041698,-0.00457151,-0.00007536
 ,-0.00000901,-0.00009260,-0.02083609,-0.06091318,-0.04302798,0.0240479
 0,0.03465577,-0.00011822,-0.00306403,0.02669677,0.04719352,0.00755988,
 0.00169957,0.00001307,-0.00019489,-0.00196125,-0.00018268,-0.00037282,
 0.00109039,0.00002100,0.00170913,-0.00014300,0.00000668,0.00076618,0.0
 0114850,0.00010351,-0.00006106,0.00002074,-0.00000307,-0.00009487,-0.0
 0070416,-0.00002587,-0.00003905,0.00006459,0.00000631,0.00006795,0.000
 08836,-0.00000171,0.00007629,0.00007175,0.00000878,-0.00332929,0.00032
 443,0.00006831,-0.00181416,0.00050534,0.00003572,-0.01039190,0.0075831
 3,-0.00010307,-0.00020329,-0.00012168,0.00002043,-0.00000154,-0.000003
 46,-0.00001747,0.00030822,0.00020026,-0.00000612,0.29929344,-0.0066961
 1,-0.00373521,0.00009900,0.00008177,-0.00011036,-0.00010540,0.00012102
 ,0.00024754,0.00003147,-0.00180514,-0.00090710,-0.00001250,0.00066021,
 0.00003860,0.00008099,0.00005995,0.00000368,-0.00000829,0.00003732,0.0
 0059189,0.00001979,0.00002659,-0.00004460,-0.00000492,-0.00005561,-0.0
 0005472,0.00000323,-0.00006735,-0.00003893,-0.00000923,0.00374195,0.00
 045611,-0.00015400,0.00149123,-0.00004859,-0.00001057,0.01259980,-0.00
 403690,0.00050378,0.00012066,0.00009779,-0.00001395,0.00000181,0.00000
 275,0.00000978,-0.00020317,-0.00016036,0.00000599,-0.24393650,0.372230
 38,0.00095394,0.00000754,0.00026869,-0.00009641,-0.00011825,0.00029951
 ,-0.00002318,0.00008818,-0.00000607,0.00016584,-0.00001284,-0.00014493
 ,0.00010378,0.00008637,-0.00023980,-0.00000968,0.00000212,-0.00000464,
 -0.00001370,-0.00006478,-0.00001860,-0.00000379,0.00000545,0.00000008,
 0.00001834,0.00000191,0.00000563,-0.00000685,0.00001147,0.00000655,-0.
 00035183,0.00005668,-0.00039410,-0.00017705,0.00004952,0.00005090,-0.0
 0119033,0.00105813,0.00279108,-0.00001759,-0.00001369,0.00000785,-0.00
 000028,0.00000070,-0.00000578,0.00002987,0.00002003,0.00000047,0.21797
 551,0.03030338,0.42631406,-0.01777269,-0.00103009,0.00009807,-0.000643
 42,0.00080183,0.00006747,0.00054665,-0.00039533,-0.00002209,-0.0034440
 7,-0.00050017,0.00003017,-0.00089629,-0.00088541,-0.00004510,0.0001639
 1,-0.00003583,-0.00000670,0.00019669,0.00115974,0.00004783,0.00006709,
 -0.00010517,-0.00001011,-0.00011963,-0.00013839,0.00000487,-0.00013262
 ,-0.00010697,-0.00002165,0.00654668,-0.00046019,-0.00009970,0.00308965
 ,-0.00055355,-0.00005693,0.00958191,-0.00376011,-0.00020380,0.00030929
 ,0.00020333,-0.00003336,0.00000385,0.00000706,0.00002608,-0.00048521,-
 0.00034351,0.00001111,-0.14701446,0.19492203,-0.00710571,0.16213462,0.
 01119081,0.00577667,0.00004458,-0.00088345,0.00082436,0.00004513,-0.00
 016447,-0.00061153,-0.00001775,0.00319161,0.00163999,0.00000194,-0.000
 96451,-0.00089653,-0.00003796,-0.00010853,-0.00000795,0.00000194,-0.00
 009173,-0.00101522,-0.00003616,-0.00004601,0.00007969,0.00000737,0.000
 09764,0.00010334,0.00000390,0.00010391,0.00008442,0.00000841,-0.006709
 43,-0.00063660,0.00002520,-0.00258181,0.00006521,0.00003805,-0.0097234
 4,-0.00565244,0.00012466,-0.00020015,-0.00015977,0.00002217,-0.0000022
 9,-0.00000712,-0.00001691,0.00034305,0.00027734,-0.00000839,0.21830380
 ,-0.33285735,-0.02027160,-0.20894981,0.33441153,-0.00033919,-0.0000361
 6,-0.00030184,-0.00006817,0.00001105,-0.00044263,-0.00000042,0.0000183
 6,-0.00003999,-0.00005280,-0.00002984,0.00023817,0.00004696,0.00000587
 ,0.00016665,0.00000304,-0.00000161,0.00006917,0.00000423,0.00001762,0.
 00001462,0.00000109,-0.00000127,0.00000495,-0.00003045,0.00001572,-0.0
 0000823,0.00002472,-0.00001559,-0.00001272,0.00013461,-0.00001868,0.00
 098452,0.00004179,0.00000141,-0.00009895,0.00042571,-0.00035196,-0.004
 70023,0.00000278,0.00000367,0.00000060,0.00000019,-0.00000068,0.000000
 46,-0.00000549,-0.00000450,-0.00000541,0.02112571,-0.06023522,-0.04330
 546,0.00303566,0.02589362,0.04755895,0.00009171,-0.00004033,0.00002971
 ,-0.00001852,-0.00017892,0.00000812,-0.00000258,0.00006401,0.00004028,
 -0.00001500,-0.00004644,-0.00003007,-0.00005966,0.00010130,-0.00005359
 ,-0.00000075,-0.00000018,0.00000114,-0.00000189,-0.00000121,-0.0000023
 6,-0.00000033,0.00000023,-0.00000020,0.00000213,-0.00000010,0.00000007
 ,-0.00000065,0.00000089,0.00000396,0.00001962,0.00001290,-0.00006054,-
 0.00001225,0.00001873,0.00000542,-0.00013901,0.00061741,0.00048136,-0.
 00000064,-0.00000116,-0.00000005,-0.00000085,-0.00000001,0.00000038,0.
 00000261,0.00000163,-0.00000010,-0.14626375,0.03889956,-0.21025089,-0.
 01213194,-0.00280518,-0.02434997,0.15853175,-0.00061176,-0.00023266,-0
 .00014465,-0.00012287,-0.00004489,0.00006810,-0.00001651,0.00007250,-0
 .00002501,-0.00010965,-0.00008184,0.00002392,0.00016023,0.00006488,-0.
 00005011,0.00000379,0.00000085,0.00000394,0.00000262,0.00003229,0.0000
 0428,0.00000125,-0.00000065,0.00000012,-0.00000760,0.00000025,0.000000
 13,-0.00000094,-0.00000184,-0.00000249,0.00025168,0.00004103,0.0001212
 2,0.00007379,0.00001130,-0.00001222,0.00108289,-0.00093431,-0.00069717
 ,0.00000339,0.00000268,0.00000050,0.00000006,0.00000066,0.00000041,-0.
 00000701,-0.00000678,-0.00000048,0.01576920,-0.03167462,-0.01121034,0.
 02017053,-0.00141805,0.03472820,-0.03664312,0.03416918,-0.00067937,-0.
 00006808,0.00001313,0.00011290,0.00008636,-0.00012703,0.00002604,-0.00
 008366,0.00007319,-0.00013891,0.00001356,-0.00000697,-0.00014058,-0.00
 007548,0.00000424,0.00000876,-0.00000332,0.00000192,0.00001137,0.00005
 622,0.00000605,0.00000327,-0.00000516,-0.00000084,-0.00000646,-0.00000
 635,-0.00000034,-0.00000264,-0.00000643,0.00000193,0.00028166,-0.00003
 998,0.00001943,0.00014962,-0.00004357,-0.00000535,0.00096715,-0.000678
 72,-0.00006324,0.00001722,0.00001070,-0.00000651,-0.00000033,0.0000004
 9,0.00000365,-0.00002586,-0.00001672,0.00000074,-0.23904506,0.02949670
 ,-0.38562544,0.00428391,-0.00582820,-0.00012262,0.23417731,-0.02280835
 ,0.38583407\\-0.00000406,0.00000277,0.00000489,0.00000638,0.00000290,0
 .00000084,-0.00000597,0.00000412,0.00001032,-0.00000346,-0.00000354,-0
 .00000631,-0.00000088,-0.00000106,0.00000550,0.00000052,-0.00000070,0.
 00000430,-0.00000846,-0.00000357,-0.00000737,-0.00000076,0.00000262,-0
 .00000861,0.00000032,-0.00000015,-0.00000847,0.00000162,-0.00000631,-0
 .00000833,0.00000991,0.00000149,-0.00000736,0.00000243,0.00000577,-0.0
 0000072,0.00000391,-0.00000770,-0.00000094,0.00000143,-0.00000058,-0.0
 0000748,-0.00000215,0.00000556,0.00000473,0.00000115,-0.00000374,0.000
 01094,-0.00000204,-0.00000564,0.00000745,0.00000113,0.00000517,-0.0000
 0311,-0.00000103,0.00000259,0.00000974\\\@


 THE SOLUTION TO A PROBLEM CHANGES THE PROBLEM.

                                 -- JOHN PEERS
           PAUL DICKSON'S "THE OFFICIAL RULES"
 Job cpu time:       0 days  0 hours 16 minutes 16.5 seconds.
 File lengths (MBytes):  RWF=    144 Int=      0 D2E=      0 Chk=     11 Scr=      1
 Normal termination of Gaussian 09 at Thu Aug 27 17:38:08 2020.
