 Entering Gaussian System, Link 0=g09
 Input=b3lyp_PM6_4H2O_cyclohexene_pm6_cpcmtoluene_3_water_1.com
 Output=b3lyp_PM6_4H2O_cyclohexene_pm6_cpcmtoluene_3_water_1.log
 Initial command:
 /apps/applications/gaussian/G09.D01/2/default/g09/l1.exe "/local/713764.1.40core-192G.q/Gau-15575.inp" -scrdir="/local/713764.1.40core-192G.q/"
 Entering Link 1 = /apps/applications/gaussian/G09.D01/2/default/g09/l1.exe PID=     15576.
  
 Copyright (c) 1988,1990,1992,1993,1995,1998,2003,2009,2013,
            Gaussian, Inc.  All Rights Reserved.
  
 This is part of the Gaussian(R) 09 program.  It is based on
 the Gaussian(R) 03 system (copyright 2003, Gaussian, Inc.),
 the Gaussian(R) 98 system (copyright 1998, Gaussian, Inc.),
 the Gaussian(R) 94 system (copyright 1995, Gaussian, Inc.),
 the Gaussian 92(TM) system (copyright 1992, Gaussian, Inc.),
 the Gaussian 90(TM) system (copyright 1990, Gaussian, Inc.),
 the Gaussian 88(TM) system (copyright 1988, Gaussian, Inc.),
 the Gaussian 86(TM) system (copyright 1986, Carnegie Mellon
 University), and the Gaussian 82(TM) system (copyright 1983,
 Carnegie Mellon University). Gaussian is a federally registered
 trademark of Gaussian, Inc.
  
 This software contains proprietary and confidential information,
 including trade secrets, belonging to Gaussian, Inc.
  
 This software is provided under written license and may be
 used, copied, transmitted, or stored only in accord with that
 written license.
  
 The following legend is applicable only to US Government
 contracts under FAR:
  
                    RESTRICTED RIGHTS LEGEND
  
 Use, reproduction and disclosure by the US Government is
 subject to restrictions as set forth in subparagraphs (a)
 and (c) of the Commercial Computer Software - Restricted
 Rights clause in FAR 52.227-19.
  
 Gaussian, Inc.
 340 Quinnipiac St., Bldg. 40, Wallingford CT 06492
  
  
 ---------------------------------------------------------------
 Warning -- This program may not be used in any manner that
 competes with the business of Gaussian, Inc. or will provide
 assistance to any competitor of Gaussian, Inc.  The licensee
 of this program is prohibited from giving any competitor of
 Gaussian, Inc. access to this program.  By using this program,
 the user acknowledges that Gaussian, Inc. is engaged in the
 business of creating and licensing software in the field of
 computational chemistry and represents and warrants to the
 licensee that it is not a competitor of Gaussian, Inc. and that
 it will not use this program in any manner prohibited above.
 ---------------------------------------------------------------
  

 Cite this work as:
 Gaussian 09, Revision D.01,
 M. J. Frisch, G. W. Trucks, H. B. Schlegel, G. E. Scuseria, 
 M. A. Robb, J. R. Cheeseman, G. Scalmani, V. Barone, B. Mennucci, 
 G. A. Petersson, H. Nakatsuji, M. Caricato, X. Li, H. P. Hratchian, 
 A. F. Izmaylov, J. Bloino, G. Zheng, J. L. Sonnenberg, M. Hada, 
 M. Ehara, K. Toyota, R. Fukuda, J. Hasegawa, M. Ishida, T. Nakajima, 
 Y. Honda, O. Kitao, H. Nakai, T. Vreven, J. A. Montgomery, Jr., 
 J. E. Peralta, F. Ogliaro, M. Bearpark, J. J. Heyd, E. Brothers, 
 K. N. Kudin, V. N. Staroverov, T. Keith, R. Kobayashi, J. Normand, 
 K. Raghavachari, A. Rendell, J. C. Burant, S. S. Iyengar, J. Tomasi, 
 M. Cossi, N. Rega, J. M. Millam, M. Klene, J. E. Knox, J. B. Cross, 
 V. Bakken, C. Adamo, J. Jaramillo, R. Gomperts, R. E. Stratmann, 
 O. Yazyev, A. J. Austin, R. Cammi, C. Pomelli, J. W. Ochterski, 
 R. L. Martin, K. Morokuma, V. G. Zakrzewski, G. A. Voth, 
 P. Salvador, J. J. Dannenberg, S. Dapprich, A. D. Daniels, 
 O. Farkas, J. B. Foresman, J. V. Ortiz, J. Cioslowski, 
 and D. J. Fox, Gaussian, Inc., Wallingford CT, 2013.
 
 ******************************************
 Gaussian 09:  ES64L-G09RevD.01 24-Apr-2013
                27-Aug-2020 
 ******************************************
 %nprocshared=4
 Will use up to    4 processors via shared memory.
 %chk=b3lyp_PM6_4H2O_cyclohexene_pm6_cpcmtoluene_3_water_1.chk
 ----------------------------------------------------------------------
 # opt freq b3lyp/6-31+g(d,p) scrf=(cpcm,solvent=water) geom=connectivi
 ty empiricaldispersion=gd3
 ----------------------------------------------------------------------
 1/14=-1,18=20,19=15,26=3,38=1,57=2/1,3;
 2/9=110,12=2,17=6,18=5,40=1/2;
 3/5=1,6=6,7=111,11=2,16=1,25=1,30=1,70=2101,71=1,72=1,74=-5,124=31/1,2,3;
 4//1;
 5/5=2,38=5,53=1/2;
 6/7=2,8=2,9=2,10=2,28=1/1;
 7//1,2,3,16;
 1/14=-1,18=20,19=15,26=3/3(2);
 2/9=110/2;
 99//99;
 2/9=110/2;
 3/5=1,6=6,7=111,11=2,16=1,25=1,30=1,70=2105,71=1,72=1,74=-5,124=31/1,2,3;
 4/5=5,16=3,69=1/1;
 5/5=2,38=5,53=1/2;
 7//1,2,3,16;
 1/14=-1,18=20,19=15,26=3/3(-5);
 2/9=110/2;
 6/7=2,8=2,9=2,10=2,19=2,28=1/1;
 99/9=1/99;
 -------------------
 Title Card Required
 -------------------
 Symbolic Z-matrix:
 Charge =  0 Multiplicity = 1
 C                    -3.03748  -0.34314  -0.25274 
 C                    -1.93327  -1.2281    0.32677 
 C                    -0.69556  -0.30325   0.46992 
 C                    -1.1776    1.0831    0.03893 
 H                    -2.25671  -1.53349   1.36309 
 H                    -0.43279  -0.24086   1.56814 
 C                    -3.33086   2.13214  -0.84694 
 H                    -3.86207   1.86961  -1.77915 
 H                    -4.07962   2.42303  -0.0885 
 H                    -2.68786   3.01066  -1.05438 
 N                    -2.5231    0.99128  -0.37242 
 O                    -0.52876   2.11726   0.05018 
 O                    -4.16675  -0.63932  -0.56353 
 C                     0.55947  -0.69094  -0.33753 
 H                     1.11125   0.25424  -0.60573 
 C                    -1.7513   -2.49766  -0.53605 
 H                    -2.76303  -2.78645  -0.93254 
 C                    -0.82714  -2.24285  -1.69833 
 H                    -1.06542  -2.78385  -2.61368 
 C                     0.22207  -1.42352  -1.60713 
 H                     0.90355  -1.24774  -2.43855 
 C                    -1.22636  -3.66468   0.30587 
 H                    -1.89508  -3.89897   1.14232 
 H                    -1.13007  -4.57585  -0.29825 
 H                    -0.23033  -3.45423   0.72882 
 C                     1.48867  -1.54128   0.54776 
 H                     1.65744  -1.09634   1.54395 
 H                     1.13428  -2.5935    0.65331 
 C                     3.64101  -0.68253  -0.20939 
 C                     4.87554  -1.09559  -0.90877 
 H                     5.00643  -0.54036  -1.85629 
 H                     5.77415  -0.89204  -0.29766 
 H                     4.89511  -2.17007  -1.16318 
 O                     3.35673   0.4209    0.23444 
 O                     2.778    -1.73646  -0.10389 
 O                     1.48376   1.6676    2.0754 
 H                     0.93225   2.07605   1.39028 
 H                     2.16968   1.17683   1.5978 
 O                     3.9322    2.81478  -0.08828 
 H                     3.27115   2.34095  -0.60546 
 H                     4.40105   2.12796   0.40636 
 O                    -1.18057   4.61415  -1.13335 
 H                    -0.50199   4.66354  -1.80726 
 H                    -0.98277   3.80868  -0.61769 
 O                    -1.72576  -0.19919   3.19259 
 H                    -1.67082  -0.75548   3.97331 
 H                    -2.47017   0.39058   3.33529 
 
 Add virtual bond connecting atoms H44        and H10        Dist= 3.65D+00.
 Add virtual bond connecting atoms H44        and O12        Dist= 3.54D+00.
 Add virtual bond connecting atoms H37        and O12        Dist= 3.75D+00.
 Add virtual bond connecting atoms H38        and O34        Dist= 3.70D+00.
 Add virtual bond connecting atoms H40        and O34        Dist= 3.96D+00.
 Add virtual bond connecting atoms H41        and O34        Dist= 3.80D+00.
 Add virtual bond connecting atoms O45        and H6         Dist= 3.92D+00.

 GradGradGradGradGradGradGradGradGradGradGradGradGradGradGradGradGradGrad
 Berny optimization.
 Initialization pass.
                           ----------------------------
                           !    Initial Parameters    !
                           ! (Angstroms and Degrees)  !
 --------------------------                            --------------------------
 ! Name  Definition              Value          Derivative Info.                !
 --------------------------------------------------------------------------------
 ! R1    R(1,2)                  1.5291         estimate D2E/DX2                !
 ! R2    R(1,11)                 1.4351         estimate D2E/DX2                !
 ! R3    R(1,13)                 1.2081         estimate D2E/DX2                !
 ! R4    R(2,3)                  1.5517         estimate D2E/DX2                !
 ! R5    R(2,5)                  1.1278         estimate D2E/DX2                !
 ! R6    R(2,16)                 1.5458         estimate D2E/DX2                !
 ! R7    R(3,4)                  1.5297         estimate D2E/DX2                !
 ! R8    R(3,6)                  1.1309         estimate D2E/DX2                !
 ! R9    R(3,14)                 1.5419         estimate D2E/DX2                !
 ! R10   R(4,11)                 1.41           estimate D2E/DX2                !
 ! R11   R(4,12)                 1.2209         estimate D2E/DX2                !
 ! R12   R(6,45)                 2.0766         estimate D2E/DX2                !
 ! R13   R(7,8)                  1.1046         estimate D2E/DX2                !
 ! R14   R(7,9)                  1.1048         estimate D2E/DX2                !
 ! R15   R(7,10)                 1.1083         estimate D2E/DX2                !
 ! R16   R(7,11)                 1.4762         estimate D2E/DX2                !
 ! R17   R(10,44)                1.9326         estimate D2E/DX2                !
 ! R18   R(12,37)                1.983          estimate D2E/DX2                !
 ! R19   R(12,44)                1.8743         estimate D2E/DX2                !
 ! R20   R(14,15)                1.1268         estimate D2E/DX2                !
 ! R21   R(14,20)                1.5041         estimate D2E/DX2                !
 ! R22   R(14,26)                1.5396         estimate D2E/DX2                !
 ! R23   R(16,17)                1.1244         estimate D2E/DX2                !
 ! R24   R(16,18)                1.5066         estimate D2E/DX2                !
 ! R25   R(16,22)                1.5318         estimate D2E/DX2                !
 ! R26   R(18,19)                1.0896         estimate D2E/DX2                !
 ! R27   R(18,20)                1.3343         estimate D2E/DX2                !
 ! R28   R(20,21)                1.0893         estimate D2E/DX2                !
 ! R29   R(22,23)                1.0962         estimate D2E/DX2                !
 ! R30   R(22,24)                1.0975         estimate D2E/DX2                !
 ! R31   R(22,25)                1.1024         estimate D2E/DX2                !
 ! R32   R(26,27)                1.104          estimate D2E/DX2                !
 ! R33   R(26,28)                1.1153         estimate D2E/DX2                !
 ! R34   R(26,35)                1.4578         estimate D2E/DX2                !
 ! R35   R(29,30)                1.4778         estimate D2E/DX2                !
 ! R36   R(29,34)                1.2228         estimate D2E/DX2                !
 ! R37   R(29,35)                1.3663         estimate D2E/DX2                !
 ! R38   R(30,31)                1.106          estimate D2E/DX2                !
 ! R39   R(30,32)                1.1056         estimate D2E/DX2                !
 ! R40   R(30,33)                1.1044         estimate D2E/DX2                !
 ! R41   R(34,38)                1.9594         estimate D2E/DX2                !
 ! R42   R(34,40)                2.0975         estimate D2E/DX2                !
 ! R43   R(34,41)                2.0085         estimate D2E/DX2                !
 ! R44   R(36,37)                0.9697         estimate D2E/DX2                !
 ! R45   R(36,38)                0.9693         estimate D2E/DX2                !
 ! R46   R(39,40)                0.9638         estimate D2E/DX2                !
 ! R47   R(39,41)                0.9676         estimate D2E/DX2                !
 ! R48   R(42,43)                0.9576         estimate D2E/DX2                !
 ! R49   R(42,44)                0.9766         estimate D2E/DX2                !
 ! R50   R(45,46)                0.9602         estimate D2E/DX2                !
 ! R51   R(45,47)                0.9604         estimate D2E/DX2                !
 ! A1    A(2,1,11)             108.1139         estimate D2E/DX2                !
 ! A2    A(2,1,13)             129.0936         estimate D2E/DX2                !
 ! A3    A(11,1,13)            122.7878         estimate D2E/DX2                !
 ! A4    A(1,2,3)              105.4277         estimate D2E/DX2                !
 ! A5    A(1,2,5)              107.3294         estimate D2E/DX2                !
 ! A6    A(1,2,16)             110.4138         estimate D2E/DX2                !
 ! A7    A(3,2,5)              107.7817         estimate D2E/DX2                !
 ! A8    A(3,2,16)             116.5591         estimate D2E/DX2                !
 ! A9    A(5,2,16)             108.9217         estimate D2E/DX2                !
 ! A10   A(2,3,4)              105.2367         estimate D2E/DX2                !
 ! A11   A(2,3,6)              107.9268         estimate D2E/DX2                !
 ! A12   A(2,3,14)             116.8131         estimate D2E/DX2                !
 ! A13   A(4,3,6)              107.2661         estimate D2E/DX2                !
 ! A14   A(4,3,14)             109.6833         estimate D2E/DX2                !
 ! A15   A(6,3,14)             109.4681         estimate D2E/DX2                !
 ! A16   A(3,4,11)             108.8985         estimate D2E/DX2                !
 ! A17   A(3,4,12)             126.6973         estimate D2E/DX2                !
 ! A18   A(11,4,12)            124.4015         estimate D2E/DX2                !
 ! A19   A(3,6,45)             128.0293         estimate D2E/DX2                !
 ! A20   A(8,7,9)              108.4225         estimate D2E/DX2                !
 ! A21   A(8,7,10)             108.0265         estimate D2E/DX2                !
 ! A22   A(8,7,11)             110.5327         estimate D2E/DX2                !
 ! A23   A(9,7,10)             108.2405         estimate D2E/DX2                !
 ! A24   A(9,7,11)             110.7119         estimate D2E/DX2                !
 ! A25   A(10,7,11)            110.8126         estimate D2E/DX2                !
 ! A26   A(7,10,44)            142.8369         estimate D2E/DX2                !
 ! A27   A(1,11,4)             112.2253         estimate D2E/DX2                !
 ! A28   A(1,11,7)             123.318          estimate D2E/DX2                !
 ! A29   A(4,11,7)             124.4452         estimate D2E/DX2                !
 ! A30   A(4,12,37)            112.3448         estimate D2E/DX2                !
 ! A31   A(4,12,44)            129.2256         estimate D2E/DX2                !
 ! A32   A(37,12,44)           115.9785         estimate D2E/DX2                !
 ! A33   A(3,14,15)            108.1984         estimate D2E/DX2                !
 ! A34   A(3,14,20)            112.4519         estimate D2E/DX2                !
 ! A35   A(3,14,26)            109.2087         estimate D2E/DX2                !
 ! A36   A(15,14,20)           108.5101         estimate D2E/DX2                !
 ! A37   A(15,14,26)           107.7349         estimate D2E/DX2                !
 ! A38   A(20,14,26)           110.5942         estimate D2E/DX2                !
 ! A39   A(2,16,17)            107.5695         estimate D2E/DX2                !
 ! A40   A(2,16,18)            111.3407         estimate D2E/DX2                !
 ! A41   A(2,16,22)            111.0566         estimate D2E/DX2                !
 ! A42   A(17,16,18)           108.8658         estimate D2E/DX2                !
 ! A43   A(17,16,22)           107.8488         estimate D2E/DX2                !
 ! A44   A(18,16,22)           110.0389         estimate D2E/DX2                !
 ! A45   A(16,18,19)           115.4639         estimate D2E/DX2                !
 ! A46   A(16,18,20)           122.239          estimate D2E/DX2                !
 ! A47   A(19,18,20)           122.2915         estimate D2E/DX2                !
 ! A48   A(14,20,18)           122.2176         estimate D2E/DX2                !
 ! A49   A(14,20,21)           115.1711         estimate D2E/DX2                !
 ! A50   A(18,20,21)           122.6052         estimate D2E/DX2                !
 ! A51   A(16,22,23)           111.9109         estimate D2E/DX2                !
 ! A52   A(16,22,24)           111.1033         estimate D2E/DX2                !
 ! A53   A(16,22,25)           112.0288         estimate D2E/DX2                !
 ! A54   A(23,22,24)           107.2232         estimate D2E/DX2                !
 ! A55   A(23,22,25)           107.4101         estimate D2E/DX2                !
 ! A56   A(24,22,25)           106.8833         estimate D2E/DX2                !
 ! A57   A(14,26,27)           112.8631         estimate D2E/DX2                !
 ! A58   A(14,26,28)           112.5649         estimate D2E/DX2                !
 ! A59   A(14,26,35)           110.5311         estimate D2E/DX2                !
 ! A60   A(27,26,28)           110.0845         estimate D2E/DX2                !
 ! A61   A(27,26,35)           108.791          estimate D2E/DX2                !
 ! A62   A(28,26,35)           101.3627         estimate D2E/DX2                !
 ! A63   A(30,29,34)           128.1847         estimate D2E/DX2                !
 ! A64   A(30,29,35)           110.4024         estimate D2E/DX2                !
 ! A65   A(34,29,35)           121.4124         estimate D2E/DX2                !
 ! A66   A(29,30,31)           111.3457         estimate D2E/DX2                !
 ! A67   A(29,30,32)           111.4656         estimate D2E/DX2                !
 ! A68   A(29,30,33)           113.3145         estimate D2E/DX2                !
 ! A69   A(31,30,32)           106.5547         estimate D2E/DX2                !
 ! A70   A(31,30,33)           106.7968         estimate D2E/DX2                !
 ! A71   A(32,30,33)           106.9807         estimate D2E/DX2                !
 ! A72   A(29,34,38)           137.8596         estimate D2E/DX2                !
 ! A73   A(29,34,40)           133.6433         estimate D2E/DX2                !
 ! A74   A(29,34,41)           132.6174         estimate D2E/DX2                !
 ! A75   A(38,34,40)            84.3033         estimate D2E/DX2                !
 ! A76   A(38,34,41)            85.8448         estimate D2E/DX2                !
 ! A77   A(40,34,41)            43.7365         estimate D2E/DX2                !
 ! A78   A(26,35,29)           119.3339         estimate D2E/DX2                !
 ! A79   A(37,36,38)           105.5219         estimate D2E/DX2                !
 ! A80   A(12,37,36)           154.8557         estimate D2E/DX2                !
 ! A81   A(40,39,41)           104.9323         estimate D2E/DX2                !
 ! A82   A(34,40,39)           101.9572         estimate D2E/DX2                !
 ! A83   A(34,41,39)           107.9145         estimate D2E/DX2                !
 ! A84   A(43,42,44)           105.6992         estimate D2E/DX2                !
 ! A85   A(10,44,12)            85.5029         estimate D2E/DX2                !
 ! A86   A(10,44,42)            92.4396         estimate D2E/DX2                !
 ! A87   A(6,45,46)            126.0709         estimate D2E/DX2                !
 ! A88   A(6,45,47)            127.6745         estimate D2E/DX2                !
 ! A89   A(46,45,47)           106.2184         estimate D2E/DX2                !
 ! A90   L(34,38,36,1,-1)      172.4498         estimate D2E/DX2                !
 ! A91   L(12,44,42,10,-1)     177.9425         estimate D2E/DX2                !
 ! A92   L(34,38,36,1,-2)      193.2734         estimate D2E/DX2                !
 ! A93   L(12,44,42,10,-2)     190.8775         estimate D2E/DX2                !
 ! D1    D(11,1,2,3)            -2.7928         estimate D2E/DX2                !
 ! D2    D(11,1,2,5)           111.9143         estimate D2E/DX2                !
 ! D3    D(11,1,2,16)         -129.4926         estimate D2E/DX2                !
 ! D4    D(13,1,2,3)           177.9919         estimate D2E/DX2                !
 ! D5    D(13,1,2,5)           -67.301          estimate D2E/DX2                !
 ! D6    D(13,1,2,16)           51.2921         estimate D2E/DX2                !
 ! D7    D(2,1,11,4)             1.3699         estimate D2E/DX2                !
 ! D8    D(2,1,11,7)          -177.4442         estimate D2E/DX2                !
 ! D9    D(13,1,11,4)         -179.3546         estimate D2E/DX2                !
 ! D10   D(13,1,11,7)            1.8314         estimate D2E/DX2                !
 ! D11   D(1,2,3,4)              3.0977         estimate D2E/DX2                !
 ! D12   D(1,2,3,6)            117.393          estimate D2E/DX2                !
 ! D13   D(1,2,3,14)          -118.8277         estimate D2E/DX2                !
 ! D14   D(5,2,3,4)           -111.2961         estimate D2E/DX2                !
 ! D15   D(5,2,3,6)              2.9991         estimate D2E/DX2                !
 ! D16   D(5,2,3,14)           126.7784         estimate D2E/DX2                !
 ! D17   D(16,2,3,4)           125.9497         estimate D2E/DX2                !
 ! D18   D(16,2,3,6)          -119.7551         estimate D2E/DX2                !
 ! D19   D(16,2,3,14)            4.0243         estimate D2E/DX2                !
 ! D20   D(1,2,16,17)          -34.0771         estimate D2E/DX2                !
 ! D21   D(1,2,16,18)           85.1224         estimate D2E/DX2                !
 ! D22   D(1,2,16,22)         -151.8787         estimate D2E/DX2                !
 ! D23   D(3,2,16,17)         -154.3005         estimate D2E/DX2                !
 ! D24   D(3,2,16,18)          -35.101          estimate D2E/DX2                !
 ! D25   D(3,2,16,22)           87.8979         estimate D2E/DX2                !
 ! D26   D(5,2,16,17)           83.54           estimate D2E/DX2                !
 ! D27   D(5,2,16,18)         -157.2606         estimate D2E/DX2                !
 ! D28   D(5,2,16,22)          -34.2616         estimate D2E/DX2                !
 ! D29   D(2,3,4,11)            -2.4112         estimate D2E/DX2                !
 ! D30   D(2,3,4,12)           177.0029         estimate D2E/DX2                !
 ! D31   D(6,3,4,11)          -117.1656         estimate D2E/DX2                !
 ! D32   D(6,3,4,12)            62.2484         estimate D2E/DX2                !
 ! D33   D(14,3,4,11)          124.0277         estimate D2E/DX2                !
 ! D34   D(14,3,4,12)          -56.5582         estimate D2E/DX2                !
 ! D35   D(2,3,6,45)           -36.5401         estimate D2E/DX2                !
 ! D36   D(4,3,6,45)            76.4021         estimate D2E/DX2                !
 ! D37   D(14,3,6,45)         -164.6524         estimate D2E/DX2                !
 ! D38   D(2,3,14,15)          149.1244         estimate D2E/DX2                !
 ! D39   D(2,3,14,20)           29.2932         estimate D2E/DX2                !
 ! D40   D(2,3,14,26)          -93.8688         estimate D2E/DX2                !
 ! D41   D(4,3,14,15)           29.5507         estimate D2E/DX2                !
 ! D42   D(4,3,14,20)          -90.2805         estimate D2E/DX2                !
 ! D43   D(4,3,14,26)          146.5575         estimate D2E/DX2                !
 ! D44   D(6,3,14,15)          -87.8879         estimate D2E/DX2                !
 ! D45   D(6,3,14,20)          152.2808         estimate D2E/DX2                !
 ! D46   D(6,3,14,26)           29.1189         estimate D2E/DX2                !
 ! D47   D(3,4,11,1)             0.6981         estimate D2E/DX2                !
 ! D48   D(3,4,11,7)           179.4963         estimate D2E/DX2                !
 ! D49   D(12,4,11,1)         -178.7325         estimate D2E/DX2                !
 ! D50   D(12,4,11,7)            0.0657         estimate D2E/DX2                !
 ! D51   D(3,4,12,37)          -25.6346         estimate D2E/DX2                !
 ! D52   D(3,4,12,44)          173.1205         estimate D2E/DX2                !
 ! D53   D(11,4,12,37)         153.6936         estimate D2E/DX2                !
 ! D54   D(11,4,12,44)          -7.5514         estimate D2E/DX2                !
 ! D55   D(3,6,45,46)          129.8707         estimate D2E/DX2                !
 ! D56   D(3,6,45,47)          -52.6263         estimate D2E/DX2                !
 ! D57   D(8,7,10,44)         -144.3075         estimate D2E/DX2                !
 ! D58   D(9,7,10,44)           98.4879         estimate D2E/DX2                !
 ! D59   D(11,7,10,44)         -23.0894         estimate D2E/DX2                !
 ! D60   D(8,7,11,1)           -48.7823         estimate D2E/DX2                !
 ! D61   D(8,7,11,4)           132.549          estimate D2E/DX2                !
 ! D62   D(9,7,11,1)            71.3761         estimate D2E/DX2                !
 ! D63   D(9,7,11,4)          -107.2927         estimate D2E/DX2                !
 ! D64   D(10,7,11,1)         -168.5103         estimate D2E/DX2                !
 ! D65   D(10,7,11,4)           12.821          estimate D2E/DX2                !
 ! D66   D(7,10,44,12)          15.9608         estimate D2E/DX2                !
 ! D67   D(7,10,44,42)        -174.9167         estimate D2E/DX2                !
 ! D68   D(4,12,37,36)           3.6993         estimate D2E/DX2                !
 ! D69   D(44,12,37,36)        167.6141         estimate D2E/DX2                !
 ! D70   D(4,12,44,10)           3.09           estimate D2E/DX2                !
 ! D71   D(37,12,44,10)       -157.5924         estimate D2E/DX2                !
 ! D72   D(3,14,20,18)         -33.3085         estimate D2E/DX2                !
 ! D73   D(3,14,20,21)         147.5607         estimate D2E/DX2                !
 ! D74   D(15,14,20,18)       -152.9587         estimate D2E/DX2                !
 ! D75   D(15,14,20,21)         27.9105         estimate D2E/DX2                !
 ! D76   D(26,14,20,18)         89.0743         estimate D2E/DX2                !
 ! D77   D(26,14,20,21)        -90.0565         estimate D2E/DX2                !
 ! D78   D(3,14,26,27)         -48.4377         estimate D2E/DX2                !
 ! D79   D(3,14,26,28)          76.9282         estimate D2E/DX2                !
 ! D80   D(3,14,26,35)        -170.5245         estimate D2E/DX2                !
 ! D81   D(15,14,26,27)         68.8621         estimate D2E/DX2                !
 ! D82   D(15,14,26,28)       -165.772          estimate D2E/DX2                !
 ! D83   D(15,14,26,35)        -53.2247         estimate D2E/DX2                !
 ! D84   D(20,14,26,27)       -172.6978         estimate D2E/DX2                !
 ! D85   D(20,14,26,28)        -47.3319         estimate D2E/DX2                !
 ! D86   D(20,14,26,35)         65.2154         estimate D2E/DX2                !
 ! D87   D(2,16,18,19)        -145.6719         estimate D2E/DX2                !
 ! D88   D(2,16,18,20)          35.1674         estimate D2E/DX2                !
 ! D89   D(17,16,18,19)        -27.2482         estimate D2E/DX2                !
 ! D90   D(17,16,18,20)        153.5911         estimate D2E/DX2                !
 ! D91   D(22,16,18,19)         90.7482         estimate D2E/DX2                !
 ! D92   D(22,16,18,20)        -88.4125         estimate D2E/DX2                !
 ! D93   D(2,16,22,23)          58.199          estimate D2E/DX2                !
 ! D94   D(2,16,22,24)         178.0219         estimate D2E/DX2                !
 ! D95   D(2,16,22,25)         -62.5079         estimate D2E/DX2                !
 ! D96   D(17,16,22,23)        -59.4328         estimate D2E/DX2                !
 ! D97   D(17,16,22,24)         60.3901         estimate D2E/DX2                !
 ! D98   D(17,16,22,25)        179.8603         estimate D2E/DX2                !
 ! D99   D(18,16,22,23)       -178.0556         estimate D2E/DX2                !
 ! D100  D(18,16,22,24)        -58.2327         estimate D2E/DX2                !
 ! D101  D(18,16,22,25)         61.2375         estimate D2E/DX2                !
 ! D102  D(16,18,20,14)         -0.1075         estimate D2E/DX2                !
 ! D103  D(16,18,20,21)        178.9587         estimate D2E/DX2                !
 ! D104  D(19,18,20,14)       -179.2111         estimate D2E/DX2                !
 ! D105  D(19,18,20,21)         -0.1449         estimate D2E/DX2                !
 ! D106  D(14,26,35,29)         71.3518         estimate D2E/DX2                !
 ! D107  D(27,26,35,29)        -53.0969         estimate D2E/DX2                !
 ! D108  D(28,26,35,29)       -169.0966         estimate D2E/DX2                !
 ! D109  D(34,29,30,31)        -62.3671         estimate D2E/DX2                !
 ! D110  D(34,29,30,32)         56.4744         estimate D2E/DX2                !
 ! D111  D(34,29,30,33)        177.217          estimate D2E/DX2                !
 ! D112  D(35,29,30,31)        117.3652         estimate D2E/DX2                !
 ! D113  D(35,29,30,32)       -123.7933         estimate D2E/DX2                !
 ! D114  D(35,29,30,33)         -3.0507         estimate D2E/DX2                !
 ! D115  D(30,29,34,38)       -156.8292         estimate D2E/DX2                !
 ! D116  D(30,29,34,40)         55.0052         estimate D2E/DX2                !
 ! D117  D(30,29,34,41)         -6.3582         estimate D2E/DX2                !
 ! D118  D(35,29,34,38)         23.4648         estimate D2E/DX2                !
 ! D119  D(35,29,34,40)       -124.7008         estimate D2E/DX2                !
 ! D120  D(35,29,34,41)        173.9358         estimate D2E/DX2                !
 ! D121  D(30,29,35,26)       -179.5529         estimate D2E/DX2                !
 ! D122  D(34,29,35,26)          0.2006         estimate D2E/DX2                !
 ! D123  D(29,34,36,37)       -106.3128         estimate D2E/DX2                !
 ! D124  D(40,34,36,37)         46.5235         estimate D2E/DX2                !
 ! D125  D(41,34,36,37)         90.3776         estimate D2E/DX2                !
 ! D126  D(29,34,40,39)       -118.3269         estimate D2E/DX2                !
 ! D127  D(38,34,40,39)         82.507          estimate D2E/DX2                !
 ! D128  D(41,34,40,39)         -7.4314         estimate D2E/DX2                !
 ! D129  D(29,34,41,39)        120.8765         estimate D2E/DX2                !
 ! D130  D(38,34,41,39)        -78.4869         estimate D2E/DX2                !
 ! D131  D(40,34,41,39)          7.6121         estimate D2E/DX2                !
 ! D132  D(38,36,37,12)         83.9256         estimate D2E/DX2                !
 ! D133  D(41,39,40,34)         11.0756         estimate D2E/DX2                !
 ! D134  D(40,39,41,34)        -11.9031         estimate D2E/DX2                !
 ! D135  D(43,42,44,10)       -119.6597         estimate D2E/DX2                !
 ! D136  D(6,45,46,47)         177.9419         estimate D2E/DX2                !
 --------------------------------------------------------------------------------
 Trust Radius=3.00D-01 FncErr=1.00D-07 GrdErr=1.00D-06
 Number of steps in this run=    282 maximum allowed number of steps=    282.
 GradGradGradGradGradGradGradGradGradGradGradGradGradGradGradGradGradGrad

                          Input orientation:                          
 ---------------------------------------------------------------------
 Center     Atomic      Atomic             Coordinates (Angstroms)
 Number     Number       Type             X           Y           Z
 ---------------------------------------------------------------------
      1          6           0       -3.037481   -0.343137   -0.252735
      2          6           0       -1.933272   -1.228095    0.326767
      3          6           0       -0.695557   -0.303251    0.469923
      4          6           0       -1.177604    1.083099    0.038931
      5          1           0       -2.256713   -1.533491    1.363086
      6          1           0       -0.432787   -0.240859    1.568141
      7          6           0       -3.330858    2.132143   -0.846942
      8          1           0       -3.862069    1.869608   -1.779153
      9          1           0       -4.079616    2.423028   -0.088504
     10          1           0       -2.687856    3.010660   -1.054381
     11          7           0       -2.523102    0.991284   -0.372424
     12          8           0       -0.528762    2.117264    0.050181
     13          8           0       -4.166748   -0.639324   -0.563534
     14          6           0        0.559472   -0.690940   -0.337533
     15          1           0        1.111248    0.254243   -0.605732
     16          6           0       -1.751301   -2.497660   -0.536051
     17          1           0       -2.763029   -2.786452   -0.932543
     18          6           0       -0.827136   -2.242846   -1.698330
     19          1           0       -1.065417   -2.783845   -2.613682
     20          6           0        0.222073   -1.423518   -1.607131
     21          1           0        0.903548   -1.247736   -2.438550
     22          6           0       -1.226358   -3.664679    0.305869
     23          1           0       -1.895076   -3.898971    1.142323
     24          1           0       -1.130068   -4.575848   -0.298251
     25          1           0       -0.230330   -3.454226    0.728824
     26          6           0        1.488672   -1.541280    0.547758
     27          1           0        1.657437   -1.096337    1.543951
     28          1           0        1.134284   -2.593502    0.653307
     29          6           0        3.641008   -0.682525   -0.209394
     30          6           0        4.875544   -1.095585   -0.908769
     31          1           0        5.006427   -0.540363   -1.856286
     32          1           0        5.774152   -0.892040   -0.297662
     33          1           0        4.895113   -2.170065   -1.163176
     34          8           0        3.356730    0.420896    0.234439
     35          8           0        2.778001   -1.736464   -0.103888
     36          8           0        1.483756    1.667598    2.075402
     37          1           0        0.932247    2.076049    1.390278
     38          1           0        2.169679    1.176832    1.597798
     39          8           0        3.932204    2.814783   -0.088278
     40          1           0        3.271150    2.340950   -0.605455
     41          1           0        4.401047    2.127960    0.406361
     42          8           0       -1.180567    4.614154   -1.133354
     43          1           0       -0.501986    4.663544   -1.807258
     44          1           0       -0.982771    3.808684   -0.617692
     45          8           0       -1.725756   -0.199191    3.192587
     46          1           0       -1.670819   -0.755480    3.973309
     47          1           0       -2.470168    0.390575    3.335294
 ---------------------------------------------------------------------
                    Distance matrix (angstroms):
                    1          2          3          4          5
     1  C    0.000000
     2  C    1.529134   0.000000
     3  C    2.451211   1.551699   0.000000
     4  C    2.361855   2.448571   1.529735   0.000000
     5  H    2.153467   1.127758   2.179091   3.124805   0.000000
     6  H    3.179698   2.183369   1.130939   2.155481   2.244917
     7  C    2.562453   3.823877   3.822315   2.553775   4.413036
     8  H    2.811786   4.213184   4.450445   3.336222   4.902236
     9  H    2.960521   4.255578   4.381357   3.198957   4.591746
    10  H    3.465953   4.521505   4.156292   2.681731   5.165205
    11  N    1.435127   2.400502   2.392758   1.409967   3.075296
    12  O    3.526897   3.638760   2.462295   1.220909   4.247063
    13  O    1.208125   2.475420   3.637327   3.502098   2.856507
    14  C    3.614724   2.635072   1.541877   2.511249   3.396012
    15  H    4.206355   3.512262   2.175403   2.518221   4.291317
    16  C    2.525173   1.545757   2.634769   3.671725   2.189015
    17  H    2.550931   2.168602   3.522448   4.293106   2.663866
    18  C    3.253347   2.520769   2.912158   3.768662   3.452411
    19  H    3.926851   3.437989   3.974766   4.690650   4.335580
    20  C    3.691382   2.902355   2.532034   3.309342   3.870228
    21  H    4.596498   3.961680   3.450856   3.987718   4.951903
    22  C    3.824245   2.537145   3.407031   4.755526   2.592547
    23  H    3.986882   2.792878   3.849697   5.152986   2.403126
    24  H    4.642859   3.499033   4.362795   5.669183   3.644901
    25  H    4.303769   2.831487   3.195639   4.686214   2.863169
    26  C    4.749989   3.443345   2.511898   3.775619   3.833110
    27  H    5.083074   3.793691   2.705384   3.879753   3.942637
    28  H    4.825834   3.373554   2.937209   4.386306   3.623019
    29  C    6.687247   5.626519   4.405805   5.137910   6.162787
    30  C    7.975746   6.921278   5.793596   6.502723   7.498145
    31  H    8.204555   7.307402   6.162799   6.668562   8.006489
    32  H    8.828827   7.739976   6.541635   7.234734   8.225833
    33  H    8.191008   7.052239   6.116175   6.993285   7.611560
    34  O    6.458097   5.541824   4.123211   4.586602   6.050142
    35  O    5.981918   4.758150   3.801179   4.859747   5.248005
    36  O    5.468534   4.808206   3.348315   3.401719   4.974482
    37  H    4.930587   4.501069   3.026197   2.695099   4.816532
    38  H    5.731430   4.922743   3.416478   3.693664   5.195564
    39  O    7.653497   7.135891   5.608021   5.396763   7.701730
    40  H    6.864952   6.379117   4.887024   4.667851   7.031623
    41  H    7.865903   7.168894   5.647141   5.687538   7.658153
    42  O    5.366410   6.068805   5.194863   3.720566   6.721893
    43  H    5.823412   6.427601   5.467365   4.084662   7.178676
    44  H    4.646789   5.211967   4.263028   2.810325   5.838257
    45  O    3.689388   3.051988   2.912909   3.448229   2.325800
    46  H    4.460632   3.686396   3.664609   4.370694   2.786007
    47  H    3.705959   3.458263   3.441074   3.607814   2.763548
                    6          7          8          9         10
     6  H    0.000000
     7  C    4.456745   0.000000
     8  H    5.236260   1.104594   0.000000
     9  H    4.810419   1.104754   1.792176   0.000000
    10  H    4.747140   1.108276   1.790550   1.793105   0.000000
    11  N    3.106990   1.476210   2.131472   2.133832   2.137777
    12  O    2.806093   2.942243   3.810345   3.566692   2.584550
    13  O    4.318018   2.908618   2.804514   3.100201   3.968682
    14  C    2.195164   4.833628   5.308926   5.592848   4.976028
    15  H    2.711991   4.828768   5.359123   5.649444   4.715115
    16  C    3.355481   4.901707   5.007362   5.462098   5.611363
    17  H    4.261865   4.952003   4.858347   5.439162   5.798879
    18  C    3.851402   5.112144   5.111715   5.911053   5.610372
    19  H    4.935042   5.693903   5.492934   6.524833   6.216109
    20  C    3.451069   5.083693   5.249237   5.967133   5.332462
    21  H    4.342023   5.646857   5.732691   6.620359   5.740039
    22  C    3.734385   6.273838   6.474768   6.734745   6.967525
    23  H    3.962498   6.510989   6.758742   6.801090   7.293628
    24  H    4.770928   7.081079   7.155474   7.597901   7.781615
    25  H    3.327337   6.580565   6.915395   7.072987   7.142409
    26  C    2.534617   6.218287   6.758632   6.864867   6.382037
    27  H    2.258642   6.404884   7.092587   6.925649   6.519227
    28  H    2.971121   6.672328   7.127395   7.273281   6.995111
    29  C    4.466599   7.545577   8.079213   8.322686   7.376187
    30  C    5.919799   8.818565   9.268000   9.656519   8.607408
    31  H    6.434396   8.813137   9.190437   9.719204   8.512039
    32  H    6.513935   9.609818  10.133029  10.398566   9.349293
    33  H    6.290346   9.288466   9.663675  10.138895   9.184398
    34  O    4.071501   6.987244   7.633111   7.707922   6.701116
    35  O    3.916845   7.268866   7.739561   8.020506   7.301658
    36  O    2.751846   5.651230   6.593652   6.016999   5.385323
    37  H    2.694998   4.814807   5.750946   5.236980   4.467102
    38  H    2.963707   6.094693   6.947353   6.591685   5.830319
    39  O    5.579769   7.334415   8.031383   8.021392   6.693050
    40  H    5.010929   6.609722   7.244484   7.369378   6.013302
    41  H    5.506994   7.832825   8.551158   8.500212   7.291466
    42  O    5.606104   3.296386   3.891021   3.781168   2.202124
    43  H    5.954097   3.915701   4.370014   4.557792   2.841985
    44  H    4.634560   2.894280   3.660514   3.433734   1.932577
    45  O    2.076615   4.932470   5.793269   4.814795   5.409761
    46  H    2.753614   5.859088   6.692046   5.692411   6.363634
    47  H    2.769921   4.611393   5.502953   4.294599   5.116784
                   11         12         13         14         15
    11  N    0.000000
    12  O    2.328909   0.000000
    13  O    2.323140   4.605471   0.000000
    14  C    3.511888   3.036542   4.731902   0.000000
    15  H    3.715664   2.567236   5.353269   1.126836   0.000000
    16  C    3.577035   4.809968   3.047713   2.939952   3.971399
    17  H    3.826563   5.477602   2.591670   3.972936   4.935854
    18  C    3.885090   4.707109   3.874539   2.486536   3.344631
    19  H    4.625979   5.604019   4.291891   3.493046   4.242607
    20  C    3.858984   3.980901   4.578843   1.504124   2.146698
    21  H    4.585195   4.423632   5.440014   2.200610   2.378719
    22  C    4.880535   5.829484   4.307497   3.527928   4.653318
    23  H    5.157855   6.265355   4.323857   4.301888   5.416906
    24  H    5.739251   6.729095   4.978757   4.236579   5.333650
    25  H    5.121729   5.620598   5.008917   3.065396   4.163366
    26  C    4.832696   4.207442   5.833718   1.539555   2.167231
    27  H    5.050501   4.163898   6.210595   2.215819   2.596830
    28  H    5.222958   5.031978   5.779313   2.220792   3.113738
    29  C    6.389403   5.029232   7.815903   3.084211   2.726592
    30  C    7.706014   6.359914   9.060376   4.372474   4.010460
    31  H    7.825701   6.429301   9.264348   4.701563   4.167458
    32  H    8.508638   6.993113   9.947665   5.218709   4.811605
    33  H    8.102427   7.019391   9.209781   4.654813   4.528316
    34  O    5.938523   4.243662   7.639604   3.063982   2.403300
    35  O    5.967781   5.080319   7.045887   2.463652   2.644395
    36  O    4.743855   2.890320   6.649366   3.498465   3.053656
    37  H    4.027812   1.982954   6.098392   3.283370   2.708334
    38  H    5.092975   3.249787   6.936864   3.134780   2.612851
    39  O    6.713931   4.517291   8.817582   4.871093   3.844726
    40  H    5.953928   3.862541   8.012872   4.076437   3.003252
    41  H    7.059913   4.942671   9.055698   4.822580   3.918919
    42  O    3.937842   2.839025   6.069679   5.639600   4.953749
    43  H    4.430480   3.151879   6.564887   5.653077   4.846455
    44  H    3.220329   1.874321   5.470413   4.764831   4.125422
    45  O    3.842173   4.083317   4.501178   4.233891   4.762502
    46  H    4.760564   4.994786   5.179392   4.854042   5.452252
    47  H    3.756438   4.188374   4.374921   4.882423   5.326989
                   16         17         18         19         20
    16  C    0.000000
    17  H    1.124367   0.000000
    18  C    1.506620   2.151655   0.000000
    19  H    2.206556   2.389168   1.089645   0.000000
    20  C    2.489016   3.350148   1.334337   2.126327   0.000000
    21  H    3.497147   4.251998   2.129187   2.503423   1.089296
    22  C    1.531773   2.160163   2.489538   3.053776   3.283340
    23  H    2.191183   2.509205   3.457247   4.004924   4.262591
    24  H    2.182051   2.504162   2.737679   2.928596   3.671326
    25  H    2.197335   3.101714   2.777534   3.509861   3.128119
    26  C    3.547778   4.671050   3.301526   4.249946   2.502336
    27  H    4.231975   5.341351   4.242637   5.248574   3.478022
    28  H    3.122556   4.212030   3.082260   3.943112   2.703807
    29  C    5.698984   6.779465   4.961436   5.687406   3.767208
    30  C    6.783790   7.823515   5.870279   6.407181   4.716995
    31  H    7.158276   8.140188   6.078968   6.517219   4.871559
    32  H    7.698525   8.767858   6.882118   7.464756   5.729115
    33  H    6.683968   7.686369   5.747680   6.165112   4.753076
    34  O    5.933263   7.007166   5.323143   6.159346   4.076680
    35  O    4.613108   5.700189   3.974378   4.708284   2.981685
    36  O    5.885121   6.849925   5.905324   6.949902   4.970703
    37  H    5.641896   6.534101   5.593548   6.606128   4.662164
    38  H    5.781807   6.814826   5.616009   6.624905   4.563613
    39  O    7.792611   8.769992   7.129039   7.918239   5.833968
    40  H    6.974380   7.925185   6.245119   7.007304   4.946862
    41  H    7.754733   8.790227   7.132150   7.945358   5.842172
    42  O    7.159637   7.570567   6.889308   7.545530   6.216538
    43  H    7.379675   7.834531   6.914898   7.512082   6.133240
    44  H    6.353525   6.838441   6.149229   6.888559   5.459540
    45  O    4.380223   4.978609   5.376348   6.389776   5.322622
    46  H    4.834873   5.420807   5.923812   6.918759   5.930483
    47  H    4.883235   5.328574   5.913699   6.887712   5.913261
                   21         22         23         24         25
    21  H    0.000000
    22  C    4.232015   0.000000
    23  H    5.261558   1.096235   0.000000
    24  H    4.448910   1.097480   1.765971   0.000000
    25  H    4.023249   1.102385   1.772049   1.767045   0.000000
    26  C    3.057217   3.455246   4.166769   4.096600   2.578200
    27  H    4.056055   4.055305   4.542732   4.823991   3.128536
    28  H    3.379927   2.615485   3.334728   3.156335   1.615153
    29  C    3.575232   5.731491   6.543767   6.158655   4.852817
    30  C    4.259123   6.731181   7.609681   6.967951   5.857888
    31  H    4.203930   7.299580   8.240306   7.507941   6.526639
    32  H    5.332233   7.553735   8.362550   7.825516   6.608500
    33  H    4.290671   6.470268   7.376389   6.545127   5.612388
    34  O    3.993408   6.140173   6.860537   6.736658   5.303582
    35  O    3.033657   4.463273   5.297842   4.834551   3.562888
    36  O    5.404773   6.237719   6.578285   7.172651   5.566367
    37  H    5.070335   6.228280   6.614839   7.166031   5.689732
    38  H    4.875830   6.053295   6.518701   6.897584   5.287897
    39  O    5.585749   8.291534   8.974746   8.960587   7.569334
    40  H    4.673804   7.558153   8.287414   8.204096   6.901067
    41  H    5.632170   8.076661   8.746811   8.719562   7.260471
    42  O    6.356794   8.403127   8.840957   9.228005   8.334831
    43  H    6.108788   8.622605   9.162827   9.382854   8.509036
    44  H    5.695709   7.534153   7.958511   8.391908   7.424900
    45  O    6.302570   4.537857   4.233276   5.629913   4.347606
    46  H    6.926876   4.702244   4.236308   5.756201   4.459251
    47  H    6.885005   5.212443   4.851810   6.297926   5.156845
                   26         27         28         29         30
    26  C    0.000000
    27  H    1.104018   0.000000
    28  H    1.115304   1.818911   0.000000
    29  C    2.437886   2.679555   3.267989   0.000000
    30  C    3.713626   4.046239   4.322136   1.477776   0.000000
    31  H    4.376741   4.804836   5.050438   2.144022   1.105979
    32  H    4.416060   4.514490   5.032662   2.145225   1.105612
    33  H    3.863484   4.354765   4.197945   2.166854   1.104361
    34  O    2.727259   2.627625   3.768463   1.222841   2.431756
    35  O    1.457775   2.093036   2.002415   1.366272   2.336289
    36  O    3.553958   2.819919   4.505714   3.923915   5.295723
    37  H    3.755598   3.257844   4.731665   4.184025   5.558279
    38  H    2.992405   2.330791   4.022378   2.981268   4.332258
    39  O    5.034945   4.809948   6.134154   3.511499   4.105371
    40  H    4.424798   4.363365   5.522635   3.071654   3.804714
    41  H    4.686709   4.383788   5.746732   2.975843   3.513681
    42  O    6.916671   6.916064   7.778239   7.221918   8.326346
    43  H    6.928828   7.004994   7.835590   6.949678   7.930490
    44  H    6.007364   5.975168   6.861876   6.458870   7.645681
    45  O    4.373656   3.868962   4.512261   6.372538   7.823158
    46  H    4.725914   4.134640   4.719040   6.761348   8.173446
    47  H    5.212949   4.738875   5.393500   7.145826   8.612794
                   31         32         33         34         35
    31  H    0.000000
    32  H    1.772678   0.000000
    33  H    1.774464   1.776280   0.000000
    34  O    2.831369   2.801939   3.321600   0.000000
    35  O    3.076920   3.118897   2.406712   2.259114   0.000000
    36  O    5.722104   5.530884   6.070700   2.907136   4.244056
    37  H    5.829643   5.924756   6.344598   3.154935   4.491614
    38  H    4.788172   4.567847   5.123738   1.959407   3.428277
    39  O    3.941676   4.144533   5.189538   2.483145   4.695346
    40  H    3.588555   4.100241   4.826755   2.097464   4.137641
    41  H    3.550493   3.391381   4.602235   2.008537   4.222370
    42  O    8.085207   8.909808   9.107162   6.327822   7.553834
    43  H    7.577972   8.516649   8.731651   6.087551   7.390527
    44  H    7.504586   8.237429   8.401935   5.570862   6.719826
    45  O    8.421983   8.301235   8.166573   5.913274   5.789109
    46  H    8.866570   8.584139   8.455530   6.374893   6.113744
    47  H    9.149788   9.100125   9.002248   6.600679   6.625371
                   36         37         38         39         40
    36  O    0.000000
    37  H    0.969737   0.000000
    38  H    0.969251   1.543662   0.000000
    39  O    3.463011   3.425142   2.938066   0.000000
    40  H    3.291683   3.086031   2.724469   0.963837   0.000000
    41  H    3.392376   3.606017   2.702438   0.967578   1.531602
    42  O    5.106557   4.156282   5.522547   5.519995   5.026323
    43  H    5.290927   4.356190   5.557820   5.102436   4.590787
    44  H    4.233292   3.271278   4.666153   5.042331   4.500026
    45  O    3.877366   3.935736   4.428454   7.201432   6.771005
    46  H    4.407346   4.633094   4.911854   7.786985   7.414581
    47  H    4.341846   4.266185   5.016500   7.654280   7.231611
                   41         42         43         44         45
    41  H    0.000000
    42  O    6.301293   0.000000
    43  H    5.947187   0.957632   0.000000
    44  H    5.732278   0.976633   1.541755   0.000000
    45  O    7.121545   6.494558   7.081120   5.579724   0.000000
    46  H    7.609527   7.426394   8.009179   6.510168   0.960210
    47  H    7.668817   6.282556   6.969781   5.433408   0.960385
                   46         47
    46  H    0.000000
    47  H    1.536055   0.000000
 Stoichiometry    C13H25NO8
 Framework group  C1[X(C13H25NO8)]
 Deg. of freedom   135
 Full point group                 C1      NOp   1
 Largest Abelian subgroup         C1      NOp   1
 Largest concise Abelian subgroup C1      NOp   1
                         Standard orientation:                         
 ---------------------------------------------------------------------
 Center     Atomic      Atomic             Coordinates (Angstroms)
 Number     Number       Type             X           Y           Z
 ---------------------------------------------------------------------
      1          6           0       -3.037481   -0.343137   -0.252735
      2          6           0       -1.933272   -1.228095    0.326767
      3          6           0       -0.695557   -0.303251    0.469923
      4          6           0       -1.177604    1.083099    0.038931
      5          1           0       -2.256713   -1.533491    1.363086
      6          1           0       -0.432787   -0.240859    1.568141
      7          6           0       -3.330858    2.132143   -0.846942
      8          1           0       -3.862069    1.869608   -1.779153
      9          1           0       -4.079616    2.423028   -0.088504
     10          1           0       -2.687856    3.010660   -1.054381
     11          7           0       -2.523102    0.991284   -0.372424
     12          8           0       -0.528762    2.117264    0.050181
     13          8           0       -4.166748   -0.639324   -0.563534
     14          6           0        0.559472   -0.690940   -0.337533
     15          1           0        1.111248    0.254243   -0.605732
     16          6           0       -1.751301   -2.497660   -0.536051
     17          1           0       -2.763029   -2.786452   -0.932543
     18          6           0       -0.827136   -2.242846   -1.698330
     19          1           0       -1.065417   -2.783845   -2.613682
     20          6           0        0.222073   -1.423518   -1.607131
     21          1           0        0.903548   -1.247736   -2.438550
     22          6           0       -1.226358   -3.664679    0.305869
     23          1           0       -1.895076   -3.898971    1.142323
     24          1           0       -1.130068   -4.575848   -0.298251
     25          1           0       -0.230330   -3.454226    0.728824
     26          6           0        1.488672   -1.541280    0.547758
     27          1           0        1.657437   -1.096337    1.543951
     28          1           0        1.134284   -2.593502    0.653307
     29          6           0        3.641008   -0.682525   -0.209394
     30          6           0        4.875544   -1.095585   -0.908769
     31          1           0        5.006427   -0.540363   -1.856286
     32          1           0        5.774152   -0.892040   -0.297662
     33          1           0        4.895113   -2.170065   -1.163176
     34          8           0        3.356730    0.420896    0.234439
     35          8           0        2.778001   -1.736464   -0.103888
     36          8           0        1.483756    1.667598    2.075402
     37          1           0        0.932247    2.076049    1.390278
     38          1           0        2.169679    1.176832    1.597798
     39          8           0        3.932204    2.814783   -0.088278
     40          1           0        3.271150    2.340950   -0.605455
     41          1           0        4.401047    2.127960    0.406361
     42          8           0       -1.180567    4.614154   -1.133354
     43          1           0       -0.501986    4.663544   -1.807258
     44          1           0       -0.982771    3.808684   -0.617692
     45          8           0       -1.725756   -0.199191    3.192587
     46          1           0       -1.670819   -0.755480    3.973309
     47          1           0       -2.470168    0.390575    3.335294
 ---------------------------------------------------------------------
 Rotational constants (GHZ):      0.2971121      0.2022979      0.1511406
 Standard basis: 6-31+G(d,p) (6D, 7F)
 There are   543 symmetry adapted cartesian basis functions of A   symmetry.
 There are   543 symmetry adapted basis functions of A   symmetry.
   543 basis functions,   879 primitive gaussians,   543 cartesian basis functions
    87 alpha electrons       87 beta electrons
       nuclear repulsion energy      2077.3469325665 Hartrees.
 NAtoms=   47 NActive=   47 NUniq=   47 SFac= 1.00D+00 NAtFMM=   60 NAOKFM=F Big=F
 Integral buffers will be    131072 words long.
 Raffenetti 2 integral format.
 Two-electron integral symmetry is turned on.
 Nuclear repulsion after empirical dispersion term =     2077.2903602939 Hartrees.
 ------------------------------------------------------------------------------
 Polarizable Continuum Model (PCM)
 =================================
 Model                : C-PCM.
 Atomic radii         : UFF (Universal Force Field).
 Polarization charges : Total charges.
 Charge compensation  : None.
 Solution method      : On-the-fly selection.
 Cavity type          : Scaled VdW (van der Waals Surface) (Alpha=1.100).
 Cavity algorithm     : GePol (No added spheres)
                        Default sphere list used, NSphG=   47.
                        Lebedev-Laikov grids with approx.  5.0 points / Ang**2.
                        Smoothing algorithm: Karplus/York (Gamma=1.0000).
                        Polarization charges: spherical gaussians, with
                                              point-specific exponents (IZeta= 3).
                        Self-potential: point-specific (ISelfS= 7).
                        Self-field    : sphere-specific E.n sum rule (ISelfD= 2).
 1st derivatives      : Analytical E(r).r(x)/FMM algorithm (CHGder, D1EAlg=3).
                        Cavity 1st derivative terms included.
 Solvent              : Water, Eps=  78.355300 Eps(inf)=   1.777849
 ------------------------------------------------------------------------------
 One-electron integrals computed using PRISM.
 NBasis=   543 RedAO= T EigKep=  1.44D-06  NBF=   543
 NBsUse=   543 1.00D-06 EigRej= -1.00D+00 NBFU=   543
 ExpMin= 4.38D-02 ExpMax= 5.48D+03 ExpMxC= 8.25D+02 IAcc=2 IRadAn=         4 AccDes= 0.00D+00
 Harris functional with IExCor=  402 and IRadAn=       4 diagonalized for initial guess.
 HarFok:  IExCor=  402 AccDes= 0.00D+00 IRadAn=         4 IDoV= 1 UseB2=F ITyADJ=14
 ICtDFT=  3500011 ScaDFX=  1.000000  1.000000  1.000000  1.000000
 FoFCou: FMM=F IPFlag=           0 FMFlag=      100000 FMFlg1=           0
         NFxFlg=           0 DoJE=T BraDBF=F KetDBF=T FulRan=T
         wScrn=  0.000000 ICntrl=     500 IOpCl=  0 I1Cent=   200000004 NGrid=           0
         NMat0=    1 NMatS0=      1 NMatT0=    0 NMatD0=    1 NMtDS0=    0 NMtDT0=    0
 Petite list used in FoFCou.
 Requested convergence on RMS density matrix=1.00D-08 within 128 cycles.
 Requested convergence on MAX density matrix=1.00D-06.
 Requested convergence on             energy=1.00D-06.
 No special actions if energy rises.
 Inv3:  Mode=3 IEnd=        6682.
 Iteration    1 A*A^-1 deviation from unit magnitude is 6.77D-15 for   3310.
 Iteration    1 A*A^-1 deviation from orthogonality  is 2.59D-15 for   3326    330.
 Iteration    1 A^-1*A deviation from unit magnitude is 6.77D-15 for   3310.
 Iteration    1 A^-1*A deviation from orthogonality  is 2.39D-15 for   3143   3024.
 Error on total polarization charges =  0.01981
 SCF Done:  E(RB3LYP) =  -1167.18593671     A.U. after   16 cycles
            NFock= 16  Conv=0.14D-08     -V/T= 2.0095

 **********************************************************************

            Population analysis using the SCF density.

 **********************************************************************

 Orbital symmetries:
       Occupied  (A) (A) (A) (A) (A) (A) (A) (A) (A) (A) (A) (A)
                 (A) (A) (A) (A) (A) (A) (A) (A) (A) (A) (A) (A)
                 (A) (A) (A) (A) (A) (A) (A) (A) (A) (A) (A) (A)
                 (A) (A) (A) (A) (A) (A) (A) (A) (A) (A) (A) (A)
                 (A) (A) (A) (A) (A) (A) (A) (A) (A) (A) (A) (A)
                 (A) (A) (A) (A) (A) (A) (A) (A) (A) (A) (A) (A)
                 (A) (A) (A) (A) (A) (A) (A) (A) (A) (A) (A) (A)
                 (A) (A) (A)
       Virtual   (A) (A) (A) (A) (A) (A) (A) (A) (A) (A) (A) (A)
                 (A) (A) (A) (A) (A) (A) (A) (A) (A) (A) (A) (A)
                 (A) (A) (A) (A) (A) (A) (A) (A) (A) (A) (A) (A)
                 (A) (A) (A) (A) (A) (A) (A) (A) (A) (A) (A) (A)
                 (A) (A) (A) (A) (A) (A) (A) (A) (A) (A) (A) (A)
                 (A) (A) (A) (A) (A) (A) (A) (A) (A) (A) (A) (A)
                 (A) (A) (A) (A) (A) (A) (A) (A) (A) (A) (A) (A)
                 (A) (A) (A) (A) (A) (A) (A) (A) (A) (A) (A) (A)
                 (A) (A) (A) (A) (A) (A) (A) (A) (A) (A) (A) (A)
                 (A) (A) (A) (A) (A) (A) (A) (A) (A) (A) (A) (A)
                 (A) (A) (A) (A) (A) (A) (A) (A) (A) (A) (A) (A)
                 (A) (A) (A) (A) (A) (A) (A) (A) (A) (A) (A) (A)
                 (A) (A) (A) (A) (A) (A) (A) (A) (A) (A) (A) (A)
                 (A) (A) (A) (A) (A) (A) (A) (A) (A) (A) (A) (A)
                 (A) (A) (A) (A) (A) (A) (A) (A) (A) (A) (A) (A)
                 (A) (A) (A) (A) (A) (A) (A) (A) (A) (A) (A) (A)
                 (A) (A) (A) (A) (A) (A) (A) (A) (A) (A) (A) (A)
                 (A) (A) (A) (A) (A) (A) (A) (A) (A) (A) (A) (A)
                 (A) (A) (A) (A) (A) (A) (A) (A) (A) (A) (A) (A)
                 (A) (A) (A) (A) (A) (A) (A) (A) (A) (A) (A) (A)
                 (A) (A) (A) (A) (A) (A) (A) (A) (A) (A) (A) (A)
                 (A) (A) (A) (A) (A) (A) (A) (A) (A) (A) (A) (A)
                 (A) (A) (A) (A) (A) (A) (A) (A) (A) (A) (A) (A)
                 (A) (A) (A) (A) (A) (A) (A) (A) (A) (A) (A) (A)
                 (A) (A) (A) (A) (A) (A) (A) (A) (A) (A) (A) (A)
                 (A) (A) (A) (A) (A) (A) (A) (A) (A) (A) (A) (A)
                 (A) (A) (A) (A) (A) (A) (A) (A) (A) (A) (A) (A)
                 (A) (A) (A) (A) (A) (A) (A) (A) (A) (A) (A) (A)
                 (A) (A) (A) (A) (A) (A) (A) (A) (A) (A) (A) (A)
                 (A) (A) (A) (A) (A) (A) (A) (A) (A) (A) (A) (A)
                 (A) (A) (A) (A) (A) (A) (A) (A) (A) (A) (A) (A)
                 (A) (A) (A) (A) (A) (A) (A) (A) (A) (A) (A) (A)
                 (A) (A) (A) (A) (A) (A) (A) (A) (A) (A) (A) (A)
                 (A) (A) (A) (A) (A) (A) (A) (A) (A) (A) (A) (A)
                 (A) (A) (A) (A) (A) (A) (A) (A) (A) (A) (A) (A)
                 (A) (A) (A) (A) (A) (A) (A) (A) (A) (A) (A) (A)
                 (A) (A) (A) (A) (A) (A) (A) (A) (A) (A) (A) (A)
                 (A) (A) (A) (A) (A) (A) (A) (A) (A) (A) (A) (A)
 The electronic state is 1-A.
 Alpha  occ. eigenvalues --  -19.21491 -19.17786 -19.17437 -19.17268 -19.16824
 Alpha  occ. eigenvalues --  -19.15703 -19.15014 -19.14502 -14.40999 -10.35057
 Alpha  occ. eigenvalues --  -10.33213 -10.32479 -10.26044 -10.23286 -10.22006
 Alpha  occ. eigenvalues --  -10.21902 -10.21875 -10.21239 -10.20907 -10.19793
 Alpha  occ. eigenvalues --  -10.19676 -10.18546  -1.12383  -1.09268  -1.07797
 Alpha  occ. eigenvalues --   -1.04341  -1.02944  -1.01163  -1.00412  -0.99909
 Alpha  occ. eigenvalues --   -0.96383  -0.86984  -0.80734  -0.79292  -0.77417
 Alpha  occ. eigenvalues --   -0.73210  -0.70855  -0.69793  -0.65864  -0.62222
 Alpha  occ. eigenvalues --   -0.61743  -0.58039  -0.55931  -0.54854  -0.54466
 Alpha  occ. eigenvalues --   -0.54254  -0.52967  -0.52431  -0.51458  -0.51036
 Alpha  occ. eigenvalues --   -0.50408  -0.49956  -0.49213  -0.48436  -0.47324
 Alpha  occ. eigenvalues --   -0.46151  -0.45592  -0.44747  -0.44206  -0.43765
 Alpha  occ. eigenvalues --   -0.43091  -0.42483  -0.41345  -0.41211  -0.41051
 Alpha  occ. eigenvalues --   -0.40596  -0.39486  -0.38985  -0.38705  -0.38507
 Alpha  occ. eigenvalues --   -0.37701  -0.37266  -0.36978  -0.36800  -0.35305
 Alpha  occ. eigenvalues --   -0.33841  -0.33377  -0.32840  -0.31629  -0.31579
 Alpha  occ. eigenvalues --   -0.31247  -0.31122  -0.30618  -0.30025  -0.29559
 Alpha  occ. eigenvalues --   -0.28216  -0.26194
 Alpha virt. eigenvalues --   -0.04439  -0.02952  -0.01041  -0.00989  -0.00375
 Alpha virt. eigenvalues --    0.00494   0.00947   0.01231   0.02380   0.02597
 Alpha virt. eigenvalues --    0.03153   0.04025   0.04285   0.04876   0.05150
 Alpha virt. eigenvalues --    0.05581   0.05932   0.06488   0.06768   0.07078
 Alpha virt. eigenvalues --    0.07277   0.07829   0.08335   0.08562   0.09293
 Alpha virt. eigenvalues --    0.09387   0.09997   0.10173   0.10930   0.11366
 Alpha virt. eigenvalues --    0.11672   0.11991   0.12311   0.12581   0.13333
 Alpha virt. eigenvalues --    0.13432   0.13640   0.14011   0.14764   0.14915
 Alpha virt. eigenvalues --    0.15290   0.15432   0.15602   0.16119   0.16565
 Alpha virt. eigenvalues --    0.16771   0.16993   0.17166   0.17264   0.17399
 Alpha virt. eigenvalues --    0.17850   0.18366   0.18594   0.18992   0.19473
 Alpha virt. eigenvalues --    0.19774   0.19894   0.20349   0.20716   0.20823
 Alpha virt. eigenvalues --    0.20887   0.21211   0.21419   0.21659   0.22028
 Alpha virt. eigenvalues --    0.22189   0.22526   0.22851   0.23344   0.23780
 Alpha virt. eigenvalues --    0.24048   0.24188   0.24343   0.24620   0.25028
 Alpha virt. eigenvalues --    0.25142   0.25397   0.25910   0.26153   0.26617
 Alpha virt. eigenvalues --    0.26663   0.27012   0.27346   0.27432   0.27585
 Alpha virt. eigenvalues --    0.28186   0.28547   0.29087   0.29826   0.30039
 Alpha virt. eigenvalues --    0.30275   0.30828   0.31196   0.31406   0.31711
 Alpha virt. eigenvalues --    0.32378   0.32687   0.32941   0.33173   0.33540
 Alpha virt. eigenvalues --    0.33886   0.34350   0.34684   0.35081   0.35563
 Alpha virt. eigenvalues --    0.36207   0.36505   0.37139   0.37366   0.37679
 Alpha virt. eigenvalues --    0.38373   0.38408   0.38735   0.39481   0.39919
 Alpha virt. eigenvalues --    0.40417   0.41017   0.41448   0.42180   0.43337
 Alpha virt. eigenvalues --    0.43457   0.44670   0.45472   0.46408   0.46509
 Alpha virt. eigenvalues --    0.47005   0.47374   0.48483   0.48710   0.50550
 Alpha virt. eigenvalues --    0.50714   0.51969   0.52274   0.53775   0.54454
 Alpha virt. eigenvalues --    0.56122   0.64939   0.65768   0.67500   0.68086
 Alpha virt. eigenvalues --    0.69356   0.70606   0.70753   0.72282   0.72640
 Alpha virt. eigenvalues --    0.73162   0.73676   0.74331   0.75630   0.76400
 Alpha virt. eigenvalues --    0.77662   0.78226   0.79186   0.80896   0.81722
 Alpha virt. eigenvalues --    0.82522   0.82800   0.83830   0.84621   0.84867
 Alpha virt. eigenvalues --    0.85787   0.86681   0.87187   0.87900   0.88166
 Alpha virt. eigenvalues --    0.90231   0.92331   0.92941   0.93717   0.94786
 Alpha virt. eigenvalues --    0.95441   0.95676   0.96872   0.97942   0.98100
 Alpha virt. eigenvalues --    0.99016   0.99726   1.00139   1.00689   1.01210
 Alpha virt. eigenvalues --    1.01405   1.02633   1.03045   1.04246   1.04965
 Alpha virt. eigenvalues --    1.06565   1.07178   1.07669   1.09153   1.09435
 Alpha virt. eigenvalues --    1.09862   1.10153   1.11087   1.11316   1.11743
 Alpha virt. eigenvalues --    1.12640   1.13592   1.15150   1.15847   1.16544
 Alpha virt. eigenvalues --    1.17323   1.18401   1.18508   1.19119   1.19619
 Alpha virt. eigenvalues --    1.20821   1.21774   1.22302   1.22727   1.24358
 Alpha virt. eigenvalues --    1.24591   1.25185   1.25290   1.25879   1.26493
 Alpha virt. eigenvalues --    1.26903   1.27444   1.27905   1.28786   1.29554
 Alpha virt. eigenvalues --    1.30308   1.30896   1.31963   1.32206   1.33710
 Alpha virt. eigenvalues --    1.34565   1.34812   1.35611   1.36591   1.37919
 Alpha virt. eigenvalues --    1.38141   1.38830   1.40023   1.40804   1.40983
 Alpha virt. eigenvalues --    1.42770   1.44439   1.45913   1.46703   1.47832
 Alpha virt. eigenvalues --    1.49216   1.49956   1.51002   1.51501   1.52926
 Alpha virt. eigenvalues --    1.53783   1.54088   1.55915   1.56972   1.57580
 Alpha virt. eigenvalues --    1.58314   1.60299   1.62009   1.62320   1.63317
 Alpha virt. eigenvalues --    1.64957   1.65510   1.65731   1.67196   1.67755
 Alpha virt. eigenvalues --    1.68167   1.68619   1.69549   1.70068   1.70639
 Alpha virt. eigenvalues --    1.71864   1.73220   1.73421   1.74124   1.74711
 Alpha virt. eigenvalues --    1.75057   1.77485   1.77706   1.78201   1.78867
 Alpha virt. eigenvalues --    1.79709   1.81601   1.82308   1.83479   1.83874
 Alpha virt. eigenvalues --    1.85460   1.86974   1.88077   1.88944   1.89530
 Alpha virt. eigenvalues --    1.90354   1.91069   1.91527   1.92075   1.93171
 Alpha virt. eigenvalues --    1.94834   1.95136   1.95787   1.96688   1.97953
 Alpha virt. eigenvalues --    1.99104   1.99517   2.01490   2.02716   2.03273
 Alpha virt. eigenvalues --    2.03404   2.04318   2.06080   2.06680   2.07227
 Alpha virt. eigenvalues --    2.07874   2.08138   2.09444   2.10417   2.11289
 Alpha virt. eigenvalues --    2.11539   2.12682   2.13461   2.13921   2.15273
 Alpha virt. eigenvalues --    2.17077   2.18484   2.19894   2.20092   2.21378
 Alpha virt. eigenvalues --    2.23240   2.23681   2.24687   2.26902   2.27292
 Alpha virt. eigenvalues --    2.28149   2.29898   2.30227   2.30778   2.32610
 Alpha virt. eigenvalues --    2.33430   2.34171   2.34770   2.36026   2.37180
 Alpha virt. eigenvalues --    2.38121   2.38173   2.39298   2.41369   2.42375
 Alpha virt. eigenvalues --    2.43438   2.43735   2.45170   2.48575   2.48786
 Alpha virt. eigenvalues --    2.49445   2.51859   2.52419   2.52649   2.53949
 Alpha virt. eigenvalues --    2.54757   2.55373   2.56104   2.56693   2.57069
 Alpha virt. eigenvalues --    2.58383   2.60321   2.62008   2.62623   2.63869
 Alpha virt. eigenvalues --    2.64217   2.65404   2.65908   2.66041   2.66256
 Alpha virt. eigenvalues --    2.66737   2.67177   2.67729   2.68051   2.68680
 Alpha virt. eigenvalues --    2.69519   2.69600   2.70529   2.71760   2.72093
 Alpha virt. eigenvalues --    2.72833   2.73566   2.74958   2.75869   2.77406
 Alpha virt. eigenvalues --    2.78778   2.79756   2.80872   2.83041   2.83688
 Alpha virt. eigenvalues --    2.85227   2.85889   2.87004   2.88255   2.89285
 Alpha virt. eigenvalues --    2.90419   2.93562   2.95560   2.97604   3.00127
 Alpha virt. eigenvalues --    3.01492   3.05293   3.06285   3.06979   3.07532
 Alpha virt. eigenvalues --    3.08252   3.10327   3.11260   3.13045   3.16856
 Alpha virt. eigenvalues --    3.22494   3.22728   3.25045   3.26627   3.27482
 Alpha virt. eigenvalues --    3.28349   3.30656   3.31466   3.35619   3.36806
 Alpha virt. eigenvalues --    3.39726   3.41066   3.41526   3.43863   3.44885
 Alpha virt. eigenvalues --    3.45314   3.45685   3.45986   3.47094   3.48877
 Alpha virt. eigenvalues --    3.49744   3.50942   3.52439   3.57467   3.59324
 Alpha virt. eigenvalues --    3.64534   3.67324   3.68092   3.74448   4.06344
 Alpha virt. eigenvalues --    4.20851   4.21702   4.32860   4.36372   4.39997
 Alpha virt. eigenvalues --    4.41221   4.43889   4.46581   4.52208   4.54054
 Alpha virt. eigenvalues --    4.57567   4.59179   4.61220   4.63017   4.68448
 Alpha virt. eigenvalues --    4.69781   4.78435   4.80746   4.83941   4.94227
 Alpha virt. eigenvalues --    5.20007
          Condensed to atoms (all electrons):
               1          2          3          4          5          6
     1  C    9.471133  -2.576965   0.527713  -2.698065  -0.030929  -0.004749
     2  C   -2.576965  19.371174 -11.951231   5.677840   0.378243  -0.107781
     3  C    0.527713 -11.951231  52.762798 -12.511909  -0.053242   0.727728
     4  C   -2.698065   5.677840 -12.511909  19.274238  -0.025837  -0.021884
     5  H   -0.030929   0.378243  -0.053242  -0.025837   0.507071  -0.006246
     6  H   -0.004749  -0.107781   0.727728  -0.021884  -0.006246   0.480845
     7  C   -0.088807   0.158468  -0.386812   0.114680   0.003580   0.002816
     8  H   -0.020378   0.009279  -0.034462   0.023194  -0.000007  -0.000001
     9  H   -0.014433   0.012343  -0.040266   0.037195   0.000038   0.000027
    10  H    0.024618  -0.020677   0.030781  -0.055559   0.000002  -0.000007
    11  N    0.518299  -0.520168  -0.749890   0.111805   0.021847   0.013721
    12  O    0.121011  -0.134331  -0.339770   0.485763  -0.000297  -0.010498
    13  O    0.324355   0.125391  -0.218621   0.157789  -0.000928  -0.000444
    14  C    1.246772  -0.769374 -20.637093  -2.623615  -0.002621  -0.300179
    15  H   -0.002384  -0.069776  -0.116363   0.083096  -0.000113   0.001932
    16  C   -0.144752  -1.319769   0.324527   0.176717  -0.029063   0.007452
    17  H    0.015839  -0.117828   0.035835  -0.003422   0.000490  -0.000106
    18  C   -0.195606   0.838502  -3.884682   0.562016   0.024934  -0.032279
    19  H    0.009240  -0.003683   0.047047  -0.004341  -0.000117   0.000008
    20  C   -0.155611  -2.587921  -1.540911  -1.374765  -0.003771   0.011134
    21  H   -0.012655   0.016038  -0.027804   0.028779   0.000011  -0.000117
    22  C   -0.533563   0.042909   0.853892  -0.050715  -0.005105   0.011997
    23  H    0.000076  -0.014673   0.015041   0.013874   0.003230   0.000005
    24  H   -0.016633  -0.018721   0.048724  -0.002282   0.000339  -0.000001
    25  H   -0.009225   0.066355  -0.049681   0.004444  -0.000304  -0.000268
    26  C   -0.043603  -0.547470   4.410118  -1.301133   0.021023   0.009523
    27  H   -0.001226   0.033116   0.168809   0.050552  -0.000012   0.004435
    28  H   -0.001632  -0.038822   0.058678  -0.005168  -0.000136   0.000719
    29  C    0.014783   0.049110  -0.890802  -0.102181   0.000219   0.001034
    30  C    0.000046   0.020467   0.226546  -0.003117   0.000013   0.000425
    31  H    0.000000  -0.000058  -0.001256   0.000071   0.000000   0.000000
    32  H   -0.000004   0.000018   0.001971   0.000140   0.000000   0.000000
    33  H   -0.000014  -0.000192   0.003061   0.000181   0.000000   0.000000
    34  O    0.002184   0.013333   0.086397  -0.022825  -0.000003  -0.000194
    35  O   -0.005848   0.001374   0.164746  -0.017485   0.000055   0.001715
    36  O    0.002388   0.005051  -0.086407  -0.080672   0.000060  -0.005473
    37  H    0.000675  -0.012568  -0.080442   0.032992   0.000000   0.000600
    38  H   -0.000207  -0.007727  -0.088770  -0.017748   0.000001  -0.000045
    39  O    0.000049  -0.000476   0.001034   0.009457   0.000000   0.000006
    40  H    0.000108  -0.000678  -0.008593  -0.000760   0.000000   0.000000
    41  H    0.000001   0.000095   0.000502  -0.000630   0.000000   0.000000
    42  O    0.007627  -0.013025   0.039736  -0.016217  -0.000001   0.000001
    43  H   -0.000297  -0.000036  -0.002484   0.003884   0.000000   0.000000
    44  H    0.001986  -0.001521   0.009905   0.007622   0.000000  -0.000010
    45  O    0.059203   0.344134  -1.095216   0.233989  -0.014360  -0.031231
    46  H    0.011073  -0.031449   0.075800  -0.028347  -0.000022   0.000359
    47  H   -0.001900  -0.017097   0.041515   0.001942   0.000264   0.001408
               7          8          9         10         11         12
     1  C   -0.088807  -0.020378  -0.014433   0.024618   0.518299   0.121011
     2  C    0.158468   0.009279   0.012343  -0.020677  -0.520168  -0.134331
     3  C   -0.386812  -0.034462  -0.040266   0.030781  -0.749890  -0.339770
     4  C    0.114680   0.023194   0.037195  -0.055559   0.111805   0.485763
     5  H    0.003580  -0.000007   0.000038   0.000002   0.021847  -0.000297
     6  H    0.002816  -0.000001   0.000027  -0.000007   0.013721  -0.010498
     7  C    5.261595   0.408574   0.412377   0.409254   0.181617  -0.026389
     8  H    0.408574   0.512285  -0.028134  -0.023679  -0.038027   0.000985
     9  H    0.412377  -0.028134   0.516487  -0.025178  -0.043206  -0.000690
    10  H    0.409254  -0.023679  -0.025178   0.516079  -0.046705   0.010659
    11  N    0.181617  -0.038027  -0.043206  -0.046705   7.387900  -0.095271
    12  O   -0.026389   0.000985  -0.000690   0.010659  -0.095271   8.332063
    13  O   -0.025058   0.004099   0.002096   0.000153  -0.095869  -0.003683
    14  C   -0.095502   0.006711  -0.006170   0.009535   0.370474   0.163824
    15  H   -0.000290   0.000001   0.000000  -0.000003   0.003409   0.006671
    16  C   -0.019213  -0.000442   0.000152   0.000561   0.013584  -0.010490
    17  H   -0.000918  -0.000002  -0.000001   0.000000   0.001758   0.000104
    18  C    0.002381   0.001654  -0.000040  -0.000392   0.012038   0.026388
    19  H   -0.000622   0.000000   0.000000   0.000000  -0.001576   0.000011
    20  C   -0.024451   0.000305  -0.000471   0.002744  -0.003386   0.028322
    21  H    0.000143   0.000000   0.000000   0.000000   0.000213  -0.000094
    22  C   -0.003217  -0.000288   0.000155  -0.000065  -0.015966  -0.000386
    23  H    0.000131   0.000000   0.000000   0.000000   0.000148  -0.000003
    24  H    0.000000   0.000000   0.000000   0.000000   0.000029  -0.000005
    25  H   -0.000083   0.000000   0.000000   0.000000  -0.000050   0.000097
    26  C    0.011379  -0.000018  -0.000171  -0.000043   0.037369  -0.012214
    27  H    0.000159   0.000000   0.000000   0.000000  -0.000729  -0.001111
    28  H   -0.000118   0.000000   0.000000   0.000000   0.000096   0.000282
    29  C    0.000748   0.000004  -0.000001   0.000063   0.009372  -0.001217
    30  C   -0.000213  -0.000001   0.000000   0.000002  -0.000701  -0.000491
    31  H    0.000000   0.000000   0.000000   0.000000   0.000001   0.000007
    32  H    0.000000   0.000000   0.000000   0.000000   0.000000  -0.000001
    33  H    0.000000   0.000000   0.000000   0.000000   0.000000   0.000000
    34  O   -0.000211   0.000000   0.000000  -0.000002  -0.000009   0.001845
    35  O    0.000285   0.000000   0.000000   0.000000   0.001923   0.000214
    36  O   -0.003089   0.000000   0.000003   0.000015  -0.005433  -0.017171
    37  H    0.000976   0.000000   0.000000   0.000006   0.002347   0.019523
    38  H   -0.000207   0.000000   0.000000   0.000000  -0.000228   0.002037
    39  O    0.000171   0.000000   0.000000   0.000000   0.000136  -0.000890
    40  H   -0.000012   0.000000   0.000000   0.000000   0.000010   0.000251
    41  H   -0.000008   0.000000   0.000000   0.000000  -0.000011   0.000029
    42  O   -0.044365   0.001334   0.001471  -0.003538  -0.005290  -0.002149
    43  H    0.002677  -0.000029  -0.000002  -0.000287  -0.000499   0.001671
    44  H    0.002032  -0.000161   0.000008   0.000521  -0.001830   0.032556
    45  O    0.002949   0.000010   0.000112   0.000033   0.022031   0.006704
    46  H   -0.000027   0.000000   0.000000   0.000000  -0.000354  -0.000165
    47  H   -0.000756   0.000000   0.000005  -0.000001  -0.000274  -0.000159
              13         14         15         16         17         18
     1  C    0.324355   1.246772  -0.002384  -0.144752   0.015839  -0.195606
     2  C    0.125391  -0.769374  -0.069776  -1.319769  -0.117828   0.838502
     3  C   -0.218621 -20.637093  -0.116363   0.324527   0.035835  -3.884682
     4  C    0.157789  -2.623615   0.083096   0.176717  -0.003422   0.562016
     5  H   -0.000928  -0.002621  -0.000113  -0.029063   0.000490   0.024934
     6  H   -0.000444  -0.300179   0.001932   0.007452  -0.000106  -0.032279
     7  C   -0.025058  -0.095502  -0.000290  -0.019213  -0.000918   0.002381
     8  H    0.004099   0.006711   0.000001  -0.000442  -0.000002   0.001654
     9  H    0.002096  -0.006170   0.000000   0.000152  -0.000001  -0.000040
    10  H    0.000153   0.009535  -0.000003   0.000561   0.000000  -0.000392
    11  N   -0.095869   0.370474   0.003409   0.013584   0.001758   0.012038
    12  O   -0.003683   0.163824   0.006671  -0.010490   0.000104   0.026388
    13  O    8.302418   0.008349   0.000042  -0.075332   0.005755   0.021900
    14  C    0.008349  35.663248   0.365967  -2.003995   0.034038   2.222170
    15  H    0.000042   0.365967   0.552126   0.016897   0.000004   0.011748
    16  C   -0.075332  -2.003995   0.016897   8.760801   0.321712  -0.257990
    17  H    0.005755   0.034038   0.000004   0.321712   0.573299   0.052312
    18  C    0.021900   2.222170   0.011748  -0.257990   0.052312   8.302628
    19  H    0.000091   0.014712  -0.000115  -0.081293  -0.006884   0.276798
    20  C   -0.002774  -3.582974   0.071113   1.275462  -0.006035  -1.036499
    21  H    0.000044  -0.143873  -0.007033   0.024912  -0.000128  -0.024576
    22  C   -0.009971  -0.491671  -0.004165  -0.780606  -0.045680  -0.245735
    23  H   -0.000171  -0.027101   0.000002  -0.051090  -0.003353  -0.030241
    24  H    0.000124  -0.053875   0.000000  -0.092721  -0.004500  -0.048896
[...]
    46  H    3.712772   4.407106   4.063735   5.346945   5.805429
    47  H    3.326617   3.435862   4.456314   5.195884   5.364113
                   16         17         18         19         20
    16  C    0.000000
    17  H    1.095970   0.000000
    18  C    1.509889   2.126841   0.000000
    19  H    2.225058   2.421058   1.087798   0.000000
    20  C    2.506829   3.317405   1.337225   2.101261   0.000000
    21  H    3.492727   4.194944   2.104320   2.422786   1.086531
    22  C    1.543201   2.134937   2.524490   3.045739   3.388191
    23  H    2.181744   2.441018   3.470083   3.975849   4.358094
    24  H    2.180989   2.497170   2.734979   2.870423   3.732125
    25  H    2.197060   3.063856   2.846233   3.526649   3.300283
    26  C    3.735059   4.820708   3.392306   4.299718   2.522482
    27  H    4.496577   5.571920   4.350798   5.316919   3.472342
    28  H    3.347681   4.434852   3.262726   4.121371   2.795219
    29  C    5.779322   6.802509   4.941351   5.577043   3.734089
    30  C    6.815064   7.786062   5.780877   6.194503   4.626987
    31  H    6.988100   7.882291   5.800428   6.113222   4.609027
    32  H    7.771247   8.771639   6.808433   7.266025   5.632707
    33  H    6.724749   7.673001   5.682037   5.977203   4.694675
    34  O    6.151290   7.168164   5.447993   6.206250   4.182525
    35  O    4.675295   5.719630   3.934183   4.592004   2.910496
    36  O    6.348152   7.261318   6.197489   7.191596   5.156403
    37  H    5.722023   6.563564   5.605806   6.602892   4.632352
    38  H    6.166433   7.136068   5.834354   6.776579   4.692192
    39  O    8.176795   9.041393   7.304534   7.938179   5.979319
    40  H    7.312651   8.146561   6.459751   7.114610   5.152732
    41  H    8.016713   8.949291   7.170543   7.827660   5.837669
    42  O    7.391638   7.818201   7.161348   7.916913   6.382152
    43  H    7.679157   8.160849   7.266378   7.973683   6.364781
    44  H    6.494373   6.972026   6.317482   7.129424   5.548000
    45  O    4.746726   5.153688   5.704131   6.700305   5.670666
    46  H    4.923958   5.184647   6.065813   7.004225   6.221802
    47  H    5.511380   5.871443   6.366547   7.352920   6.243888
                   21         22         23         24         25
    21  H    0.000000
    22  C    4.304009   0.000000
    23  H    5.328168   1.095355   0.000000
    24  H    4.464148   1.094398   1.774640   0.000000
    25  H    4.182002   1.094015   1.772819   1.768161   0.000000
    26  C    3.026895   3.833363   4.608533   4.434370   3.040636
    27  H    3.975671   4.558796   5.169063   5.278911   3.703511
    28  H    3.442598   3.044285   3.788631   3.608432   2.107770
    29  C    3.483846   5.984220   6.877944   6.347034   5.216128
    30  C    4.078878   6.961856   7.929399   7.129184   6.227304
    31  H    3.863920   7.335682   8.346884   7.472189   6.726052
    32  H    5.130015   7.862767   8.786000   8.071103   7.056476
    33  H    4.146743   6.694662   7.683572   6.713843   5.963653
    34  O    4.054169   6.500790   7.302398   7.025588   5.745261
    35  O    2.898415   4.716152   5.626654   5.042723   3.929188
    36  O    5.502025   6.878188   7.349892   7.738907   6.237184
    37  H    5.050723   6.420240   6.879288   7.306101   5.909887
    38  H    4.911015   6.639978   7.229494   7.407367   5.941289
    39  O    5.578376   8.890271   9.701835   9.422070   8.308299
    40  H    4.807777   8.107911   8.909875   8.663517   7.591496
    41  H    5.464384   8.573338   9.390405   9.083501   7.900094
    42  O    6.596703   8.613329   9.028470   9.440190   8.501432
    43  H    6.424898   8.892741   9.406639   9.660354   8.729553
    44  H    5.852200   7.674596   8.086996   8.521002   7.541590
    45  O    6.644606   5.255166   5.012476   6.339142   5.183565
    46  H    7.243905   5.310175   4.875263   6.373326   5.353450
    47  H    7.155596   6.148153   5.939218   7.223493   6.087472
                   26         27         28         29         30
    26  C    0.000000
    27  H    1.092330   0.000000
    28  H    1.089352   1.785035   0.000000
    29  C    2.396521   2.573723   3.221089   0.000000
    30  C    3.726945   4.023495   4.372695   1.500623   0.000000
    31  H    4.253720   4.641081   4.983674   2.115266   1.095205
    32  H    4.442917   4.510899   5.103011   2.126522   1.092277
    33  H    3.903731   4.369485   4.299450   2.158318   1.089915
    34  O    2.712956   2.468428   3.710636   1.226832   2.409096
    35  O    1.453095   2.085750   2.018857   1.339070   2.367767
    36  O    3.699240   2.893660   4.591543   3.959447   5.301681
    37  H    3.594681   2.984196   4.475343   4.189891   5.573715
    38  H    3.131847   2.403326   4.108599   3.014440   4.332704
    39  O    5.351569   5.112499   6.423382   3.748443   4.070268
    40  H    4.723927   4.561530   5.808638   3.439306   4.006214
    41  H    4.882448   4.596467   5.917102   3.076802   3.367801
    42  O    6.657409   6.416815   7.527527   6.997700   8.081575
    43  H    6.646911   6.435297   7.592850   6.658492   7.615702
    44  H    5.751529   5.521100   6.590582   6.282709   7.454362
    45  O    5.191697   4.879527   5.261649   7.187823   8.666317
    46  H    5.843640   5.597569   5.762643   7.962678   9.428064
    47  H    5.818079   5.434132   6.018460   7.633970   9.115564
                   31         32         33         34         35
    31  H    0.000000
    32  H    1.767512   0.000000
    33  H    1.780919   1.793584   0.000000
    34  O    2.800286   2.659300   3.283069   0.000000
    35  O    2.987029   3.176277   2.451239   2.259400   0.000000
    36  O    5.595015   5.463621   6.108396   2.896409   4.356821
    37  H    5.754633   5.900949   6.338362   3.247807   4.417269
    38  H    4.653060   4.501381   5.154608   1.926092   3.541603
    39  O    3.723502   3.981185   5.150024   2.888645   4.925915
    40  H    3.642781   4.162783   5.038129   2.581804   4.453792
    41  H    3.229036   3.151517   4.456758   2.231818   4.337898
    42  O    7.789852   8.485163   8.931281   6.113329   7.333853
    43  H    7.240277   7.974306   8.513061   5.763341   7.139905
    44  H    7.244039   7.910315   8.254158   5.443226   6.513104
    45  O    8.985735   9.231769   9.048828   6.737737   6.619640
    46  H    9.771754  10.022836   9.739088   7.589893   7.291077
    47  H    9.375791   9.636219   9.588546   7.055189   7.203225
                   36         37         38         39         40
    36  O    0.000000
    37  H    0.975838   0.000000
    38  H    0.972061   1.546454   0.000000
    39  O    3.856280   4.124707   3.292843   0.000000
    40  H    3.379446   3.454846   2.838164   0.967308   0.000000
    41  H    3.691675   4.116511   2.971655   0.969651   1.504051
    42  O    4.385373   3.686582   4.875076   5.303646   4.611238
    43  H    4.378104   3.789120   4.723449   4.579488   3.942627
    44  H    3.687969   2.883314   4.172204   5.075606   4.293743
    45  O    4.810098   4.195042   5.382253   8.246921   7.464027
    46  H    5.749844   5.153813   6.299918   9.191505   8.399416
    47  H    4.837889   4.195739   5.533578   8.255933   7.488342
                   41         42         43         44         45
    41  H    0.000000
    42  O    5.933155   0.000000
    43  H    5.299513   0.966033   0.000000
    44  H    5.582251   0.975164   1.542590   0.000000
    45  O    8.201607   5.682883   6.389828   4.857964   0.000000
    46  H    9.129868   6.510197   7.255106   5.715411   0.966961
    47  H    8.298329   5.181032   5.965548   4.454450   0.967214
                   46         47
    46  H    0.000000
    47  H    1.532106   0.000000
 Stoichiometry    C13H25NO8
 Framework group  C1[X(C13H25NO8)]
 Deg. of freedom   135
 Full point group                 C1      NOp   1
 Largest Abelian subgroup         C1      NOp   1
 Largest concise Abelian subgroup C1      NOp   1
                         Standard orientation:                         
 ---------------------------------------------------------------------
 Center     Atomic      Atomic             Coordinates (Angstroms)
 Number     Number       Type             X           Y           Z
 ---------------------------------------------------------------------
      1          6           0       -3.009557   -0.230087   -0.482436
      2          6           0       -2.103832   -1.174617    0.296205
      3          6           0       -0.824948   -0.338018    0.561356
      4          6           0       -1.189306    1.051009    0.068409
      5          1           0       -2.622617   -1.340848    1.245728
      6          1           0       -0.651838   -0.238816    1.636304
      7          6           0       -3.062249    2.189406   -1.136110
      8          1           0       -3.649991    1.867790   -1.995540
      9          1           0       -3.721269    2.650131   -0.394865
     10          1           0       -2.301812    2.904396   -1.444118
     11          7           0       -2.403804    1.022715   -0.560240
     12          8           0       -0.493442    2.063070    0.188112
     13          8           0       -4.101788   -0.480025   -0.961422
     14          6           0        0.487920   -0.809125   -0.134791
     15          1           0        1.034076    0.081778   -0.461239
     16          6           0       -1.945536   -2.527502   -0.434747
     17          1           0       -2.892775   -2.716007   -0.952775
     18          6           0       -0.844076   -2.464326   -1.465552
     19          1           0       -0.944029   -3.112072   -2.333732
     20          6           0        0.238757   -1.690452   -1.336080
     21          1           0        1.015166   -1.706750   -2.095997
     22          6           0       -1.735375   -3.698287    0.548394
     23          1           0       -2.597773   -3.795272    1.216725
     24          1           0       -1.617311   -4.639006    0.001754
     25          1           0       -0.842161   -3.554678    1.163549
     26          6           0        1.389747   -1.506485    0.900948
     27          1           0        1.611557   -0.840799    1.738114
     28          1           0        0.933739   -2.424393    1.269985
     29          6           0        3.611222   -1.043076    0.130483
     30          6           0        4.804269   -1.599505   -0.589861
     31          1           0        4.812396   -1.187630   -1.604635
     32          1           0        5.714794   -1.266309   -0.086877
     33          1           0        4.774010   -2.687588   -0.645300
     34          8           0        3.525669    0.120128    0.510950
     35          8           0        2.635568   -1.945324    0.295277
     36          8           0        1.822107    2.043074    1.848613
     37          1           0        1.029115    2.049922    1.279951
     38          1           0        2.424012    1.400793    1.436198
     39          8           0        4.525893    2.451524   -0.870505
     40          1           0        3.604068    2.198577   -1.018630
     41          1           0        4.830720    1.753060   -0.270962
     42          8           0       -0.295948    4.658316   -0.963122
     43          1           0        0.555209    4.665904   -1.419953
     44          1           0       -0.365876    3.770461   -0.565921
     45          8           0       -2.817255    1.017953    2.598610
     46          1           0       -3.653512    0.650622    2.916029
     47          1           0       -2.959919    1.974376    2.578463
 ---------------------------------------------------------------------
 Rotational constants (GHZ):      0.2952816      0.1948644      0.1409591
 Standard basis: 6-31+G(d,p) (6D, 7F)
 There are   543 symmetry adapted cartesian basis functions of A   symmetry.
 There are   543 symmetry adapted basis functions of A   symmetry.
   543 basis functions,   879 primitive gaussians,   543 cartesian basis functions
    87 alpha electrons       87 beta electrons
       nuclear repulsion energy      2054.6834567786 Hartrees.
 NAtoms=   47 NActive=   47 NUniq=   47 SFac= 1.00D+00 NAtFMM=   60 NAOKFM=F Big=F
 Integral buffers will be    131072 words long.
 Raffenetti 2 integral format.
 Two-electron integral symmetry is turned on.
 Nuclear repulsion after empirical dispersion term =     2054.6282277976 Hartrees.
 ------------------------------------------------------------------------------
 Polarizable Continuum Model (PCM)
 =================================
 Model                : C-PCM.
 Atomic radii         : UFF (Universal Force Field).
 Polarization charges : Total charges.
 Charge compensation  : None.
 Solution method      : On-the-fly selection.
 Cavity type          : Scaled VdW (van der Waals Surface) (Alpha=1.100).
 Cavity algorithm     : GePol (No added spheres)
                        Default sphere list used, NSphG=   47.
                        Lebedev-Laikov grids with approx.  5.0 points / Ang**2.
                        Smoothing algorithm: Karplus/York (Gamma=1.0000).
                        Polarization charges: spherical gaussians, with
                                              point-specific exponents (IZeta= 3).
                        Self-potential: point-specific (ISelfS= 7).
                        Self-field    : sphere-specific E.n sum rule (ISelfD= 2).
 1st derivatives      : Analytical E(r).r(x)/FMM algorithm (CHGder, D1EAlg=3).
                        Cavity 1st derivative terms included.
 Solvent              : Water, Eps=  78.355300 Eps(inf)=   1.777849
 ------------------------------------------------------------------------------
 One-electron integrals computed using PRISM.
 NBasis=   543 RedAO= T EigKep=  1.43D-06  NBF=   543
 NBsUse=   543 1.00D-06 EigRej= -1.00D+00 NBFU=   543
 Initial guess from the checkpoint file:  "b3lyp_PM6_4H2O_cyclohexene_pm6_cpcmtoluene_3_water_1.chk"
 B after Tr=     0.000000    0.000000    0.000000
         Rot=    0.999998    0.000445    0.001509   -0.000978 Ang=   0.21 deg.
 ExpMin= 4.38D-02 ExpMax= 5.48D+03 ExpMxC= 8.25D+02 IAcc=2 IRadAn=         4 AccDes= 0.00D+00
 Harris functional with IExCor=  402 and IRadAn=       4 diagonalized for initial guess.
 HarFok:  IExCor=  402 AccDes= 0.00D+00 IRadAn=         4 IDoV= 1 UseB2=F ITyADJ=14
 ICtDFT=  3500011 ScaDFX=  1.000000  1.000000  1.000000  1.000000
 FoFCou: FMM=F IPFlag=           0 FMFlag=      100000 FMFlg1=           0
         NFxFlg=           0 DoJE=T BraDBF=F KetDBF=T FulRan=T
         wScrn=  0.000000 ICntrl=     500 IOpCl=  0 I1Cent=   200000004 NGrid=           0
         NMat0=    1 NMatS0=      1 NMatT0=    0 NMatD0=    1 NMtDS0=    0 NMtDT0=    0
 Petite list used in FoFCou.
 Requested convergence on RMS density matrix=1.00D-08 within 128 cycles.
 Requested convergence on MAX density matrix=1.00D-06.
 Requested convergence on             energy=1.00D-06.
 No special actions if energy rises.
 Inv3:  Mode=3 IEnd=        6844.
 Iteration    1 A*A^-1 deviation from unit magnitude is 1.28D-14 for   3404.
 Iteration    1 A*A^-1 deviation from orthogonality  is 3.31D-15 for   2468   1132.
 Iteration    1 A^-1*A deviation from unit magnitude is 1.28D-14 for   3404.
 Iteration    1 A^-1*A deviation from orthogonality  is 2.18D-15 for   3374   1274.
 Error on total polarization charges =  0.02024
 SCF Done:  E(RB3LYP) =  -1167.21575323     A.U. after   11 cycles
            NFock= 11  Conv=0.66D-08     -V/T= 2.0094
 D1PCM: C-PCM CHGder 1st derivatives, ID1Alg=3 FixD1E=F DoIter=F DoCFld=F I1PDM=0.
 Calling FoFJK, ICntrl=      2127 FMM=F ISym2X=0 I1Cent= 0 IOpClX= 0 NMat=1 NMatS=1 NMatT=0.
 ***** Axes restored to original set *****
 -------------------------------------------------------------------
 Center     Atomic                   Forces (Hartrees/Bohr)
 Number     Number              X              Y              Z
 -------------------------------------------------------------------
      1        6           0.000818320    0.000362300   -0.000298852
      2        6           0.000505905    0.000593839    0.000068131
      3        6          -0.000526693   -0.000651715   -0.000100104
      4        6          -0.000110972    0.001130656    0.000360236
      5        1          -0.000123026   -0.000212530    0.000107668
      6        1          -0.000158259    0.000362546    0.000080792
      7        6           0.000083774    0.000115768    0.000193204
      8        1          -0.000007148   -0.000067002    0.000002665
      9        1           0.000026981   -0.000013310   -0.000038551
     10        1          -0.000138802    0.000608109   -0.000508922
     11        7          -0.000106751   -0.000207749    0.000482084
     12        8          -0.000138160   -0.001253337   -0.000091991
     13        8          -0.000693941   -0.000171089   -0.000024021
     14        6           0.000715288    0.000067594   -0.000299650
     15        1           0.000188042    0.000180947    0.000150008
     16        6           0.000173961   -0.000718239   -0.000204013
     17        1          -0.000161674    0.000010934    0.000040205
     18        6          -0.000434214    0.000060784    0.000164416
     19        1           0.000092085   -0.000002699   -0.000024568
     20        6          -0.000003449    0.000202448    0.000237556
     21        1           0.000029092   -0.000046352   -0.000034381
     22        6          -0.000030388    0.000102690    0.000152430
     23        1           0.000031528   -0.000014614   -0.000031766
     24        1           0.000028568   -0.000033807    0.000025697
     25        1          -0.000263381   -0.000102593   -0.000139131
     26        6           0.000457285   -0.000202445   -0.000003324
     27        1          -0.000098432    0.000004721    0.000083030
     28        1           0.000190747    0.000134276    0.000140532
     29        6          -0.000563947   -0.000079766    0.000495673
     30        6           0.000762107   -0.000331450   -0.000040427
     31        1          -0.000142803   -0.000027806    0.000013371
     32        1          -0.000119582    0.000069300   -0.000065898
     33        1          -0.000036765    0.000037945    0.000049366
     34        8           0.000742872   -0.000244843    0.000394343
     35        8          -0.000559395    0.000507421   -0.000486377
     36        8           0.000027262   -0.000153466    0.000234332
     37        1           0.000411901    0.000332937    0.000019916
     38        1          -0.000319340   -0.000383539   -0.000254285
     39        8           0.000268093   -0.000932888    0.000247266
     40        1          -0.000316146    0.001326690   -0.000601902
     41        1          -0.000616678    0.000105295   -0.000114492
     42        8          -0.000085745    0.000063645   -0.000085116
     43        1          -0.000011733    0.000014416    0.000022997
     44        1          -0.000002139   -0.000477897    0.000118397
     45        8           0.000065140    0.000043919   -0.000468739
     46        1           0.000054713   -0.000024394   -0.000053542
     47        1           0.000095897   -0.000085651    0.000085735
 -------------------------------------------------------------------
 Cartesian Forces:  Max     0.001326690 RMS     0.000345294

 GradGradGradGradGradGradGradGradGradGradGradGradGradGradGradGradGradGrad
 Berny optimization.
 Using GEDIIS/GDIIS optimizer.
 Bend failed for angle    12 -    37 -    36
 Tors failed for dihedral     4 -    12 -    37 -    36
 Tors failed for dihedral    44 -    12 -    37 -    36
 Tors failed for dihedral    38 -    36 -    37 -    12
 FormBX had a problem.
 Error termination via Lnk1e in /apps/applications/gaussian/G09.D01/2/default/g09/l103.exe at Thu Aug 27 19:39:16 2020.
 Job cpu time:       0 days 10 hours 46 minutes  0.2 seconds.
 File lengths (MBytes):  RWF=    714 Int=      0 D2E=      0 Chk=     26 Scr=      1
