 Entering Gaussian System, Link 0=g09
 Input=freq_m062x_Diels_Alder_4H2O_TS_PM6_freq_1_gd3_water.com
 Output=freq_m062x_Diels_Alder_4H2O_TS_PM6_freq_1_gd3_water.log
 Initial command:
 /apps/applications/gaussian/G09.D01/2/default/g09/l1.exe "/local/725886.1.40core-192G.q/Gau-85480.inp" -scrdir="/local/725886.1.40core-192G.q/"
 Entering Link 1 = /apps/applications/gaussian/G09.D01/2/default/g09/l1.exe PID=     85481.
  
 Copyright (c) 1988,1990,1992,1993,1995,1998,2003,2009,2013,
            Gaussian, Inc.  All Rights Reserved.
  
 This is part of the Gaussian(R) 09 program.  It is based on
 the Gaussian(R) 03 system (copyright 2003, Gaussian, Inc.),
 the Gaussian(R) 98 system (copyright 1998, Gaussian, Inc.),
 the Gaussian(R) 94 system (copyright 1995, Gaussian, Inc.),
 the Gaussian 92(TM) system (copyright 1992, Gaussian, Inc.),
 the Gaussian 90(TM) system (copyright 1990, Gaussian, Inc.),
 the Gaussian 88(TM) system (copyright 1988, Gaussian, Inc.),
 the Gaussian 86(TM) system (copyright 1986, Carnegie Mellon
 University), and the Gaussian 82(TM) system (copyright 1983,
 Carnegie Mellon University). Gaussian is a federally registered
 trademark of Gaussian, Inc.
  
 This software contains proprietary and confidential information,
 including trade secrets, belonging to Gaussian, Inc.
  
 This software is provided under written license and may be
 used, copied, transmitted, or stored only in accord with that
 written license.
  
 The following legend is applicable only to US Government
 contracts under FAR:
  
                    RESTRICTED RIGHTS LEGEND
  
 Use, reproduction and disclosure by the US Government is
 subject to restrictions as set forth in subparagraphs (a)
 and (c) of the Commercial Computer Software - Restricted
 Rights clause in FAR 52.227-19.
  
 Gaussian, Inc.
 340 Quinnipiac St., Bldg. 40, Wallingford CT 06492
  
  
 ---------------------------------------------------------------
 Warning -- This program may not be used in any manner that
 competes with the business of Gaussian, Inc. or will provide
 assistance to any competitor of Gaussian, Inc.  The licensee
 of this program is prohibited from giving any competitor of
 Gaussian, Inc. access to this program.  By using this program,
 the user acknowledges that Gaussian, Inc. is engaged in the
 business of creating and licensing software in the field of
 computational chemistry and represents and warrants to the
 licensee that it is not a competitor of Gaussian, Inc. and that
 it will not use this program in any manner prohibited above.
 ---------------------------------------------------------------
  

 Cite this work as:
 Gaussian 09, Revision D.01,
 M. J. Frisch, G. W. Trucks, H. B. Schlegel, G. E. Scuseria, 
 M. A. Robb, J. R. Cheeseman, G. Scalmani, V. Barone, B. Mennucci, 
 G. A. Petersson, H. Nakatsuji, M. Caricato, X. Li, H. P. Hratchian, 
 A. F. Izmaylov, J. Bloino, G. Zheng, J. L. Sonnenberg, M. Hada, 
 M. Ehara, K. Toyota, R. Fukuda, J. Hasegawa, M. Ishida, T. Nakajima, 
 Y. Honda, O. Kitao, H. Nakai, T. Vreven, J. A. Montgomery, Jr., 
 J. E. Peralta, F. Ogliaro, M. Bearpark, J. J. Heyd, E. Brothers, 
 K. N. Kudin, V. N. Staroverov, T. Keith, R. Kobayashi, J. Normand, 
 K. Raghavachari, A. Rendell, J. C. Burant, S. S. Iyengar, J. Tomasi, 
 M. Cossi, N. Rega, J. M. Millam, M. Klene, J. E. Knox, J. B. Cross, 
 V. Bakken, C. Adamo, J. Jaramillo, R. Gomperts, R. E. Stratmann, 
 O. Yazyev, A. J. Austin, R. Cammi, C. Pomelli, J. W. Ochterski, 
 R. L. Martin, K. Morokuma, V. G. Zakrzewski, G. A. Voth, 
 P. Salvador, J. J. Dannenberg, S. Dapprich, A. D. Daniels, 
 O. Farkas, J. B. Foresman, J. V. Ortiz, J. Cioslowski, 
 and D. J. Fox, Gaussian, Inc., Wallingford CT, 2013.
 
 ******************************************
 Gaussian 09:  ES64L-G09RevD.01 24-Apr-2013
                 6-Sep-2020 
 ******************************************
 %nprocshared=4
 Will use up to    4 processors via shared memory.
 %chk=freq_m062x_Diels_Alder_4H2O_TS_PM6_freq_1_gd3_water.chk
 ----------------------------------------------------------------------
 # freq scrf=(cpcm,solvent=water) geom=connectivity def2svp empiricaldi
 spersion=gd3 m062x
 ----------------------------------------------------------------------
 1/10=4,30=1,38=1,57=2/1,3;
 2/12=2,17=6,18=5,40=1/2;
 3/5=43,7=101,11=2,16=1,25=1,30=1,70=2101,71=2,72=1,74=-55,124=31,140=1/1,2,3;
 4//1;
 5/5=2,38=5,53=1,98=1/2;
 8/6=4,10=90,11=11/1;
 11/6=1,8=1,9=11,15=111,16=1/1,2,10;
 10/6=1/2;
 6/7=2,8=2,9=2,10=2,18=1,28=1/1;
 7/8=1,10=1,25=1/1,2,3,16;
 1/10=4,30=1/3;
 99//99;
 -------------------
 Title Card Required
 -------------------
 Symbolic Z-matrix:
 Charge =  0 Multiplicity = 1
 C                     2.3655    1.05341   0.67611 
 C                     1.94651  -0.37721   0.68692 
 C                     0.56588  -0.40309   0.53775 
 C                     0.09565   1.00673   0.50344 
 H                     2.57581  -1.11684   1.17622 
 H                    -0.10744  -1.2046    0.83851 
 C                     1.18247   3.25695   0.34672 
 H                     0.79477   3.70209   1.2736 
 H                     2.20567   3.60877   0.17562 
 H                     0.54001   3.54894  -0.4938 
 N                     1.22127   1.81301   0.44358 
 O                    -1.04607   1.42469   0.51165 
 O                     3.471     1.52797   0.83484 
 C                     2.11531  -2.01374  -1.63717 
 H                     2.52307  -3.02786  -1.60036 
 C                     0.73282  -1.85905  -1.83176 
 H                     0.11523  -2.7551   -1.94521 
 C                     2.94298  -0.95916  -1.29088 
 H                     2.64792   0.04866  -1.59799 
 C                     4.39811  -1.14507  -0.98907 
 H                     4.67587  -0.61967  -0.06631 
 H                     4.64131  -2.20879  -0.86384 
 H                     5.01322  -0.73428  -1.80378 
 C                     0.10715  -0.63784  -1.66283 
 H                     0.68641   0.27394  -1.83123 
 C                    -1.38378  -0.4648   -1.79648 
 H                    -1.74236  -0.92018  -2.73316 
 H                    -1.6349    0.60218  -1.80242 
 C                    -3.14368  -0.681    -0.15704 
 C                    -3.91678   0.40289  -0.84612 
 H                    -4.14741   0.09598  -1.87618 
 H                    -4.83887   0.56918  -0.28118 
 H                    -3.32541   1.32665  -0.90002 
 O                    -2.01916  -1.12864  -0.70056 
 O                    -3.51239  -1.21295   0.87294 
 H                     4.47812   0.30892   1.88854 
 H                    -2.35619   3.70182  -1.60433 
 H                    -2.10751  -2.36114   1.47947 
 H                    -5.15826  -0.55711   1.55644 
 O                    -1.34455  -2.85051   1.83327 
 H                    -1.16407  -2.40004   2.66708 
 O                    -5.96623  -0.04659   1.73464 
 H                    -5.62835   0.74332   2.17342 
 O                    -1.71689   2.98119  -1.65253 
 H                    -1.58784   2.70463  -0.73058 
 O                     4.71572  -0.50408   2.3647 
 H                     5.65198  -0.62364   2.16739 
 

 GradGradGradGradGradGradGradGradGradGradGradGradGradGradGradGradGradGrad
 Berny optimization.
 Initialization pass.
 Trust Radius=3.00D-01 FncErr=1.00D-07 GrdErr=1.00D-07
 Number of steps in this run=      2 maximum allowed number of steps=      2.
 GradGradGradGradGradGradGradGradGradGradGradGradGradGradGradGradGradGrad

                          Input orientation:                          
 ---------------------------------------------------------------------
 Center     Atomic      Atomic             Coordinates (Angstroms)
 Number     Number       Type             X           Y           Z
 ---------------------------------------------------------------------
      1          6           0        2.365497    1.053408    0.676105
      2          6           0        1.946506   -0.377209    0.686917
      3          6           0        0.565883   -0.403088    0.537752
      4          6           0        0.095647    1.006735    0.503435
      5          1           0        2.575810   -1.116836    1.176220
      6          1           0       -0.107438   -1.204596    0.838506
      7          6           0        1.182467    3.256950    0.346719
      8          1           0        0.794772    3.702094    1.273600
      9          1           0        2.205665    3.608772    0.175618
     10          1           0        0.540006    3.548944   -0.493801
     11          7           0        1.221269    1.813011    0.443580
     12          8           0       -1.046066    1.424691    0.511646
     13          8           0        3.471004    1.527967    0.834836
     14          6           0        2.115312   -2.013738   -1.637169
     15          1           0        2.523072   -3.027865   -1.600364
     16          6           0        0.732815   -1.859046   -1.831764
     17          1           0        0.115225   -2.755100   -1.945205
     18          6           0        2.942980   -0.959155   -1.290878
     19          1           0        2.647919    0.048664   -1.597989
     20          6           0        4.398110   -1.145069   -0.989073
     21          1           0        4.675869   -0.619667   -0.066311
     22          1           0        4.641312   -2.208786   -0.863842
     23          1           0        5.013221   -0.734281   -1.803782
     24          6           0        0.107152   -0.637837   -1.662825
     25          1           0        0.686409    0.273940   -1.831226
     26          6           0       -1.383777   -0.464797   -1.796481
     27          1           0       -1.742356   -0.920176   -2.733156
     28          1           0       -1.634898    0.602183   -1.802415
     29          6           0       -3.143682   -0.681000   -0.157036
     30          6           0       -3.916775    0.402886   -0.846116
     31          1           0       -4.147405    0.095976   -1.876178
     32          1           0       -4.838865    0.569184   -0.281180
     33          1           0       -3.325413    1.326652   -0.900020
     34          8           0       -2.019159   -1.128635   -0.700562
     35          8           0       -3.512390   -1.212945    0.872942
     36          1           0        4.478117    0.308924    1.888539
     37          1           0       -2.356193    3.701815   -1.604332
     38          1           0       -2.107513   -2.361136    1.479468
     39          1           0       -5.158255   -0.557109    1.556437
     40          8           0       -1.344551   -2.850506    1.833267
     41          1           0       -1.164066   -2.400035    2.667076
     42          8           0       -5.966227   -0.046585    1.734644
     43          1           0       -5.628353    0.743322    2.173416
     44          8           0       -1.716894    2.981191   -1.652533
     45          1           0       -1.587838    2.704633   -0.730583
     46          8           0        4.715724   -0.504078    2.364703
     47          1           0        5.651984   -0.623638    2.167391
 ---------------------------------------------------------------------
                    Distance matrix (angstroms):
                    1          2          3          4          5
     1  C    0.000000
     2  C    1.490750   0.000000
     3  C    2.319296   1.388899   0.000000
     4  C    2.276887   2.318328   1.486573   0.000000
     5  H    2.237031   1.087423   2.226406   3.333677   0.000000
     6  H    3.352665   2.219512   1.089142   2.245774   2.705840
     7  C    2.522628   3.729156   3.716524   2.503838   4.664706
     8  H    3.136832   4.279182   4.176887   2.889098   5.138450
     9  H    2.608816   4.026988   4.349143   3.366042   4.844542
    10  H    3.305873   4.334399   4.084523   2.766724   5.357515
    11  N    1.392955   2.319967   2.312897   1.385889   3.309916
    12  O    3.435645   3.497578   2.437178   1.215838   4.474260
    13  O    1.213486   2.444518   3.500994   3.431406   2.812987
    14  C    3.849833   2.847472   3.118526   4.217166   2.988587
    15  H    4.675888   3.548247   3.910445   5.157166   3.371088
    16  C    4.175817   3.164276   2.786088   3.751245   3.604924
    17  H    5.141957   3.991995   3.449656   4.488610   4.299033
    18  C    2.872789   2.289824   3.050195   3.897639   2.499250
    19  H    2.502154   2.427786   3.016678   3.442089   3.009954
    20  C    3.426023   3.067395   4.191383   5.036768   2.830206
    21  H    2.947572   2.841753   4.159782   4.893693   2.490243
    22  H    4.265288   3.608533   4.672701   5.733419   3.101694
    23  H    4.044269   3.966840   5.036992   5.704114   3.868815
    24  C    3.664836   2.995403   2.260106   2.719822   3.792610
    25  H    3.116667   2.890136   2.466769   2.517266   3.814292
    26  C    4.740853   4.155204   3.041977   3.105433   4.994040
    27  H    5.691445   5.059586   4.036606   4.191272   5.828246
    28  H    4.727560   4.470172   3.366064   2.911253   5.436668
    29  C    5.835525   5.168613   3.784288   3.711863   5.888982
    30  C    6.496713   6.110385   4.760137   4.276149   6.968002
    31  H    7.060362   6.627904   5.318948   4.949296   7.482624
    32  H    7.283797   6.919113   5.552230   5.015624   7.742356
    33  H    5.911454   5.763214   4.494594   3.711561   6.716088
    34  O    5.087409   4.268048   2.956735   3.237564   4.963486
    35  O    6.302750   5.525632   4.171394   4.252228   6.096507
    36  H    2.547041   2.885087   4.199662   4.648817   2.481726
    37  H    5.874420   6.356216   5.475151   4.209235   7.434751
    38  H    5.684393   4.582486   3.444971   4.141148   4.855281
    39  H    7.744391   7.160032   5.816115   5.581927   7.763609
    40  O    5.508541   4.273450   3.364219   4.326769   4.336652
    41  H    5.324289   4.205771   3.393308   4.227801   4.225627
    42  O    8.470426   7.988641   6.650421   6.274685   8.626915
    43  H    8.138779   7.800241   6.508319   5.968450   8.471297
    44  O    5.079844   5.492939   4.632684   3.439764   6.574418
    45  H    4.509343   4.898841   3.988122   2.690684   5.964519
    46  O    3.286441   3.240313   4.535320   5.204996   2.523330
    47  H    3.979625   3.997887   5.345352   6.024927   3.269329
                    6          7          8          9         10
     6  H    0.000000
     7  C    4.670236   0.000000
     8  H    5.007883   1.098894   0.000000
     9  H    5.381299   1.095440   1.790221   0.000000
    10  H    4.978993   1.097493   1.792224   1.796141   0.000000
    11  N    3.320750   1.447704   2.107004   2.065332   2.087167
    12  O    2.810874   2.889764   3.025859   3.931524   2.835313
    13  O    4.502462   2.909475   3.475854   2.522975   3.800049
    14  C    3.424076   5.708429   6.548827   5.908213   5.893412
    15  H    4.023926   6.714704   7.519245   6.877486   6.957834
    16  C    2.874834   5.578655   6.369725   6.007987   5.574377
    17  H    3.194165   6.522014   7.246920   7.026144   6.482899
    18  C    3.728212   4.853522   5.737472   4.853885   5.170355
    19  H    3.885764   4.027721   5.002772   4.001954   4.232551
    20  C    4.862463   5.612706   6.449707   5.363052   6.096230
    21  H    4.903148   5.234750   5.961199   4.903074   5.887735
    22  H    5.143638   6.580527   7.369059   6.391935   7.078778
    23  H    5.781352   5.935424   6.851789   5.537373   6.330223
    24  C    2.573698   4.512642   5.284923   5.081074   4.368422
    25  H    3.153368   3.726643   4.626438   4.178118   3.540592
    26  C    3.019851   5.003031   5.615555   5.776438   4.637675
    27  H    3.938353   5.957231   6.622423   6.675268   5.495172
    28  H    3.545708   4.427653   4.997461   5.263280   3.889226
    29  C    3.237906   5.871693   6.063799   6.865007   5.619199
    30  C    4.464639   5.964127   6.129979   6.986123   5.466690
    31  H    5.038088   6.583355   6.881156   7.543945   5.983793
    32  H    5.175557   6.623804   6.631013   7.685907   6.152758
    33  H    4.448039   5.059782   5.229080   6.079300   4.477171
    34  O    2.455438   5.529969   5.928867   6.407796   5.335899
    35  O    3.405136   6.503734   6.547502   7.512082   6.400429
    36  H    4.941723   4.682881   5.045670   4.357423   5.628676
    37  H    5.924291   4.065295   4.267443   4.897696   3.105578
    38  H    2.397648   6.608326   6.725206   7.479527   6.769948
    39  H    5.142511   7.497681   7.325253   8.572546   7.316647
    40  O    2.286705   6.774708   6.915670   7.554741   7.065392
    41  H    2.426769   6.549180   6.558567   7.325859   6.948767
    42  O    6.038995   7.996468   7.744434   9.086915   7.760468
    43  H    6.004737   7.486148   7.128852   8.577519   7.282459
    44  O    5.129955   3.532612   3.923063   4.372924   2.599731
    45  H    4.464941   3.023280   3.269328   4.003665   2.301445
    46  O    5.107142   5.540893   5.852884   5.292261   6.483414
    47  H    5.939225   6.192769   6.565312   5.810126   7.115104
                   11         12         13         14         15
    11  N    0.000000
    12  O    2.301355   0.000000
    13  O    2.301226   4.529795   0.000000
    14  C    4.446666   5.141450   4.526851   0.000000
    15  H    5.413546   6.084783   5.252083   1.093653   0.000000
    16  C    4.347388   4.408959   5.106887   1.404669   2.150512
    17  H    5.272311   4.985516   6.110200   2.155192   2.447661
    18  C    3.695611   4.984406   3.314098   1.384593   2.133463
    19  H    3.052254   4.470966   2.963856   2.130424   3.079062
    20  C    4.571110   6.204424   3.366198   2.527010   2.726603
    21  H    4.255840   6.103603   2.622231   3.311719   3.575929
    22  H    5.438832   6.887699   4.268308   2.648916   2.387529
    23  H    5.090995   6.836470   3.802434   3.172168   3.391570
    24  C    3.418312   3.211270   4.716409   2.434434   3.398942
    25  H    2.798135   3.132850   4.053941   2.704236   3.785306
    26  C    4.122202   3.001943   5.870591   3.829912   4.676671
    27  H    5.132742   4.063491   6.775182   4.156762   4.890751
    28  H    3.829920   2.525494   5.820859   4.575415   5.523295
    29  C    5.062966   3.046484   7.043963   5.623522   6.301037
    30  C    5.481903   3.335952   7.659679   6.546137   7.335569
    31  H    6.095256   4.133460   8.212207   6.612839   7.370870
    32  H    6.228772   3.968096   8.439116   7.541271   8.299224
    33  H    4.765934   2.682878   7.017231   6.426747   7.325099
    34  O    4.523573   2.989286   6.289425   4.330645   5.004856
    35  O    5.634562   3.629106   7.502123   6.213932   6.770375
    36  H    3.867460   5.801497   1.900166   4.838205   5.208532
    37  H    4.534287   3.373291   6.680672   7.256926   8.312390
    38  H    5.438507   4.049177   6.830851   5.259882   5.601090
    39  H    6.895959   4.682864   8.906872   8.076241   8.664457
    40  O    5.501187   4.484761   6.584638   4.971394   5.174919
    41  H    5.327618   4.391848   6.345879   5.424949   5.674522
    42  O    7.535585   5.279049   9.609901   8.974970   9.595755
    43  H    7.145200   4.921697   9.230697   9.060148   9.742125
    44  O    3.793565   2.748886   5.934067   6.295662   7.354508
    45  H    3.172496   1.864109   5.424662   6.066156   7.107576
    46  O    4.612031   6.352338   2.831789   5.005616   5.186423
    47  H    5.342286   7.197292   3.340925   5.377277   5.455857
                   16         17         18         19         20
    16  C    0.000000
    17  H    1.094166   0.000000
    18  C    2.446874   3.413175   0.000000
    19  H    2.713233   3.794231   1.094110   0.000000
    20  C    3.828091   4.674344   1.497683   2.204302   0.000000
    21  H    4.494503   5.374922   2.148888   2.627791   1.097582
    22  H    4.041725   4.685432   2.151341   3.099785   1.098328
    23  H    4.425806   5.300384   2.144653   2.500001   1.100390
    24  C    1.382514   2.136026   2.878109   2.632676   4.373048
    25  H    2.133491   3.084530   2.627663   1.988132   4.061962
    26  C    2.534785   2.741280   4.384159   4.069105   5.877491
    27  H    2.796508   2.727347   4.902454   4.637000   6.387310
    28  H    3.415344   3.788756   4.863786   4.323274   6.333372
    29  C    4.384032   4.256749   6.197614   6.012603   7.601728
    30  C    5.263699   5.238120   7.007796   6.617099   8.458955
    31  H    5.257436   5.128685   7.192318   6.801180   8.680609
    32  H    6.272498   6.193775   7.994524   7.619505   9.421331
    33  H    5.242712   5.439770   6.683594   6.148261   8.109879
    34  O    3.063736   2.958060   5.000002   4.896226   6.423772
    35  O    5.074904   4.845594   6.813100   6.756224   8.126975
    36  H    5.706841   6.566633   3.751448   3.946294   3.225081
    37  H    6.365286   6.922128   7.064285   6.195699   8.336152
    38  H    4.391334   4.101726   5.928562   6.155649   7.063685
    39  H    6.919512   6.700914   8.596444   8.441192   9.907039
    40  O    4.327920   4.051777   5.632088   6.009869   6.622105
    41  H    4.912269   4.799562   5.882972   6.222390   6.773490
    42  O    7.802656   7.606668   9.453070   9.236830  10.772408
    43  H    7.954762   7.886107   9.400399   9.121553  10.681635
    44  O    5.427807   6.028876   6.113227   5.258734   7.406718
    45  H    5.236907   5.846744   5.853681   5.074269   7.121699
    46  O    5.942208   6.693803   4.088152   4.503806   3.429222
    47  H    6.458924   7.218883   4.405780   4.863587   3.436183
                   21         22         23         24         25
    21  H    0.000000
    22  H    1.778356   0.000000
    23  H    1.773626   1.787727   0.000000
    24  C    4.839665   4.864654   4.909041   0.000000
    25  H    4.453005   4.768754   4.442810   1.093268   0.000000
    26  C    6.303712   6.341373   6.402676   1.506876   2.198320
    27  H    6.956722   6.775402   6.821738   2.155459   2.852769
    28  H    6.658285   6.940697   6.781123   2.142866   2.344577
    29  C    7.820318   7.964913   8.321639   3.582902   4.287706
    30  C    8.688339   8.947737   9.052906   4.235812   4.709180
    31  H    9.035371   9.142117   9.198458   4.322645   4.837298
    32  H    9.591126   9.895977  10.053902   5.275313   5.746170
    33  H    8.276699   8.716039   8.636958   4.027852   4.250890
    34  O    6.744236   6.749464   7.129304   2.384959   3.250495
    35  O    8.263278   8.395890   8.948744   4.456675   5.210879
    36  H    2.173206   3.733778   3.873996   5.710856   5.311772
    37  H    8.395869   9.189592   8.603894   4.990398   4.589034
    38  H    7.171919   7.145695   8.008198   4.212898   5.070535
    39  H    9.967308  10.228260  10.713608   6.172088   6.806394
    40  O    6.695558   6.596723   7.624159   4.384747   5.226420
    41  H    6.689242   6.797527   7.805266   4.844521   5.550596
    42  O   10.808611  11.133154  11.556023   6.984147   7.554848
    43  H   10.632549  11.108821  11.456200   7.037071   7.492242
    44  O    7.506644   8.245282   7.689087   4.052729   3.624501
    45  H    7.122237   7.934844   7.520097   3.861887   3.505978
    46  O    2.434087   3.651721   4.185423   6.121912   5.869115
    47  H    2.437671   3.566865   4.023739   6.739133   6.438285
                   26         27         28         29         30
    26  C    0.000000
    27  H    1.101503   0.000000
    28  H    1.096149   1.787569   0.000000
    29  C    2.414910   2.942331   2.574929   0.000000
    30  C    2.841152   3.168519   2.482174   1.499104   0.000000
    31  H    2.821074   2.747951   2.564055   2.136961   1.099278
    32  H    3.911890   4.221226   3.546921   2.109980   1.094101
    33  H    2.789782   3.303739   2.048661   2.148422   1.098161
    34  O    1.430185   2.061920   2.087455   1.326782   2.442885
    35  O    3.495216   4.027738   3.738609   1.216456   2.393658
    36  H    6.967052   7.846339   7.146894   7.953373   8.829574
    37  H    4.282893   4.797274   3.188608   4.682293   3.727364
    38  H    3.853795   4.467203   4.446952   2.564108   4.039998
    39  H    5.049482   5.495525   5.003987   2.647611   2.869691
    40  O    4.343756   4.973594   5.022305   3.450353   4.937610
    41  H    4.869986   5.629113   5.404752   3.853514   5.270322
    42  O    5.800224   6.210111   5.629573   3.456544   3.326049
    43  H    5.935997   6.476314   5.636917   3.692328   3.487545
    44  O    3.465043   4.048340   2.385135   4.205220   3.483883
    45  H    3.350084   4.144082   2.360367   3.769896   3.276482
    46  O    7.383827   8.238210   7.675877   8.255951   9.254836
    47  H    8.077094   8.875785   8.388125   9.097801  10.084450
                   31         32         33         34         35
    31  H    0.000000
    32  H    1.801683   0.000000
    33  H    1.772884   1.802015   0.000000
    34  O    2.722348   3.318013   2.788282   0.000000
    35  O    3.110334   2.503501   3.102887   2.170890   0.000000
    36  H    9.413717   9.569826   8.349067   7.140351   8.197300
    37  H    4.035395   4.210436   2.660233   4.925814   5.623926
    38  H    4.632377   4.375722   4.554671   2.505872   1.913085
    39  H    3.637469   2.178849   3.597506   3.908275   1.898989
    40  O    5.504337   5.326856   5.370598   3.136913   2.881554
    41  H    5.980931   5.568898   5.593191   3.699815   3.184765
    42  O    4.045550   2.390327   3.975064   4.762395   2.850306
    43  H    4.360215   2.584310   3.884561   4.978981   3.161568
    44  O    3.779136   4.176732   2.427161   4.229454   5.214653
    45  H    3.829995   3.915518   2.224119   3.857575   4.650012
    46  O    9.843790   9.972099   8.869604   7.425939   8.392241
    47  H   10.625268  10.838646   9.685365   8.205279   9.274084
                   36         37         38         39         40
    36  H    0.000000
    37  H    8.391642   0.000000
    38  H    7.118081   6.806691   0.000000
    39  H    9.680908   5.998370   3.545062   0.000000
    40  O    6.624841   7.468160   0.973020   4.458771   0.000000
    41  H    6.307044   7.543120   1.517240   4.536898   0.964747
    42  O   10.451526   6.183171   4.506876   0.972220   5.406625
    43  H   10.119812   5.807847   4.745054   1.514192   5.601987
    44  O    7.619604   0.964534   6.205036   5.887276   6.804273
    45  H    7.028160   1.532377   5.551252   5.349514   6.123078
    46  O    0.971680   9.135359   7.126631   9.907147   6.520359
    47  H    1.524924   9.852225   7.981349  10.827694   7.349972
                   41         42         43         44         45
    41  H    0.000000
    42  O    5.428527   0.000000
    43  H    5.482176   0.964693   0.000000
    44  O    6.922589   6.220709   5.911468   0.000000
    45  H    6.146650   5.728598   5.348431   0.971150   0.000000
    46  O    6.185306  10.710292  10.420774   8.346488   7.720849
    47  H    7.061431  11.640579  11.362861   9.049142   8.478836
                   46         47
    46  O    0.000000
    47  H    0.964266   0.000000
 Stoichiometry    C13H25NO8
 Framework group  C1[X(C13H25NO8)]
 Deg. of freedom   135
 Full point group                 C1      NOp   1
 Largest Abelian subgroup         C1      NOp   1
 Largest concise Abelian subgroup C1      NOp   1
                         Standard orientation:                         
 ---------------------------------------------------------------------
 Center     Atomic      Atomic             Coordinates (Angstroms)
 Number     Number       Type             X           Y           Z
 ---------------------------------------------------------------------
      1          6           0        2.365497    1.053408    0.676105
      2          6           0        1.946506   -0.377209    0.686917
      3          6           0        0.565883   -0.403088    0.537752
      4          6           0        0.095647    1.006735    0.503435
      5          1           0        2.575810   -1.116836    1.176220
      6          1           0       -0.107438   -1.204596    0.838506
      7          6           0        1.182467    3.256950    0.346719
      8          1           0        0.794772    3.702094    1.273600
      9          1           0        2.205665    3.608772    0.175618
     10          1           0        0.540006    3.548944   -0.493801
     11          7           0        1.221269    1.813011    0.443580
     12          8           0       -1.046066    1.424691    0.511646
     13          8           0        3.471004    1.527967    0.834836
     14          6           0        2.115312   -2.013738   -1.637169
     15          1           0        2.523072   -3.027865   -1.600364
     16          6           0        0.732815   -1.859046   -1.831764
     17          1           0        0.115225   -2.755100   -1.945205
     18          6           0        2.942980   -0.959155   -1.290878
     19          1           0        2.647919    0.048664   -1.597989
     20          6           0        4.398110   -1.145069   -0.989073
     21          1           0        4.675869   -0.619667   -0.066311
     22          1           0        4.641312   -2.208786   -0.863842
     23          1           0        5.013221   -0.734281   -1.803782
     24          6           0        0.107152   -0.637837   -1.662825
     25          1           0        0.686409    0.273940   -1.831226
     26          6           0       -1.383777   -0.464797   -1.796481
     27          1           0       -1.742356   -0.920176   -2.733156
     28          1           0       -1.634898    0.602183   -1.802415
     29          6           0       -3.143682   -0.681000   -0.157036
     30          6           0       -3.916775    0.402886   -0.846116
     31          1           0       -4.147405    0.095976   -1.876178
     32          1           0       -4.838865    0.569184   -0.281180
     33          1           0       -3.325413    1.326652   -0.900020
     34          8           0       -2.019159   -1.128635   -0.700562
     35          8           0       -3.512390   -1.212945    0.872942
     36          1           0        4.478117    0.308924    1.888539
     37          1           0       -2.356193    3.701815   -1.604332
     38          1           0       -2.107513   -2.361136    1.479468
     39          1           0       -5.158255   -0.557109    1.556437
     40          8           0       -1.344551   -2.850506    1.833267
     41          1           0       -1.164066   -2.400035    2.667076
     42          8           0       -5.966227   -0.046585    1.734644
     43          1           0       -5.628353    0.743322    2.173416
     44          8           0       -1.716894    2.981191   -1.652533
     45          1           0       -1.587838    2.704633   -0.730583
     46          8           0        4.715724   -0.504078    2.364703
     47          1           0        5.651984   -0.623638    2.167391
 ---------------------------------------------------------------------
 Rotational constants (GHZ):      0.3696882      0.1594333      0.1462590
 Standard basis: def2SVP (5D, 7F)
 There are   455 symmetry adapted cartesian basis functions of A   symmetry.
 There are   433 symmetry adapted basis functions of A   symmetry.
   433 basis functions,   725 primitive gaussians,   455 cartesian basis functions
    87 alpha electrons       87 beta electrons
       nuclear repulsion energy      2062.6633319242 Hartrees.
 NAtoms=   47 NActive=   47 NUniq=   47 SFac= 1.00D+00 NAtFMM=   60 NAOKFM=F Big=F
 Integral buffers will be    131072 words long.
 Raffenetti 2 integral format.
 Two-electron integral symmetry is turned on.
 Nuclear repulsion after empirical dispersion term =     2062.6592304394 Hartrees.
 Force inversion solution in PCM.
 ------------------------------------------------------------------------------
 Polarizable Continuum Model (PCM)
 =================================
 Model                : C-PCM.
 Atomic radii         : UFF (Universal Force Field).
 Polarization charges : Total charges.
 Charge compensation  : None.
 Solution method      : Matrix inversion.
 Cavity type          : Scaled VdW (van der Waals Surface) (Alpha=1.100).
 Cavity algorithm     : GePol (No added spheres)
                        Default sphere list used, NSphG=   47.
                        Lebedev-Laikov grids with approx.  5.0 points / Ang**2.
                        Smoothing algorithm: Karplus/York (Gamma=1.0000).
                        Polarization charges: spherical gaussians, with
                                              point-specific exponents (IZeta= 3).
                        Self-potential: point-specific (ISelfS= 7).
                        Self-field    : sphere-specific E.n sum rule (ISelfD= 2).
 1st derivatives      : Analytical E(r).r(x)/FMM algorithm (CHGder, D1EAlg=3).
                        Cavity 1st derivative terms included.
 2nd derivatives      : Analytical E(r).r(xy)/FMM algorithm (CHGder, D2EAlg=3).
                        Cavity 2nd derivative terms included.
 Solvent              : Water, Eps=  78.355300 Eps(inf)=   1.777849
 ------------------------------------------------------------------------------
 One-electron integrals computed using PRISM.
   1 Symmetry operations used in ECPInt.
 ECPInt:  NShTT=   21528 NPrTT=   76216 LenC2=   19194 LenP2D=   46882.
 LDataN:  DoStor=T MaxTD1= 4 Len=   56
 NBasis=   433 RedAO= T EigKep=  3.39D-04  NBF=   433
 NBsUse=   433 1.00D-06 EigRej= -1.00D+00 NBFU=   433
 ExpMin= 1.22D-01 ExpMax= 2.27D+03 ExpMxC= 3.41D+02 IAcc=1 IRadAn=         1 AccDes= 0.00D+00
 Harris functional with IExCor= 1009 and IRadAn=       1 diagonalized for initial guess.
 HarFok:  IExCor= 1009 AccDes= 0.00D+00 IRadAn=         1 IDoV= 1 UseB2=F ITyADJ=14
 ICtDFT=  3500011 ScaDFX=  1.000000  1.000000  1.000000  1.000000
 FoFCou: FMM=F IPFlag=           0 FMFlag=      100000 FMFlg1=           0
         NFxFlg=           0 DoJE=T BraDBF=F KetDBF=T FulRan=T
         wScrn=  0.000000 ICntrl=     500 IOpCl=  0 I1Cent=   200000004 NGrid=           0
         NMat0=    1 NMatS0=      1 NMatT0=    0 NMatD0=    1 NMtDS0=    0 NMtDT0=    0
 Petite list used in FoFCou.
 Requested convergence on RMS density matrix=1.00D-08 within 128 cycles.
 Requested convergence on MAX density matrix=1.00D-06.
 Requested convergence on             energy=1.00D-06.
 No special actions if energy rises.
 Inv3:  Mode=2 IEnd=    21268242.
 Iteration    1 A*A^-1 deviation from unit magnitude is 6.44D-15 for   3256.
 Iteration    1 A*A^-1 deviation from orthogonality  is 2.55D-15 for   3254   1062.
 Iteration    1 A^-1*A deviation from unit magnitude is 6.44D-15 for   3256.
 Iteration    1 A^-1*A deviation from orthogonality  is 2.62D-15 for   3250   2460.
 Error on total polarization charges =  0.00840
 SCF Done:  E(RM062X) =  -1165.60741009     A.U. after   14 cycles
            NFock= 14  Conv=0.96D-08     -V/T= 2.0092
 DoSCS=F DFT=T ScalE2(SS,OS)=  1.000000  1.000000
 Range of M.O.s used for correlation:     1   433
 NBasis=   433 NAE=    87 NBE=    87 NFC=     0 NFV=     0
 NROrb=    433 NOA=    87 NOB=    87 NVA=   346 NVB=   346
 PrsmSu:  requested number of processors reduced to:   1 ShMem   1 Linda.
   1 Symmetry operations used in ECPInt.
 ECPInt:  NShTT=   21528 NPrTT=   76216 LenC2=   19194 LenP2D=   46882.
 LDataN:  DoStor=T MaxTD1= 5 Len=  102
 Number of processors reduced to   1 by ecpmxn.
 Symmetrizing basis deriv contribution to polar:
 IMax=3 JMax=2 DiffMx= 0.00D+00
 G2DrvN: will do    12 centers at a time, making    4 passes.
 Calling FoFCou, ICntrl=  3107 FMM=F I1Cent=   0 AccDes= 0.00D+00.
 Calling FoFCou, ICntrl=  3107 FMM=F I1Cent=   0 AccDes= 0.00D+00.
 Calling FoFCou, ICntrl=  3107 FMM=F I1Cent=   0 AccDes= 0.00D+00.
 Calling FoFCou, ICntrl=  3107 FMM=F I1Cent=   0 AccDes= 0.00D+00.
 NEqPCM:  Using equilibrium solvation (IEInf=0, Eps=  78.3553, EpsInf=   1.7778)
 G2PCM: DoFxE=T DoFxN=T DoGrad=T DoDP/DQ/DG/TGxP=FFFF NFrqRd=   0 IEInf=0 SqF1=F DoCFld=F IF1Alg=4.
 End of G2Drv F.D. properties file   721 does not exist.
 End of G2Drv F.D. properties file   722 does not exist.
 End of G2Drv F.D. properties file   788 does not exist.
          IDoAtm=11111111111111111111111111111111111111111111111
 NEqPCM:  Using equilibrium solvation (IEInf=0, Eps=  78.3553, EpsInf=   1.7778)
          Differentiating once with respect to electric field.
                with respect to dipole field.
          Differentiating once with respect to nuclear coordinates.
          There are   144 degrees of freedom in the 1st order CPHF.  IDoFFX=6 NUNeed=     3.
    144 vectors produced by pass  0 Test12= 3.01D-14 1.00D-09 XBig12= 1.48D+02 5.73D+00.
 AX will form    16 AO Fock derivatives at one time.
    144 vectors produced by pass  1 Test12= 3.01D-14 1.00D-09 XBig12= 2.12D+01 6.21D-01.
    142 vectors produced by pass  2 Test12= 3.01D-14 1.00D-09 XBig12= 3.13D-01 8.97D-02.
    141 vectors produced by pass  3 Test12= 3.01D-14 1.00D-09 XBig12= 2.16D-03 4.94D-03.
    141 vectors produced by pass  4 Test12= 3.01D-14 1.00D-09 XBig12= 9.65D-06 2.83D-04.
    140 vectors produced by pass  5 Test12= 3.01D-14 1.00D-09 XBig12= 3.36D-08 1.30D-05.
     74 vectors produced by pass  6 Test12= 3.01D-14 1.00D-09 XBig12= 9.45D-11 7.14D-07.
      7 vectors produced by pass  7 Test12= 3.01D-14 1.00D-09 XBig12= 2.32D-13 3.15D-08.
      3 vectors produced by pass  8 Test12= 3.01D-14 1.00D-09 XBig12= 6.86D-16 1.70D-09.
      1 vectors produced by pass  9 Test12= 3.01D-14 1.00D-09 XBig12= 5.05D-16 1.70D-09.
 InvSVY:  IOpt=1 It=  1 EMax= 6.60D-15
 Solved reduced A of dimension   937 with   144 vectors.
 Isotropic polarizability for W=    0.000000      249.33 Bohr**3.
 End of Minotr F.D. properties file   721 does not exist.
 End of Minotr F.D. properties file   722 does not exist.
 End of Minotr F.D. properties file   788 does not exist.

 **********************************************************************

            Population analysis using the SCF density.

 **********************************************************************

 Orbital symmetries:
       Occupied  (A) (A) (A) (A) (A) (A) (A) (A) (A) (A) (A) (A)
                 (A) (A) (A) (A) (A) (A) (A) (A) (A) (A) (A) (A)
                 (A) (A) (A) (A) (A) (A) (A) (A) (A) (A) (A) (A)
                 (A) (A) (A) (A) (A) (A) (A) (A) (A) (A) (A) (A)
                 (A) (A) (A) (A) (A) (A) (A) (A) (A) (A) (A) (A)
                 (A) (A) (A) (A) (A) (A) (A) (A) (A) (A) (A) (A)
                 (A) (A) (A) (A) (A) (A) (A) (A) (A) (A) (A) (A)
                 (A) (A) (A)
       Virtual   (A) (A) (A) (A) (A) (A) (A) (A) (A) (A) (A) (A)
                 (A) (A) (A) (A) (A) (A) (A) (A) (A) (A) (A) (A)
                 (A) (A) (A) (A) (A) (A) (A) (A) (A) (A) (A) (A)
                 (A) (A) (A) (A) (A) (A) (A) (A) (A) (A) (A) (A)
                 (A) (A) (A) (A) (A) (A) (A) (A) (A) (A) (A) (A)
                 (A) (A) (A) (A) (A) (A) (A) (A) (A) (A) (A) (A)
                 (A) (A) (A) (A) (A) (A) (A) (A) (A) (A) (A) (A)
                 (A) (A) (A) (A) (A) (A) (A) (A) (A) (A) (A) (A)
                 (A) (A) (A) (A) (A) (A) (A) (A) (A) (A) (A) (A)
                 (A) (A) (A) (A) (A) (A) (A) (A) (A) (A) (A) (A)
                 (A) (A) (A) (A) (A) (A) (A) (A) (A) (A) (A) (A)
                 (A) (A) (A) (A) (A) (A) (A) (A) (A) (A) (A) (A)
                 (A) (A) (A) (A) (A) (A) (A) (A) (A) (A) (A) (A)
                 (A) (A) (A) (A) (A) (A) (A) (A) (A) (A) (A) (A)
                 (A) (A) (A) (A) (A) (A) (A) (A) (A) (A) (A) (A)
                 (A) (A) (A) (A) (A) (A) (A) (A) (A) (A) (A) (A)
                 (A) (A) (A) (A) (A) (A) (A) (A) (A) (A) (A) (A)
                 (A) (A) (A) (A) (A) (A) (A) (A) (A) (A) (A) (A)
                 (A) (A) (A) (A) (A) (A) (A) (A) (A) (A) (A) (A)
                 (A) (A) (A) (A) (A) (A) (A) (A) (A) (A) (A) (A)
                 (A) (A) (A) (A) (A) (A) (A) (A) (A) (A) (A) (A)
                 (A) (A) (A) (A) (A) (A) (A) (A) (A) (A) (A) (A)
                 (A) (A) (A) (A) (A) (A) (A) (A) (A) (A) (A) (A)
                 (A) (A) (A) (A) (A) (A) (A) (A) (A) (A) (A) (A)
                 (A) (A) (A) (A) (A) (A) (A) (A) (A) (A) (A) (A)
                 (A) (A) (A) (A) (A) (A) (A) (A) (A) (A) (A) (A)
                 (A) (A) (A) (A) (A) (A) (A) (A) (A) (A) (A) (A)
                 (A) (A) (A) (A) (A) (A) (A) (A) (A) (A) (A) (A)
                 (A) (A) (A) (A) (A) (A) (A) (A) (A) (A)
 The electronic state is 1-A.
 Alpha  occ. eigenvalues --  -19.69058 -19.64689 -19.64487 -19.64290 -19.62405
 Alpha  occ. eigenvalues --  -19.61360 -19.60958 -19.60834 -14.81486 -10.70935
 Alpha  occ. eigenvalues --  -10.69043 -10.68908 -10.62573 -10.59557 -10.59063
 Alpha  occ. eigenvalues --  -10.59028 -10.58321 -10.58103 -10.57063 -10.56467
 Alpha  occ. eigenvalues --  -10.56364 -10.55225  -1.23954  -1.19765  -1.17779
 Alpha  occ. eigenvalues --   -1.14596  -1.10137  -1.09254  -1.08864  -1.08755
 Alpha  occ. eigenvalues --   -1.07119  -0.94205  -0.90985  -0.88400  -0.84421
 Alpha  occ. eigenvalues --   -0.82494  -0.79474  -0.76913  -0.74826  -0.69982
 Alpha  occ. eigenvalues --   -0.69821  -0.66164  -0.63145  -0.61778  -0.61060
 Alpha  occ. eigenvalues --   -0.60274  -0.59588  -0.59173  -0.58791  -0.57861
 Alpha  occ. eigenvalues --   -0.57753  -0.57012  -0.56921  -0.54997  -0.54801
 Alpha  occ. eigenvalues --   -0.52984  -0.52439  -0.51224  -0.50633  -0.50442
 Alpha  occ. eigenvalues --   -0.49593  -0.48501  -0.48375  -0.47699  -0.47211
 Alpha  occ. eigenvalues --   -0.46990  -0.46395  -0.46054  -0.45652  -0.45437
 Alpha  occ. eigenvalues --   -0.45052  -0.44806  -0.43622  -0.42503  -0.41862
 Alpha  occ. eigenvalues --   -0.41670  -0.38716  -0.38482  -0.38115  -0.37840
 Alpha  occ. eigenvalues --   -0.37658  -0.37424  -0.37021  -0.35356  -0.34940
 Alpha  occ. eigenvalues --   -0.30389  -0.29192
 Alpha virt. eigenvalues --   -0.04801  -0.01706   0.04059   0.07182   0.08188
 Alpha virt. eigenvalues --    0.08859   0.10116   0.10340   0.11351   0.11802
 Alpha virt. eigenvalues --    0.12706   0.12778   0.13512   0.14182   0.14530
 Alpha virt. eigenvalues --    0.16403   0.16829   0.17260   0.17552   0.18430
 Alpha virt. eigenvalues --    0.19181   0.19935   0.20138   0.20499   0.21101
 Alpha virt. eigenvalues --    0.21300   0.22335   0.22578   0.23402   0.24483
 Alpha virt. eigenvalues --    0.24919   0.25014   0.25993   0.26759   0.27292
 Alpha virt. eigenvalues --    0.27920   0.29701   0.29867   0.30742   0.33679
 Alpha virt. eigenvalues --    0.34050   0.35771   0.36818   0.38319   0.39564
 Alpha virt. eigenvalues --    0.40420   0.41742   0.43405   0.44188   0.45835
 Alpha virt. eigenvalues --    0.46509   0.47110   0.47956   0.48509   0.49080
 Alpha virt. eigenvalues --    0.50071   0.50609   0.50948   0.51830   0.52510
 Alpha virt. eigenvalues --    0.54053   0.55817   0.56706   0.57523   0.58842
 Alpha virt. eigenvalues --    0.60517   0.60906   0.61611   0.62052   0.63165
 Alpha virt. eigenvalues --    0.63990   0.64100   0.64714   0.65388   0.66109
 Alpha virt. eigenvalues --    0.66381   0.66775   0.67636   0.68176   0.68536
 Alpha virt. eigenvalues --    0.68960   0.69230   0.69874   0.70051   0.70621
 Alpha virt. eigenvalues --    0.70695   0.71028   0.71483   0.71738   0.72372
 Alpha virt. eigenvalues --    0.72768   0.73061   0.73513   0.73826   0.74024
 Alpha virt. eigenvalues --    0.74655   0.74909   0.76324   0.76629   0.77231
 Alpha virt. eigenvalues --    0.77857   0.78606   0.78700   0.80258   0.80421
 Alpha virt. eigenvalues --    0.81067   0.81914   0.83142   0.83980   0.85134
 Alpha virt. eigenvalues --    0.87725   0.88559   0.90055   0.90955   0.91867
 Alpha virt. eigenvalues --    0.93886   0.95949   0.97022   0.98007   0.98982
 Alpha virt. eigenvalues --    0.99890   1.00919   1.01701   1.02951   1.04389
 Alpha virt. eigenvalues --    1.05281   1.06226   1.07754   1.08246   1.09066
 Alpha virt. eigenvalues --    1.09646   1.10052   1.10217   1.11905   1.13342
 Alpha virt. eigenvalues --    1.14033   1.14568   1.16363   1.17600   1.19216
 Alpha virt. eigenvalues --    1.19430   1.20657   1.22318   1.22716   1.23792
 Alpha virt. eigenvalues --    1.25269   1.26793   1.27265   1.28185   1.29562
 Alpha virt. eigenvalues --    1.30754   1.30887   1.32980   1.34038   1.34353
 Alpha virt. eigenvalues --    1.36531   1.37011   1.38172   1.39365   1.39737
 Alpha virt. eigenvalues --    1.40288   1.42745   1.43130   1.43964   1.44339
 Alpha virt. eigenvalues --    1.45321   1.46243   1.46995   1.48047   1.49067
 Alpha virt. eigenvalues --    1.49789   1.50484   1.51312   1.52596   1.53183
 Alpha virt. eigenvalues --    1.54174   1.56755   1.57224   1.57561   1.58586
 Alpha virt. eigenvalues --    1.59615   1.59932   1.60550   1.61527   1.62345
 Alpha virt. eigenvalues --    1.63283   1.63333   1.63749   1.64522   1.65664
 Alpha virt. eigenvalues --    1.66252   1.66996   1.69111   1.71689   1.73490
 Alpha virt. eigenvalues --    1.74286   1.74654   1.74923   1.76099   1.78021
 Alpha virt. eigenvalues --    1.79193   1.80146   1.80958   1.81218   1.82960
 Alpha virt. eigenvalues --    1.83241   1.83740   1.83844   1.84120   1.85055
 Alpha virt. eigenvalues --    1.85329   1.86094   1.86468   1.86532   1.86985
 Alpha virt. eigenvalues --    1.87644   1.88442   1.89325   1.89692   1.90355
 Alpha virt. eigenvalues --    1.91161   1.93393   1.94531   1.94751   1.96328
 Alpha virt. eigenvalues --    1.96942   1.97854   1.98986   1.99930   2.01817
 Alpha virt. eigenvalues --    2.02358   2.03359   2.03861   2.04215   2.05379
 Alpha virt. eigenvalues --    2.07047   2.07927   2.10619   2.10822   2.11632
 Alpha virt. eigenvalues --    2.11956   2.13427   2.15514   2.16132   2.17822
 Alpha virt. eigenvalues --    2.21744   2.22117   2.23762   2.26558   2.28767
 Alpha virt. eigenvalues --    2.28887   2.29557   2.30336   2.30637   2.31214
 Alpha virt. eigenvalues --    2.32054   2.32348   2.32900   2.33984   2.35378
 Alpha virt. eigenvalues --    2.37899   2.39556   2.40127   2.40855   2.41688
 Alpha virt. eigenvalues --    2.42203   2.43791   2.46411   2.46790   2.47603
 Alpha virt. eigenvalues --    2.48407   2.49008   2.50940   2.52886   2.53107
 Alpha virt. eigenvalues --    2.56111   2.57068   2.57442   2.60887   2.64398
 Alpha virt. eigenvalues --    2.65489   2.66704   2.67344   2.70137   2.70716
 Alpha virt. eigenvalues --    2.73428   2.74185   2.76177   2.77330   2.78410
 Alpha virt. eigenvalues --    2.79443   2.79890   2.80804   2.83280   2.83543
 Alpha virt. eigenvalues --    2.83946   2.85956   2.87117   2.88342   2.89376
 Alpha virt. eigenvalues --    2.90987   2.92375   2.94222   2.95368   2.96270
 Alpha virt. eigenvalues --    2.97134   3.00254   3.02160   3.02727   3.03033
 Alpha virt. eigenvalues --    3.03571   3.04019   3.06390   3.06622   3.07033
 Alpha virt. eigenvalues --    3.07229   3.08524   3.09656   3.12112   3.17557
 Alpha virt. eigenvalues --    3.19126   3.20634   3.21201   3.23818   3.24400
 Alpha virt. eigenvalues --    3.25273   3.25889   3.26572   3.26837   3.33642
 Alpha virt. eigenvalues --    3.37786   3.44131   3.47982   3.55764   3.57273
 Alpha virt. eigenvalues --    3.57865   3.58421   3.60180   3.67379   3.70077
 Alpha virt. eigenvalues --    3.71301   3.73588   3.87744   3.87884   3.88197
 Alpha virt. eigenvalues --    3.88893
          Condensed to atoms (all electrons):
               1          2          3          4          5          6
     1  C    4.689610   0.144682   0.076507  -0.119693  -0.039933   0.010753
     2  C    0.144682   5.784063  -0.013808   0.107973   0.406709  -0.058520
     3  C    0.076507  -0.013808   5.838515   0.114041  -0.033167   0.330320
     4  C   -0.119693   0.107973   0.114041   4.739325   0.008173  -0.043082
     5  H   -0.039933   0.406709  -0.033167   0.008173   0.582718  -0.006773
     6  H    0.010753  -0.058520   0.330320  -0.043082  -0.006773   0.680062
     7  C   -0.022627   0.008856   0.010033  -0.019101  -0.000100  -0.000139
     8  H    0.000589  -0.000933   0.001080  -0.004915   0.000018   0.000029
     9  H   -0.006190   0.003849  -0.001532   0.006692  -0.000015   0.000005
    10  H    0.004046  -0.000744   0.001093  -0.002845  -0.000003  -0.000008
    11  N    0.312015  -0.149180  -0.112968   0.270554   0.004595   0.004272
    12  O    0.000447   0.006304  -0.082839   0.661229  -0.000048  -0.000222
    13  O    0.665990  -0.090745   0.007154  -0.000204  -0.001664  -0.000035
    14  C   -0.004548   0.008152  -0.053318   0.004399  -0.003820  -0.005491
    15  H   -0.000103   0.001370  -0.001058   0.000074   0.000739  -0.000111
    16  C    0.004780  -0.059233  -0.014262  -0.005459  -0.002157   0.003693
    17  H    0.000042  -0.000597  -0.000459  -0.000075  -0.000020   0.002537
    18  C   -0.011390   0.140782  -0.048766   0.002852  -0.002765   0.002051
    19  H   -0.004579   0.003894  -0.027735   0.006312   0.002894  -0.000435
    20  C    0.001260  -0.028480   0.005176  -0.000307  -0.004917   0.000001
    21  H   -0.000244  -0.011349   0.003179  -0.000155   0.002337  -0.000023
    22  H    0.000173  -0.001014  -0.000325   0.000018   0.001603  -0.000009
    23  H   -0.000324   0.002726  -0.000208   0.000007   0.000074   0.000001
    24  C    0.000935  -0.050233   0.157295  -0.012140   0.001295  -0.005076
    25  H    0.007212  -0.025743   0.000387  -0.005478  -0.000100   0.003853
    26  C   -0.000520   0.006780  -0.043738   0.008840  -0.000065  -0.010195
    27  H    0.000005  -0.000118   0.001753   0.000181   0.000000   0.000102
    28  H    0.000005   0.000258  -0.002254   0.001832   0.000000   0.000008
    29  C    0.000000   0.000083  -0.004014   0.001905  -0.000001   0.003233
    30  C    0.000000  -0.000001   0.000125  -0.000929   0.000000   0.000532
    31  H    0.000000   0.000000  -0.000017   0.000026   0.000000   0.000006
    32  H    0.000000   0.000000   0.000002   0.000029   0.000000  -0.000003
    33  H   -0.000004   0.000010  -0.000338  -0.000570   0.000000  -0.000028
    34  O    0.000001   0.000764   0.005606  -0.001791  -0.000004   0.001888
    35  O    0.000000  -0.000006  -0.000209   0.000067   0.000000  -0.000334
    36  H   -0.004430  -0.001666   0.000058  -0.000083  -0.007068   0.000016
    37  H    0.000000   0.000000  -0.000010  -0.000206   0.000000   0.000000
    38  H   -0.000009   0.000249   0.003985  -0.000080   0.000003  -0.009844
    39  H    0.000000   0.000000   0.000002  -0.000001   0.000000  -0.000007
    40  O    0.000008  -0.000678  -0.030544  -0.000388  -0.000001   0.091792
    41  H   -0.000003   0.000213   0.002804  -0.000023   0.000014  -0.004536
    42  O    0.000000   0.000000   0.000000   0.000000   0.000000   0.000000
    43  H    0.000000   0.000000   0.000000   0.000000   0.000000   0.000000
    44  O   -0.000001   0.000001  -0.000028   0.001854   0.000000   0.000001
    45  H    0.000012  -0.000117   0.001467  -0.005080   0.000001  -0.000053
    46  O   -0.003057  -0.004451   0.000438  -0.000010   0.029996  -0.000012
    47  H   -0.000106   0.000275  -0.000023   0.000001  -0.001632   0.000001
               7          8          9         10         11         12
     1  C   -0.022627   0.000589  -0.006190   0.004046   0.312015   0.000447
     2  C    0.008856  -0.000933   0.003849  -0.000744  -0.149180   0.006304
     3  C    0.010033   0.001080  -0.001532   0.001093  -0.112968  -0.082839
     4  C   -0.019101  -0.004915   0.006692  -0.002845   0.270554   0.661229
     5  H   -0.000100   0.000018  -0.000015  -0.000003   0.004595  -0.000048
     6  H   -0.000139   0.000029   0.000005  -0.000008   0.004272  -0.000222
     7  C    4.531217   0.411675   0.395573   0.376625   0.240253   0.012498
     8  H    0.411675   0.581008  -0.020189  -0.023245  -0.026594   0.000642
     9  H    0.395573  -0.020189   0.569234  -0.012608  -0.024769   0.000255
    10  H    0.376625  -0.023245  -0.012608   0.593037  -0.022639  -0.003470
    11  N    0.240253  -0.026594  -0.024769  -0.022639   7.061919  -0.099481
    12  O    0.012498   0.000642   0.000255  -0.003470  -0.099481   7.771805
    13  O   -0.002021   0.000108   0.012952   0.000208  -0.087948  -0.000013
    14  C    0.000020   0.000000   0.000004  -0.000006  -0.000127   0.000026
    15  H    0.000000   0.000000   0.000000   0.000000  -0.000006   0.000000
    16  C    0.000006   0.000001  -0.000002   0.000011   0.000229   0.000022
    17  H    0.000000   0.000000   0.000000   0.000000  -0.000011  -0.000007
    18  C   -0.000049  -0.000006  -0.000069   0.000049  -0.002656   0.000003
    19  H   -0.000029   0.000014   0.000010  -0.000124   0.000671   0.000035
    20  C   -0.000002   0.000001  -0.000008  -0.000002   0.000189   0.000000
    21  H   -0.000009  -0.000002   0.000010   0.000002   0.000184   0.000000
    22  H    0.000000   0.000000   0.000000   0.000000  -0.000002   0.000000
    23  H    0.000000   0.000000   0.000000   0.000000  -0.000001   0.000000
    24  C    0.000046  -0.000030   0.000054   0.000065  -0.008613  -0.009717
    25  H   -0.001265   0.000136  -0.000110  -0.000226   0.010781  -0.002429
    26  C   -0.000009  -0.000002  -0.000002  -0.000089  -0.000007   0.009561
    27  H    0.000000   0.000000   0.000000   0.000003  -0.000023   0.000235
    28  H   -0.000048  -0.000013  -0.000001   0.000377  -0.000261   0.001726
    29  C   -0.000012  -0.000001   0.000000  -0.000001   0.000161   0.016134
    30  C   -0.000019   0.000001   0.000000   0.000100  -0.000035  -0.006715
    31  H    0.000000   0.000000   0.000000   0.000000   0.000001   0.000131
    32  H    0.000000   0.000000   0.000000  -0.000001   0.000000  -0.000002
    33  H    0.000137  -0.000003  -0.000001  -0.000596   0.000125   0.005692
    34  O    0.000002   0.000000   0.000000  -0.000001  -0.000022  -0.003894
    35  O    0.000000   0.000000   0.000000   0.000000   0.000000  -0.000668
    36  H   -0.000005   0.000019  -0.000065  -0.000001   0.000647   0.000001
    37  H    0.000254  -0.000011  -0.000003  -0.000869   0.000005   0.000251
    38  H    0.000000   0.000000   0.000000   0.000000  -0.000002  -0.000070
    39  H    0.000000   0.000000   0.000000   0.000000   0.000000  -0.000008
    40  O    0.000000   0.000000   0.000000   0.000000   0.000000  -0.000004
    41  H    0.000000   0.000000   0.000000   0.000000   0.000002   0.000012
    42  O    0.000000   0.000000   0.000000   0.000000   0.000000   0.000000
    43  H    0.000000   0.000000   0.000000   0.000000   0.000000   0.000003
    44  O   -0.009131   0.000025   0.000081   0.027785   0.000152  -0.015042
    45  H    0.003998  -0.000075   0.000002   0.000256  -0.003646   0.037685
    46  O    0.000000   0.000000   0.000003   0.000000  -0.000012   0.000000
    47  H    0.000000   0.000000  -0.000001   0.000000  -0.000005   0.000000
              13         14         15         16         17         18
     1  C    0.665990  -0.004548  -0.000103   0.004780   0.000042  -0.011390
     2  C   -0.090745   0.008152   0.001370  -0.059233  -0.000597   0.140782
     3  C    0.007154  -0.053318  -0.001058  -0.014262  -0.000459  -0.048766
     4  C   -0.000204   0.004399   0.000074  -0.005459  -0.000075   0.002852
     5  H   -0.001664  -0.003820   0.000739  -0.002157  -0.000020  -0.002765
     6  H   -0.000035  -0.005491  -0.000111   0.003693   0.002537   0.002051
     7  C   -0.002021   0.000020   0.000000   0.000006   0.000000  -0.000049
     8  H    0.000108   0.000000   0.000000   0.000001   0.000000  -0.000006
     9  H    0.012952   0.000004   0.000000  -0.000002   0.000000  -0.000069
    10  H    0.000208  -0.000006   0.000000   0.000011   0.000000   0.000049
    11  N   -0.087948  -0.000127  -0.000006   0.000229  -0.000011  -0.002656
    12  O   -0.000013   0.000026   0.000000   0.000022  -0.000007   0.000003
    13  O    7.757267   0.000209  -0.000003   0.000014   0.000000  -0.002208
    14  C    0.000209   5.000546   0.442656   0.363764  -0.049874   0.425201
    15  H   -0.000003   0.442656   0.627266  -0.050387  -0.012306  -0.067940
    16  C    0.000014   0.363764  -0.050387   5.017633   0.447824   0.003228
    17  H    0.000000  -0.049874  -0.012306   0.447824   0.624187   0.013573
    18  C   -0.002208   0.425201  -0.067940   0.003228   0.013573   4.994070
    19  H    0.000310   0.000429   0.006848  -0.032394  -0.000232   0.366140
    20  C   -0.002968  -0.060956  -0.012708   0.012033  -0.000192   0.393876
    21  H    0.011461   0.008001   0.000141  -0.000668   0.000011  -0.022045
    22  H    0.000114  -0.014351   0.005545   0.000794  -0.000014  -0.021215
    23  H   -0.000189   0.000060   0.000196  -0.000480   0.000001  -0.009957
    24  C    0.000050   0.000665   0.014140   0.362936  -0.076876  -0.046748
    25  H   -0.000215  -0.036193  -0.000244   0.007052   0.006634   0.019924
    26  C    0.000001   0.010670  -0.000167  -0.049312  -0.008625   0.000584
    27  H    0.000000   0.000524  -0.000006  -0.016353   0.000834  -0.000075
    28  H    0.000000  -0.000721   0.000006   0.011529   0.000518   0.000089
    29  C    0.000000   0.000020  -0.000001  -0.000400  -0.000018  -0.000003
    30  C    0.000000   0.000000   0.000000   0.000117   0.000023   0.000000
    31  H    0.000000   0.000000   0.000000  -0.000020   0.000003   0.000000
    32  H    0.000000   0.000000   0.000000   0.000001  -0.000001   0.000000
    33  H    0.000000   0.000002   0.000000  -0.000119  -0.000003  -0.000001
    34  O    0.000000  -0.000237  -0.000001   0.003372   0.002715   0.000019
    35  O    0.000000   0.000000   0.000000  -0.000001   0.000001   0.000000
    36  H    0.039258  -0.000072   0.000004   0.000001   0.000000   0.000298
    37  H    0.000000   0.000000   0.000000   0.000001   0.000000   0.000000
    38  H    0.000000  -0.000006   0.000000   0.000164   0.000021   0.000001
    39  H    0.000000   0.000000   0.000000   0.000000   0.000000   0.000000
    40  O    0.000000  -0.000023  -0.000002  -0.000092   0.000274   0.000005
    41  H    0.000000   0.000020   0.000000  -0.000007  -0.000028  -0.000002
    42  O    0.000000   0.000000   0.000000   0.000000   0.000000   0.000000
    43  H    0.000000   0.000000   0.000000   0.000000   0.000000   0.000000
    44  O    0.000000   0.000000   0.000000   0.000000   0.000000   0.000000
    45  H   -0.000001   0.000004   0.000000   0.000005  -0.000001   0.000002
    46  O   -0.012695   0.000060  -0.000005  -0.000001   0.000000  -0.000684
    47  H    0.000110  -0.000003   0.000001   0.000000   0.000000   0.000102
              19         20         21         22         23         24
     1  C   -0.004579   0.001260  -0.000244   0.000173  -0.000324   0.000935
     2  C    0.003894  -0.028480  -0.011349  -0.001014   0.002726  -0.050233
     3  C   -0.027735   0.005176   0.003179  -0.000325  -0.000208   0.157295
     4  C    0.006312  -0.000307  -0.000155   0.000018   0.000007  -0.012140
     5  H    0.002894  -0.004917   0.002337   0.001603   0.000074   0.001295
     6  H   -0.000435   0.000001  -0.000023  -0.000009   0.000001  -0.005076
     7  C   -0.000029  -0.000002  -0.000009   0.000000   0.000000   0.000046
     8  H    0.000014   0.000001  -0.000002   0.000000   0.000000  -0.000030
     9  H    0.000010  -0.000008   0.000010   0.000000   0.000000   0.000054
    10  H   -0.000124  -0.000002   0.000002   0.000000   0.000000   0.000065
    11  N    0.000671   0.000189   0.000184  -0.000002  -0.000001  -0.008613
    12  O    0.000035   0.000000   0.000000   0.000000   0.000000  -0.009717
    13  O    0.000310  -0.002968   0.011461   0.000114  -0.000189   0.000050
    14  C    0.000429  -0.060956   0.008001  -0.014351   0.000060   0.000665
    15  H    0.006848  -0.012708   0.000141   0.005545   0.000196   0.014140
    16  C   -0.032394   0.012033  -0.000668   0.000794  -0.000480   0.362936
    17  H   -0.000232  -0.000192   0.000011  -0.000014   0.000001  -0.076876
    18  C    0.366140   0.393876  -0.022045  -0.021215  -0.009957  -0.046748
    19  H    0.623992  -0.035575  -0.003063   0.005916  -0.006139   0.019195
    20  C   -0.035575   4.625687   0.313968   0.400426   0.372504   0.000269
    21  H   -0.003063   0.313968   0.692494  -0.021013  -0.011055   0.000183
    22  H    0.005916   0.400426  -0.021013   0.608455  -0.019459   0.000031
    23  H   -0.006139   0.372504  -0.011055  -0.019459   0.601976  -0.000023
    24  C    0.019195   0.000269   0.000183   0.000031  -0.000023   5.227420
    25  H    0.000906   0.000555  -0.000052  -0.000010  -0.000009   0.351084
    26  C    0.000641  -0.000024  -0.000001   0.000003   0.000001   0.315950
    27  H   -0.000004   0.000002   0.000000   0.000000   0.000000  -0.018358
    28  H   -0.000030  -0.000001   0.000000   0.000000   0.000000  -0.008499
    29  C    0.000000   0.000000   0.000000   0.000000   0.000000   0.006928
    30  C    0.000000   0.000000   0.000000   0.000000   0.000000  -0.001286
    31  H    0.000000   0.000000   0.000000   0.000000   0.000000   0.000953
    32  H    0.000000   0.000000   0.000000   0.000000   0.000000  -0.000046
    33  H    0.000000   0.000000   0.000000   0.000000   0.000000   0.000189
    34  O   -0.000008   0.000000   0.000000   0.000000   0.000000  -0.085343
    35  O    0.000000   0.000000   0.000000   0.000000   0.000000   0.000108
    36  H    0.000048   0.002384  -0.006218  -0.000029  -0.000087  -0.000008
    37  H    0.000000   0.000000   0.000000   0.000000   0.000000  -0.000002
    38  H    0.000000   0.000000   0.000000   0.000000   0.000000  -0.000408
    39  H    0.000000   0.000000   0.000000   0.000000   0.000000   0.000003
    40  O    0.000000   0.000000   0.000000   0.000000   0.000000   0.000050
    41  H    0.000000   0.000000   0.000000   0.000000   0.000000   0.000031
    42  O    0.000000   0.000000   0.000000   0.000000   0.000000   0.000000
    43  H    0.000000   0.000000   0.000000   0.000000   0.000000   0.000000
    44  O   -0.000006   0.000000   0.000000   0.000000   0.000000   0.000433
    45  H    0.000009   0.000000   0.000000   0.000000   0.000000  -0.000488
    46  O   -0.000003  -0.015858   0.043893   0.000104   0.000214  -0.000001
    47  H    0.000002  -0.000842   0.005951   0.000090  -0.000045   0.000000
              25         26         27         28         29         30
     1  C    0.007212  -0.000520   0.000005   0.000005   0.000000   0.000000
     2  C   -0.025743   0.006780  -0.000118   0.000258   0.000083  -0.000001
     3  C    0.000387  -0.043738   0.001753  -0.002254  -0.004014   0.000125
     4  C   -0.005478   0.008840   0.000181   0.001832   0.001905  -0.000929
     5  H   -0.000100  -0.000065   0.000000   0.000000  -0.000001   0.000000
     6  H    0.003853  -0.010195   0.000102   0.000008   0.003233   0.000532
     7  C   -0.001265  -0.000009   0.000000  -0.000048  -0.000012  -0.000019
     8  H    0.000136  -0.000002   0.000000  -0.000013  -0.000001   0.000001
     9  H   -0.000110  -0.000002   0.000000  -0.000001   0.000000   0.000000
    10  H   -0.000226  -0.000089   0.000003   0.000377  -0.000001   0.000100
    11  N    0.010781  -0.000007  -0.000023  -0.000261   0.000161  -0.000035
    12  O   -0.002429   0.009561   0.000235   0.001726   0.016134  -0.006715
    13  O   -0.000215   0.000001   0.000000   0.000000   0.000000   0.000000
    14  C   -0.036193   0.010670   0.000524  -0.000721   0.000020   0.000000
    15  H   -0.000244  -0.000167  -0.000006   0.000006  -0.000001   0.000000
    16  C    0.007052  -0.049312  -0.016353   0.011529  -0.000400   0.000117
    17  H    0.006634  -0.008625   0.000834   0.000518  -0.000018   0.000023
    18  C    0.019924   0.000584  -0.000075   0.000089  -0.000003   0.000000
    19  H    0.000906   0.000641  -0.000004  -0.000030   0.000000   0.000000
    20  C    0.000555  -0.000024   0.000002  -0.000001   0.000000   0.000000
    21  H   -0.000052  -0.000001   0.000000   0.000000   0.000000   0.000000
    22  H   -0.000010   0.000003   0.000000   0.000000   0.000000   0.000000
    23  H   -0.000009   0.000001   0.000000   0.000000   0.000000   0.000000
    24  C    0.351084   0.315950  -0.018358  -0.008499   0.006928  -0.001286
    25  H    0.631393  -0.031956   0.003021  -0.007947   0.000003   0.000042
    26  C   -0.031956   4.593392   0.401891   0.321734  -0.044815   0.014645
    27  H    0.003021   0.401891   0.591947  -0.027407  -0.001901   0.000127
    28  H   -0.007947   0.321734  -0.027407   0.660002  -0.010823   0.009148
    29  C    0.000003  -0.044815  -0.001901  -0.010823   4.517867   0.376549
    30  C    0.000042   0.014645   0.000127   0.009148   0.376549   4.886721
    31  H   -0.000008   0.000294   0.000201  -0.000887  -0.005672   0.366494
    32  H    0.000000   0.001190  -0.000020  -0.000527  -0.002952   0.311086
    33  H   -0.000043  -0.009882   0.000592  -0.000227   0.003353   0.303054
    34  O    0.003169   0.285974  -0.026025  -0.023697   0.334855  -0.089320
    35  O   -0.000001   0.001776  -0.000033   0.000216   0.577344  -0.072039
    36  H    0.000005   0.000000   0.000000   0.000000   0.000000   0.000000
    37  H   -0.000037   0.000865  -0.000011  -0.003789  -0.000042   0.000234
    38  H    0.000007  -0.000038  -0.000013   0.000098  -0.005119   0.001656
    39  H    0.000000  -0.000029   0.000003   0.000002  -0.004388   0.001789
    40  O   -0.000003   0.000060  -0.000002  -0.000012   0.000108  -0.000036
    41  H    0.000000   0.000000  -0.000001   0.000000   0.000339  -0.000011
    42  O    0.000000   0.000001   0.000000  -0.000001   0.001588  -0.019027
    43  H    0.000000   0.000000   0.000000   0.000001   0.000380   0.001122
    44  O    0.000713  -0.016188   0.000129   0.051712   0.000308  -0.017271
    45  H   -0.000377   0.004919  -0.000072  -0.012601  -0.000403   0.001732
    46  O    0.000000   0.000000   0.000000   0.000000   0.000000   0.000000
    47  H    0.000000   0.000000   0.000000   0.000000   0.000000   0.000000
              31         32         33         34         35         36
     1  C    0.000000   0.000000  -0.000004   0.000001   0.000000  -0.004430
     2  C    0.000000   0.000000   0.000010   0.000764  -0.000006  -0.001666
     3  C   -0.000017   0.000002  -0.000338   0.005606  -0.000209   0.000058
     4  C    0.000026   0.000029  -0.000570  -0.001791   0.000067  -0.000083
     5  H    0.000000   0.000000   0.000000  -0.000004   0.000000  -0.007068
     6  H    0.000006  -0.000003  -0.000028   0.001888  -0.000334   0.000016
     7  C    0.000000   0.000000   0.000137   0.000002   0.000000  -0.000005
     8  H    0.000000   0.000000  -0.000003   0.000000   0.000000   0.000019
     9  H    0.000000   0.000000  -0.000001   0.000000   0.000000  -0.000065
    10  H    0.000000  -0.000001  -0.000596  -0.000001   0.000000  -0.000001
    11  N    0.000001   0.000000   0.000125  -0.000022   0.000000   0.000647
    12  O    0.000131  -0.000002   0.005692  -0.003894  -0.000668   0.000001
    13  O    0.000000   0.000000   0.000000   0.000000   0.000000   0.039258
    14  C    0.000000   0.000000   0.000002  -0.000237   0.000000  -0.000072
    15  H    0.000000   0.000000   0.000000  -0.000001   0.000000   0.000004
    16  C   -0.000020   0.000001  -0.000119   0.003372  -0.000001   0.000001
    17  H    0.000003  -0.000001  -0.000003   0.002715   0.000001   0.000000
    18  C    0.000000   0.000000  -0.000001   0.000019   0.000000   0.000298
    19  H    0.000000   0.000000   0.000000  -0.000008   0.000000   0.000048
    20  C    0.000000   0.000000   0.000000   0.000000   0.000000   0.002384
    21  H    0.000000   0.000000   0.000000   0.000000   0.000000  -0.006218
    22  H    0.000000   0.000000   0.000000   0.000000   0.000000  -0.000029
    23  H    0.000000   0.000000   0.000000   0.000000   0.000000  -0.000087
    24  C    0.000953  -0.000046   0.000189  -0.085343   0.000108  -0.000008
    25  H   -0.000008   0.000000  -0.000043   0.003169  -0.000001   0.000005
    26  C    0.000294   0.001190  -0.009882   0.285974   0.001776   0.000000
    27  H    0.000201  -0.000020   0.000592  -0.026025  -0.000033   0.000000
    28  H   -0.000887  -0.000527  -0.000227  -0.023697   0.000216   0.000000
    29  C   -0.005672  -0.002952   0.003353   0.334855   0.577344   0.000000
    30  C    0.366494   0.311086   0.303054  -0.089320  -0.072039   0.000000
    31  H    0.557663  -0.010461  -0.008231   0.000431   0.001224   0.000000
    32  H   -0.010461   0.616135  -0.004727   0.003673  -0.003877   0.000000
    33  H   -0.008231  -0.004727   0.605158   0.001822   0.000776   0.000000
    34  O    0.000431   0.003673   0.001822   8.005215  -0.087860   0.000000
    35  O    0.001224  -0.003877   0.000776  -0.087860   7.871121   0.000000
    36  H    0.000000   0.000000   0.000000   0.000000   0.000000   0.481906
    37  H   -0.000008   0.000020   0.001937  -0.000006   0.000000   0.000000
    38  H   -0.000077  -0.000041  -0.000075   0.002494   0.043799   0.000000
    39  H    0.000070  -0.010424   0.000153   0.000496   0.042944   0.000000
    40  O    0.000001   0.000001   0.000003  -0.000927  -0.012356   0.000000
    41  H    0.000000   0.000000   0.000000  -0.000157   0.000672   0.000000
    42  O    0.000104   0.056412  -0.000033  -0.000003  -0.013339   0.000000
    43  H    0.000032  -0.000971  -0.000126   0.000002   0.000760   0.000000
    44  O    0.000160   0.000098   0.047443   0.000041   0.000000   0.000000
    45  H   -0.000115   0.000003  -0.000534  -0.000131   0.000007   0.000000
    46  O    0.000000   0.000000   0.000000   0.000000   0.000000   0.327317
    47  H    0.000000   0.000000   0.000000   0.000000   0.000000  -0.023812
              37         38         39         40         41         42
     1  C    0.000000  -0.000009   0.000000   0.000008  -0.000003   0.000000
     2  C    0.000000   0.000249   0.000000  -0.000678   0.000213   0.000000
     3  C   -0.000010   0.003985   0.000002  -0.030544   0.002804   0.000000
     4  C   -0.000206  -0.000080  -0.000001  -0.000388  -0.000023   0.000000
     5  H    0.000000   0.000003   0.000000  -0.000001   0.000014   0.000000
     6  H    0.000000  -0.009844  -0.000007   0.091792  -0.004536   0.000000
     7  C    0.000254   0.000000   0.000000   0.000000   0.000000   0.000000
     8  H   -0.000011   0.000000   0.000000   0.000000   0.000000   0.000000
     9  H   -0.000003   0.000000   0.000000   0.000000   0.000000   0.000000
    10  H   -0.000869   0.000000   0.000000   0.000000   0.000000   0.000000
    11  N    0.000005  -0.000002   0.000000   0.000000   0.000002   0.000000
    12  O    0.000251  -0.000070  -0.000008  -0.000004   0.000012   0.000000
    13  O    0.000000   0.000000   0.000000   0.000000   0.000000   0.000000
    14  C    0.000000  -0.000006   0.000000  -0.000023   0.000020   0.000000
    15  H    0.000000   0.000000   0.000000  -0.000002   0.000000   0.000000
    16  C    0.000001   0.000164   0.000000  -0.000092  -0.000007   0.000000
    17  H    0.000000   0.000021   0.000000   0.000274  -0.000028   0.000000
    18  C    0.000000   0.000001   0.000000   0.000005  -0.000002   0.000000
    19  H    0.000000   0.000000   0.000000   0.000000   0.000000   0.000000
    20  C    0.000000   0.000000   0.000000   0.000000   0.000000   0.000000
    21  H    0.000000   0.000000   0.000000   0.000000   0.000000   0.000000
    22  H    0.000000   0.000000   0.000000   0.000000   0.000000   0.000000
    23  H    0.000000   0.000000   0.000000   0.000000   0.000000   0.000000
    24  C   -0.000002  -0.000408   0.000003   0.000050   0.000031   0.000000
    25  H   -0.000037   0.000007   0.000000  -0.000003   0.000000   0.000000
    26  C    0.000865  -0.000038  -0.000029   0.000060   0.000000   0.000001
    27  H   -0.000011  -0.000013   0.000003  -0.000002  -0.000001   0.000000
    28  H   -0.003789   0.000098   0.000002  -0.000012   0.000000  -0.000001
    29  C   -0.000042  -0.005119  -0.004388   0.000108   0.000339   0.001588
    30  C    0.000234   0.001656   0.001789  -0.000036  -0.000011  -0.019027
    31  H   -0.000008  -0.000077   0.000070   0.000001   0.000000   0.000104
    32  H    0.000020  -0.000041  -0.010424   0.000001   0.000000   0.056412
    33  H    0.001937  -0.000075   0.000153   0.000003   0.000000  -0.000033
    34  O   -0.000006   0.002494   0.000496  -0.000927  -0.000157  -0.000003
    35  O    0.000000   0.043799   0.042944  -0.012356   0.000672  -0.013339
    36  H    0.000000   0.000000   0.000000   0.000000   0.000000   0.000000
    37  H    0.486104   0.000000   0.000000   0.000000   0.000000   0.000000
    38  H    0.000000   0.472774   0.000094   0.336552  -0.027237   0.000000
    39  H    0.000000   0.000094   0.471288   0.000003  -0.000006   0.342091
    40  O    0.000000   0.336552   0.000003   7.639756   0.329891   0.000000
    41  H    0.000000  -0.027237  -0.000006   0.329891   0.507540   0.000000
    42  O    0.000000   0.000000   0.342091   0.000000   0.000000   7.673182
    43  H    0.000000  -0.000009  -0.030621   0.000000   0.000000   0.334271
    44  O    0.329953   0.000000   0.000000   0.000000   0.000000   0.000000
    45  H   -0.012205   0.000000  -0.000001   0.000000   0.000000   0.000000
    46  O    0.000000   0.000000   0.000000   0.000000   0.000000   0.000000
    47  H    0.000000   0.000000   0.000000   0.000000   0.000000   0.000000
              43         44         45         46         47
     1  C    0.000000  -0.000001   0.000012  -0.003057  -0.000106
     2  C    0.000000   0.000001  -0.000117  -0.004451   0.000275
     3  C    0.000000  -0.000028   0.001467   0.000438  -0.000023
     4  C    0.000000   0.001854  -0.005080  -0.000010   0.000001
     5  H    0.000000   0.000000   0.000001   0.029996  -0.001632
     6  H    0.000000   0.000001  -0.000053  -0.000012   0.000001
     7  C    0.000000  -0.009131   0.003998   0.000000   0.000000
     8  H    0.000000   0.000025  -0.000075   0.000000   0.000000
     9  H    0.000000   0.000081   0.000002   0.000003  -0.000001
    10  H    0.000000   0.027785   0.000256   0.000000   0.000000
    11  N    0.000000   0.000152  -0.003646  -0.000012  -0.000005
    12  O    0.000003  -0.015042   0.037685   0.000000   0.000000
    13  O    0.000000   0.000000  -0.000001  -0.012695   0.000110
    14  C    0.000000   0.000000   0.000004   0.000060  -0.000003
    15  H    0.000000   0.000000   0.000000  -0.000005   0.000001
    16  C    0.000000   0.000000   0.000005  -0.000001   0.000000
    17  H    0.000000   0.000000  -0.000001   0.000000   0.000000
    18  C    0.000000   0.000000   0.000002  -0.000684   0.000102
    19  H    0.000000  -0.000006   0.000009  -0.000003   0.000002
    20  C    0.000000   0.000000   0.000000  -0.015858  -0.000842
    21  H    0.000000   0.000000   0.000000   0.043893   0.005951
    22  H    0.000000   0.000000   0.000000   0.000104   0.000090
    23  H    0.000000   0.000000   0.000000   0.000214  -0.000045
    24  C    0.000000   0.000433  -0.000488  -0.000001   0.000000
    25  H    0.000000   0.000713  -0.000377   0.000000   0.000000
    26  C    0.000000  -0.016188   0.004919   0.000000   0.000000
    27  H    0.000000   0.000129  -0.000072   0.000000   0.000000
    28  H    0.000001   0.051712  -0.012601   0.000000   0.000000
    29  C    0.000380   0.000308  -0.000403   0.000000   0.000000
    30  C    0.001122  -0.017271   0.001732   0.000000   0.000000
    31  H    0.000032   0.000160  -0.000115   0.000000   0.000000
    32  H   -0.000971   0.000098   0.000003   0.000000   0.000000
    33  H   -0.000126   0.047443  -0.000534   0.000000   0.000000
    34  O    0.000002   0.000041  -0.000131   0.000000   0.000000
    35  O    0.000760   0.000000   0.000007   0.000000   0.000000
    36  H    0.000000   0.000000   0.000000   0.327317  -0.023812
    37  H    0.000000   0.329953  -0.012205   0.000000   0.000000
    38  H   -0.000009   0.000000   0.000000   0.000000   0.000000
    39  H   -0.030621   0.000000  -0.000001   0.000000   0.000000
    40  O    0.000000   0.000000   0.000000   0.000000   0.000000
    41  H    0.000000   0.000000   0.000000   0.000000   0.000000
    42  O    0.334271   0.000000   0.000000   0.000000   0.000000
    43  H    0.508166   0.000000   0.000000   0.000000   0.000000
    44  O    0.000000   7.631107   0.300225   0.000000   0.000000
    45  H    0.000000   0.300225   0.485078   0.000000   0.000000
    46  O    0.000000   0.000000   0.000000   7.658542   0.334700
    47  H    0.000000   0.000000   0.000000   0.334700   0.490531
 Mulliken charges:
               1
     1  C    0.298687
     2  C   -0.130374
     3  C   -0.089403
     4  C    0.286230
     5  H    0.063085
     6  H    0.009781
     7  C    0.063372
     8  H    0.080675
     9  H    0.076839
    10  H    0.063819
    11  N   -0.367746
    12  O   -0.300071
    13  O   -0.294299
    14  C   -0.035686
    15  H    0.046060
    16  C   -0.007864
    17  H    0.050141
    18  C   -0.126271
    19  H    0.072086
    20  C    0.034511
    21  H   -0.005918
    22  H    0.054170
    23  H    0.070215
    24  C   -0.136415
    25  H    0.065569
    26  C    0.235892
    27  H    0.088872
    28  H    0.040485
    29  C    0.239408
    30  C   -0.068609
    31  H    0.097703
    32  H    0.045401
    33  H    0.055094
    34  O   -0.333113
    35  O   -0.350092
    36  H    0.191583
    37  H    0.197574
    38  H    0.181129
    39  H    0.186548
    40  O   -0.353437
    41  H    0.190472
    42  O   -0.375249
    43  H    0.186991
    44  O   -0.334557
    45  H    0.200492
    46  O   -0.358479
    47  H    0.194703
 Sum of Mulliken charges =   0.00000
 Mulliken charges with hydrogens summed into heavy atoms:
               1
     1  C    0.298687
     2  C   -0.067290
     3  C   -0.079622
     4  C    0.286230
     7  C    0.284704
    11  N   -0.367746
    12  O   -0.300071
    13  O   -0.294299
    14  C    0.010374
    16  C    0.042277
    18  C   -0.054185
    20  C    0.152977
    24  C   -0.070846
    26  C    0.365248
    29  C    0.239408
    30  C    0.129589
    34  O   -0.333113
    35  O   -0.350092
    40  O    0.018164
    42  O   -0.001710
    44  O    0.063510
    46  O    0.027806
 APT charges:
               1
     1  C    1.647060
     2  C   -0.313664
     3  C   -0.230237
     4  C    1.679598
     5  H    0.120714
     6  H    0.151919
     7  C    0.355449
     8  H   -0.014036
     9  H    0.058190
    10  H    0.038358
    11  N   -1.204261
    12  O   -1.244108
    13  O   -1.205633
    14  C   -0.173202
    15  H    0.060297
    16  C   -0.012608
    17  H    0.071750
    18  C    0.176025
    19  H    0.022829
    20  C   -0.056575
    21  H    0.059716
    22  H   -0.000651
    23  H   -0.012247
    24  C   -0.126695
    25  H    0.042862
    26  C    0.640746
    27  H   -0.041893
    28  H    0.044879
    29  C    1.791788
    30  C   -0.268414
    31  H    0.066448
    32  H    0.098140
    33  H    0.135996
    34  O   -1.226656
    35  O   -1.233737
    36  H    0.509617
    37  H    0.334516
    38  H    0.487722
    39  H    0.494926
    40  O   -0.790513
    41  H    0.323628
    42  O   -0.768715
    43  H    0.313863
    44  O   -0.833376
    45  H    0.509042
    46  O   -0.810149
    47  H    0.331288
 Sum of APT charges =   0.00000
 APT charges with hydrogens summed into heavy atoms:
               1
     1  C    1.647060
     2  C   -0.192950
     3  C   -0.078318
     4  C    1.679598
     7  C    0.437960
    11  N   -1.204261
    12  O   -1.244108
    13  O   -1.205633
    14  C   -0.112905
    16  C    0.059142
    18  C    0.198854
    20  C   -0.009757
    24  C   -0.083834
    26  C    0.643732
    29  C    1.791788
    30  C    0.032171
    34  O   -1.226656
    35  O   -1.233737
    40  O    0.020837
    42  O    0.040073
    44  O    0.010182
    46  O    0.030755
 Electronic spatial extent (au):  <R**2>=           8224.6012
 Charge=              0.0000 electrons
 Dipole moment (field-independent basis, Debye):
    X=              3.6296    Y=              5.2070    Z=             -4.7799  Tot=              7.9457
[...]
 12994,-0.00008504,0.00012400,-0.23525730,0.26112161,0.04096149,-0.0001
 5403,0.00010707,-0.00005657,0.00011774,0.00003525,-0.00017095,0.000132
 45,0.00000089,0.00000375,-0.00001216,-0.00000920,0.00001034,-0.0001495
 6,-0.00003773,0.00024161,0.00001729,-0.00001816,-0.00005619,0.26741126
 ,-0.00159945,0.00035366,-0.00030471,-0.00028696,0.00015602,0.00023311,
 0.00077994,-0.00050669,-0.00070423,-0.00840581,0.00086474,0.00002689,0
 .00005489,0.00004345,-0.00005093,0.00000697,0.00011693,-0.00006911,-0.
 00006868,-0.00062840,0.00059793,-0.00003903,0.00014010,-0.00005822,-0.
 00005994,0.00015337,-0.00012203,0.00030304,-0.00074359,-0.00035365,0.0
 0268781,0.00080362,-0.00014414,0.00803572,-0.00582380,0.00893176,0.001
 18683,0.00030100,0.00017258,0.00051577,0.00011300,-0.00006805,0.000076
 36,-0.00004120,0.00007582,0.00021688,0.00035352,0.00009351,-0.00006721
 ,0.00000340,0.00002939,-0.00015243,-0.00038494,-0.00027449,-0.00003474
 ,-0.00003831,0.00009798,0.00005775,0.00007640,-0.00004562,0.00000151,-
 0.00001132,0.00001230,0.00002702,-0.00003373,-0.00000615,0.00008474,-0
 .00002754,-0.00000187,-0.00047290,-0.00082011,-0.00033898,-0.00000321,
 0.00031919,0.00021633,-0.00047546,0.00141108,-0.00020399,0.00025175,-0
 .00089149,-0.00008310,-0.00024560,-0.00104187,0.00012700,0.00049466,0.
 00138977,-0.00252399,-0.00087857,-0.00053630,0.00128354,0.00013317,-0.
 00004778,-0.00014652,-0.00029574,-0.00074639,-0.00010412,0.00097575,-0
 .00106398,-0.00040181,-0.00092593,-0.00163508,0.00126536,-0.00026817,-
 0.00101770,0.00193632,-0.00015189,0.00007907,-0.00014870,0.26688060,-0
 .30013969,-0.03903055,-0.00017521,0.00028940,-0.00024190,0.00029823,-0
 .00001185,-0.00028540,0.00007561,-0.00024244,0.00023758,0.00000150,0.0
 0001129,-0.00005691,-0.00027752,-0.00000301,0.00035243,0.00002553,-0.0
 0003540,-0.00007722,-0.29928939,0.36940486,0.00202171,-0.00092087,0.00
 028754,0.00037548,0.00025139,-0.00016623,-0.00123978,0.00064978,0.0004
 1540,0.00849328,-0.00107950,-0.00033782,-0.00005508,0.00001423,0.00006
 736,-0.00005863,-0.00006904,0.00003270,-0.00054051,-0.00016205,0.00055
 317,0.00005808,-0.00003468,-0.00006044,-0.00019102,0.00009033,-0.00035
 315,0.00011415,0.00039084,-0.00085101,-0.00298193,-0.00007962,-0.00030
 190,-0.00922484,0.00796219,-0.00592805,-0.00125703,-0.00009549,-0.0001
 9303,-0.00050670,-0.00017463,0.00004726,-0.00001069,0.00002060,-0.0000
 5533,0.00031642,-0.00028504,0.00008487,0.00002053,0.00002576,-0.000029
 26,0.00017721,0.00040027,0.00028721,0.00000978,0.00000082,-0.00011856,
 -0.00004570,-0.00004735,0.00001614,0.00001629,0.00000479,-0.00000110,-
 0.00001607,0.00002623,0.00000947,-0.00005335,0.00001781,0.00000749,-0.
 00012707,0.00033154,0.00011526,-0.00001552,-0.00000272,-0.00021821,0.0
 0009604,0.00004244,0.00033348,0.00000553,0.00013118,-0.00001280,-0.000
 23636,-0.00002488,-0.00097331,0.00004793,-0.00058104,0.00055178,0.0001
 6364,0.00018994,0.00038457,0.00012964,0.00021816,-0.00000641,0.0000754
 3,0.00015719,0.00005753,-0.00015857,0.00016487,-0.00121357,0.00008978,
 0.00006107,0.00009943,0.00001290,0.00025540,-0.00043434,0.00015549,-0.
 00009859,0.00014937,0.00594835,0.00076916,-0.04389285,0.00002189,-0.00
 009066,0.00005978,-0.00008456,0.00000237,0.00007808,0.00002844,0.00012
 277,-0.00009485,-0.00000668,-0.00001364,0.00003334,0.00007616,0.000001
 03,-0.00009066,-0.00000888,0.00000828,0.00002074,0.02831024,-0.1069800
 4,0.51326708,-0.00250988,0.00124040,-0.00023406,-0.00039413,-0.0003356
 3,0.00013419,0.00100026,-0.00082402,-0.00047779,-0.00844673,0.00490790
 ,-0.00199634,0.00001627,-0.00003687,-0.00004803,0.00010389,0.00003379,
 -0.00001433,0.00007530,0.00050464,-0.00133010,0.00000608,-0.00006222,0
 .00009186,0.00031724,-0.00017559,0.00053919,-0.00126030,-0.00106608,0.
 00105618,0.00227856,-0.00009081,0.00062482,0.00143948,-0.00416938,0.00
 308857,0.00147188,0.00001774,0.00019591,0.00047868,0.00017140,-0.00004
 597,-0.00000041,-0.00001906,0.00004676,-0.00042308,0.00021745,-0.00014
 170,-0.00000742,-0.00004043,0.00002762,-0.00018112,-0.00037505,-0.0002
 6502,-0.00001337,0.00000933,0.00012402,0.00004073,0.00003494,-0.000007
 78,-0.00002338,0.00000093,0.00000011,0.00001533,-0.00002532,-0.0000107
 0,0.00004638,-0.00001532,-0.00000824,0.00024268,-0.00017916,-0.0000838
 9,-0.00007594,0.00004109,0.00022488,0.00029193,-0.00011263,-0.00007806
 ,-0.00008611,0.00001322,0.00003487,0.00056082,-0.00058438,-0.00000567,
 0.00130377,-0.00096380,0.00077719,-0.00004402,0.00030499,0.00005897,0.
 00007374,0.00024718,0.00002866,0.00009214,0.00031600,0.00004844,-0.002
 10713,-0.00183713,-0.00056862,-0.00068225,0.00027214,-0.00001834,-0.00
 029006,0.00041907,-0.00057738,-0.00017193,0.00011558,-0.00016611,-0.00
 561505,0.00972756,-0.02969837,0.00011501,-0.00006257,0.00004149,-0.000
 07442,-0.00002186,0.00010332,-0.00011942,-0.00004063,0.00001940,0.0000
 1195,0.00001314,-0.00001996,0.00009743,0.00002513,-0.00015227,-0.00001
 041,0.00001186,0.00003478,-0.03006646,0.03089301,-0.02983958,0.0424108
 3,0.00307918,-0.00125982,0.00048089,0.00074738,-0.00007271,-0.00037962
 ,-0.00170925,0.00106169,0.00096745,0.01629527,-0.00304277,0.00045017,-
 0.00009215,-0.00001378,0.00011357,-0.00008638,-0.00012249,0.00005859,-
 0.00002992,0.00176622,-0.00070620,0.00008104,-0.00026910,0.00004981,0.
 00010293,-0.00023587,0.00021322,-0.00082454,-0.00023870,0.00020996,-0.
 00592845,-0.00091062,-0.00026302,-0.00942267,0.00032390,-0.00235271,-0
 .00211537,-0.00035841,-0.00028943,-0.00097778,-0.00031377,0.00006312,-
 0.00004265,0.00004274,-0.00010988,0.00042499,-0.00055486,0.00007401,0.
 00005154,0.00004223,-0.00005889,0.00028170,0.00075706,0.00062180,0.000
 01067,0.00002656,-0.00020234,-0.00007546,-0.00008841,0.00003217,0.0000
 1654,0.00001259,-0.00000858,-0.00003183,0.00004631,0.00001433,-0.00010
 087,0.00003162,0.00000890,-0.00005596,0.00080569,0.00030807,0.00002260
 ,-0.00008966,-0.00039616,0.00007806,-0.00092179,0.00034616,-0.00008076
 ,0.00055149,-0.00002096,-0.00024945,-0.00072349,-0.00130674,-0.0010571
 8,-0.00110020,0.00130588,0.00021530,-0.00016056,0.00016384,0.00009915,
 0.00018570,0.00000734,0.00011777,0.00025087,0.00008050,-0.00183094,-0.
 00039425,-0.00065499,0.00076825,0.00034101,-0.00038767,0.00030387,0.00
 050576,-0.00096492,0.00024936,-0.00015380,0.00024155,0.00494462,-0.010
 83714,0.03280277,0.00005579,-0.00017809,0.00014318,-0.00017412,0.00001
 875,0.00014648,0.00002873,0.00021902,-0.00018956,-0.00000973,-0.000019
 11,0.00005884,0.00015001,-0.00000777,-0.00017203,-0.00001254,0.0000189
 9,0.00003736,0.03537689,-0.05985991,0.09836456,-0.03842402,0.07482035,
 -0.00263095,0.00140420,-0.00045396,-0.00056918,-0.00035856,0.00027243,
 0.00210546,-0.00096332,-0.00047928,-0.01360331,0.00155051,0.00080392,0
 .00010811,-0.00001122,-0.00009695,0.00009612,0.00006833,-0.00004379,-0
 .00000212,-0.00101620,0.00030932,-0.00016092,0.00011649,-0.00023144,0.
 00001660,0.00002898,-0.00003539,0.00047472,0.00017555,0.00050177,0.004
 86790,0.00062390,0.00032810,0.00868032,-0.00230090,-0.00255959,0.00175
 358,0.00014786,0.00027487,0.00071791,0.00026033,-0.00004961,-0.0000093
 7,-0.00001909,0.00007019,-0.00058847,0.00039480,-0.00016700,-0.0000176
 8,-0.00003475,0.00004259,-0.00023323,-0.00056750,-0.00045554,-0.000007
 61,0.00000573,0.00016157,0.00005244,0.00005249,-0.00000855,-0.00002498
 ,-0.00000651,-0.00000152,0.00001704,-0.00003096,-0.00001319,0.00005796
 ,-0.00001924,-0.00001172,0.00039663,-0.00043222,-0.00010669,0.00001632
 ,-0.00001857,0.00021526,0.00038027,-0.00046524,0.00031599,-0.00014850,
 0.00023639,0.00000399,0.00004292,-0.00140916,-0.00021872,0.00066988,-0
 .00012218,0.00052444,0.00012288,0.00027765,-0.00045417,-0.00007851,-0.
 00001719,0.00002521,0.00006513,0.00020601,0.00000986,-0.00064517,-0.00
 077699,0.00100306,-0.00024124,0.00036622,-0.00040537,-0.00012869,0.000
 17861,-0.00034955,-0.00019952,0.00012938,-0.00019101,0.00471269,-0.005
 79125,0.00265663,0.00007922,-0.00000711,0.00001432,-0.00002168,-0.0000
 1304,0.00004318,-0.00010879,-0.00009185,0.00005418,0.00001262,0.000018
 26,-0.00003208,0.00003572,0.00001245,-0.00006850,-0.00000314,0.0000050
 2,0.00001497,-0.06456541,0.13701336,-0.46151464,0.05836919,-0.12871521
 ,0.46016149,0.00702382,0.00071513,0.00129537,-0.00197947,-0.00246620,-
 0.00028754,0.00039984,0.00120677,-0.00005947,0.00138731,-0.00005961,-0
 .00000023,-0.00003281,0.00102677,-0.00032815,0.00002045,0.00011381,-0.
 00017917,-0.00008305,-0.00056842,-0.00001694,-0.00002278,0.00014763,0.
 00002260,0.00005341,-0.00006959,0.00004049,-0.00005513,0.00010571,0.00
 001927,-0.00253092,0.00067545,-0.00008678,-0.00135185,0.00058787,0.000
 00294,-0.00568621,0.00500310,-0.00597871,0.00034373,0.00022793,-0.0000
 3245,0.00002161,-0.00004483,0.00004766,-0.00044039,0.00030409,-0.00033
 230,-0.00003851,-0.00001763,0.00004451,-0.00018016,-0.00020703,0.00037
 828,-0.00002071,0.00001594,0.00014147,0.00068827,0.00023564,-0.0002238
 8,-0.00120421,0.00013933,-0.00003896,0.00000103,-0.00006804,-0.0000063
 2,0.00005938,-0.00015295,-0.00018762,0.00004286,-0.00045164,-0.0004843
 7,-0.00003303,0.00000641,0.00016425,0.00025107,0.00002675,-0.00014859,
 -0.00010776,-0.00003873,0.00002577,-0.00001064,-0.00002594,0.00004696,
 0.00043426,-0.00001651,-0.00024512,-0.00004215,0.00002303,0.00001012,0
 .00000246,-0.00000219,-0.00000043,-0.00000962,-0.00000048,-0.00000662,
 0.00003365,-0.00001632,0.00001058,-0.00043768,0.00003991,0.00010132,-0
 .00014357,-0.00005874,0.00018484,-0.06651371,0.11060318,-0.05580580,0.
 00001316,-0.00001112,-0.00000700,0.00004320,0.00004348,-0.00003322,0.0
 0003622,-0.00000907,-0.00002279,-0.00010200,-0.00014947,0.00011106,0.0
 0001634,0.00002196,-0.00004675,-0.00002521,0.00000609,0.00002074,0.000
 00226,-0.00000265,-0.00000484,-0.00009737,0.00012722,-0.00012061,0.000
 12850,-0.00019577,0.00015470,0.57518808,-0.00784961,-0.00362239,-0.000
 93863,0.00060365,0.00057097,0.00055657,-0.00040586,0.00041573,-0.00038
 110,-0.00146980,-0.00116939,-0.00012900,0.00058646,-0.00033636,-0.0000
 3942,0.00002346,-0.00000973,0.00006641,0.00001397,0.00045511,-0.000007
 02,0.00000912,-0.00009357,-0.00001906,-0.00005739,0.00008614,-0.000042
 15,0.00004275,-0.00005374,-0.00001425,0.00334742,0.00029546,0.00007589
 ,0.00094662,0.00003265,0.00007567,0.00966735,-0.00189930,0.00624761,-0
 .00053521,-0.00016813,-0.00003786,0.00001832,0.00003443,-0.00003681,0.
 00042541,-0.00027852,0.00016450,-0.00000084,0.00000550,-0.00003973,0.0
 0068304,0.00018422,0.00005689,-0.00003955,0.00001442,-0.00013943,-0.00
 003213,0.00098068,-0.00064704,0.00017739,-0.00123367,0.00003580,0.0000
 1621,0.00008333,0.00032822,-0.00020140,-0.00007166,-0.00040202,-0.0001
 5603,0.00038833,0.00038880,0.00000739,0.00000149,-0.00012707,-0.000010
 63,-0.00001576,0.00001063,0.00001662,0.00001919,-0.00000837,-0.0000070
 8,0.00001010,-0.00002025,-0.00012184,-0.00002773,0.00006300,0.00001248
 ,-0.00000326,0.00000067,0.00000147,0.00000210,0.00000075,0.00000368,0.
 00000178,0.00000261,-0.00001982,0.00000631,-0.00000805,0.00010003,-0.0
 0000383,-0.00001535,0.00003564,0.00002283,-0.00005060,0.06783140,-0.35
 334989,0.21089047,-0.00000624,0.00000636,0.00000517,-0.00000682,-0.000
 01517,0.00001101,-0.00001061,0.00000188,0.00000708,0.00001887,0.000038
 80,-0.00002866,-0.00000159,-0.00000577,0.00001028,0.00000770,-0.000000
 89,-0.00000680,-0.00000076,0.00000054,0.00000162,0.00005954,-0.0000559
 3,0.00006803,-0.00007930,0.00010381,-0.00008811,-0.15569755,0.39604428
 ,0.00581464,0.00114167,0.00047766,-0.00074041,-0.00124798,0.00027233,-
 0.00003961,0.00070862,-0.00004101,0.00132415,-0.00006814,-0.00012401,0
 .00008622,0.00033234,-0.00090240,0.00000263,0.00014378,-0.00008581,-0.
 00004384,-0.00053914,-0.00000389,-0.00002504,0.00013167,0.00002158,0.0
 0005274,-0.00006419,0.00004684,-0.00004730,0.00008978,0.00001629,-0.00
 251140,0.00036288,-0.00027786,-0.00126806,0.00049318,0.00001128,-0.006
 87420,0.00381960,-0.00238393,-0.00094846,0.00005134,-0.00005629,0.0000
 7974,-0.00000337,-0.00002225,0.00009317,-0.00005106,-0.00007510,-0.000
 10514,-0.00002631,-0.00000189,0.00178574,-0.00059349,-0.00004874,-0.00
 019729,0.00010498,0.00013450,0.00035971,0.00228833,-0.00075816,-0.0002
 6414,-0.00072473,-0.00198586,-0.00007405,-0.00030957,0.00004630,-0.000
 42675,-0.00050368,-0.00141654,-0.00020322,-0.00001510,-0.00008078,-0.0
 0002907,-0.00002201,0.00009771,0.00036973,0.00003298,-0.00023729,-0.00
 014408,-0.00004002,0.00002722,-0.00002261,-0.00002785,0.00004647,0.000
 47444,-0.00003762,-0.00028596,-0.00004785,0.00002671,0.00001408,0.0000
 0496,-0.00000172,0.00000064,-0.00000972,0.,-0.00000677,0.00003199,-0.0
 0001763,0.00000805,-0.00049871,0.00004490,0.00016079,-0.00015907,-0.00
 006577,0.00021676,-0.02838851,0.19789663,-0.13170125,0.00001248,-0.000
 00912,-0.00000644,0.00003342,0.00004606,-0.00003786,0.00003876,-0.0000
 0974,-0.00002499,-0.00008455,-0.00013571,0.00010541,0.00001138,0.00001
 833,-0.00004335,-0.00002662,0.00000665,0.00002317,0.00000192,-0.000002
 88,-0.00000564,-0.00009162,0.00012991,-0.00011443,0.00012020,-0.000192
 50,0.00014323,-0.06163307,-0.21514599,0.17618349,-0.00073573,-0.000170
 56,0.00000974,0.00003522,-0.00009032,-0.00002467,0.00002691,-0.0000357
 8,-0.00004621,-0.00017323,0.00000117,-0.00000013,-0.00038838,0.0001129
 4,-0.00003354,0.00000441,-0.00002089,0.00000931,0.00000728,0.00006372,
 0.00000195,0.00000284,-0.00001573,-0.00000269,-0.00000477,0.00000610,-
 0.00000496,0.00000586,-0.00001206,-0.00000122,0.00034934,-0.00003635,0
 .00004882,0.00016167,-0.00005530,0.00000851,0.00080289,-0.00020508,0.0
 0028699,0.00023216,0.00000640,-0.00001904,-0.00001427,-0.00000074,0.00
 000750,-0.00004317,0.00003246,0.00000153,0.00001954,0.00000428,0.00000
 370,-0.00041636,0.00011665,0.00007911,0.00004025,-0.00002150,-0.000018
 68,0.00022197,-0.00040928,0.00018143,-0.00045495,0.00009140,-0.0010344
 2,0.00000779,0.00004697,-0.00002644,0.00006145,0.00004940,0.00023023,0
 .00003370,-0.00001940,-0.00000894,0.00000459,0.00000610,-0.00000960,-0
 .00005327,-0.00000490,0.00003249,0.00002024,0.00000594,-0.00000343,0.0
 0000373,0.00000391,-0.00000608,-0.00006472,0.00000601,0.00003870,0.000
 00644,-0.00000324,-0.00000226,-0.00000075,0.00000020,0.00000020,0.0000
 0150,-0.00000005,0.00000087,-0.00000428,0.00000236,-0.00000106,0.00006
 956,-0.00000662,-0.00002390,0.00002205,0.00000857,-0.00002943,-0.01405
 477,-0.00298123,0.00633466,-0.00000230,0.00000172,0.00000071,-0.000004
 11,-0.00000605,0.00000504,-0.00000558,0.00000147,0.00000346,0.00001059
 ,0.00001657,-0.00001258,-0.00000189,-0.00000234,0.00000511,0.00000393,
 -0.00000092,-0.00000315,-0.00000042,0.00000035,0.00000072,0.00001256,-
 0.00001842,0.00001477,-0.00001587,0.00002617,-0.00001789,-0.50504202,0
 .08205407,0.09420631,0.51931231,-0.00057131,-0.00040785,0.00015802,-0.
 00040846,-0.00034641,-0.00014335,0.00002986,0.00019339,-0.00004431,-0.
 00008812,-0.00015677,-0.00000611,0.00047367,0.00049606,0.00031597,0.00
 001001,0.00000386,-0.00001855,-0.00000238,0.00000188,0.00000606,-0.000
 00165,0.00000212,-0.00000060,-0.00000169,0.00000703,-0.00000068,0.0000
 0183,0.00000264,-0.00000057,0.00021972,0.00005405,-0.00010718,0.000003
 51,0.00005925,0.00001104,0.00059016,-0.00069738,0.00120944,0.00002474,
 0.00003775,-0.00000968,0.00000292,-0.00000174,0.00000470,-0.00003707,0
 .00002128,-0.00002425,-0.00000319,-0.00000041,0.00000144,-0.00000992,-
 0.00005269,0.00008353,0.00000214,0.00000494,0.00000430,-0.00004059,-0.
 00014155,0.00003081,-0.00000976,0.00024132,-0.00012880,-0.00000935,-0.
 00005935,-0.00005809,0.00002505,-0.00000801,0.00001659,-0.00000201,-0.
 00003495,-0.00004013,-0.00000284,0.00000287,0.00000970,0.00002077,-0.0
 0000005,-0.00001358,-0.00000851,-0.00000140,0.00000205,-0.00000204,-0.
 00000136,0.00000163,0.00002801,-0.00000472,-0.00001655,-0.00000252,0.0
 0000175,0.00000128,0.00000050,0.00000008,0.00000002,-0.00000042,0.0000
 0024,-0.00000032,0.00000073,-0.00000067,-0.00000007,-0.00003036,0.0000
 0368,0.00000849,-0.00000946,-0.00000367,0.00001207,0.03942974,-0.00522
 537,-0.00880488,0.00000071,-0.00000011,0.00000007,0.00000358,0.0000033
 4,-0.00000227,0.00000220,-0.00000045,-0.00000130,-0.00000742,-0.000011
 32,0.00000779,0.00000126,0.00000209,-0.00000342,-0.00000152,0.00000018
 ,0.00000112,0.00000016,-0.00000005,-0.00000025,-0.00000249,0.00000461,
 -0.00000317,0.00000278,-0.00000524,0.00000382,0.03892727,-0.03739177,0
 .01198499,-0.07854821,0.04340888,0.00031085,0.00009625,0.00011195,-0.0
 0029376,-0.00027538,0.00004551,0.00007083,0.00004364,-0.00007148,-0.00
 000883,0.00006913,0.00001017,-0.00008610,0.00014729,-0.00009392,0.0000
 0431,-0.00001421,-0.00000631,-0.00000691,0.00000503,-0.00000308,0.0000
 0106,-0.00000091,-0.00000017,0.00000041,-0.00000539,-0.00000053,-0.000
 00132,-0.00000095,0.00000084,-0.00005190,0.00000986,0.00004096,0.00000
 832,-0.00001360,0.00000391,-0.00033769,0.00082939,-0.00080353,0.000328
 57,0.00000381,-0.00000023,-0.00001796,-0.00000667,0.00001783,-0.000096
 56,0.00007580,-0.00004741,0.00002283,0.00000278,0.00000939,-0.00050932
 ,0.00015278,0.00025500,0.00006758,-0.00002621,0.00000406,0.00026609,-0
 .00045567,-0.00017613,-0.00127844,0.00011474,-0.00137790,0.00003851,0.
 00002711,0.00001952,0.00007979,0.00004433,0.00024986,0.00006083,-0.000
 07969,-0.00006942,-0.00000012,0.00000685,0.00001012,-0.00004744,-0.000
 00177,0.00003212,0.00001570,0.00000200,-0.00000195,0.00000474,0.000001
 92,-0.00000211,-0.00003419,0.00000876,0.00002423,0.00000371,-0.0000023
 4,-0.00000194,-0.00000099,-0.00000010,-0.00000020,0.00000050,-0.000000
 21,0.00000035,-0.00000075,0.00000108,0.00000045,0.00004194,-0.00000460
 ,-0.00002260,0.00001267,0.00000452,-0.00001842,-0.02187958,0.00438047,
 0.00373089,-0.00000058,0.00000003,-0.00000008,-0.00000029,-0.00000266,
 0.00000271,-0.00000286,0.00000074,0.00000185,0.00000197,0.00000456,-0.
 00000465,-0.00000047,-0.00000070,0.00000184,0.00000200,-0.00000054,-0.
 00000182,-0.00000017,0.00000024,0.00000051,0.00000217,-0.00000667,0.00
 000288,-0.00000230,0.00000689,-0.00000230,0.12349477,-0.00069490,-0.03
 732531,-0.10018157,-0.00444684,0.03545453\\0.00000246,-0.00000219,-0.0
 0000349,-0.00000316,-0.00000219,-0.00000187,0.00000374,-0.00000043,-0.
 00000004,-0.00000038,-0.00000162,-0.00000057,0.00000044,-0.00000167,-0
 .00000245,0.00000057,0.00000278,0.00000148,0.00000271,0.,-0.00000339,0
 .00000347,0.00000008,-0.00000260,0.00000192,-0.00000118,-0.00000400,0.
 00000182,-0.00000044,-0.00000178,0.00000209,-0.00000003,-0.00000194,0.
 00000178,0.00000189,0.00000020,0.00000079,0.00000152,-0.00000378,-0.00
 000185,-0.00000285,-0.00000087,-0.00000329,-0.00000201,-0.00000121,-0.
 00000407,-0.00000269,-0.00000081,-0.00000342,-0.00000076,0.00000171,-0
 .00000183,-0.00000105,-0.00000483,-0.00000267,-0.00000159,-0.00000213,
 -0.00000258,-0.00000350,-0.00000509,0.00000309,-0.00000314,-0.00000301
 ,-0.00000161,-0.00000246,-0.00000303,-0.00000305,-0.00000338,-0.000005
 63,-0.00000270,0.00000152,0.00000044,-0.00000162,-0.00000101,0.0000000
 3,-0.00000149,-0.00000005,0.00000193,-0.00000366,-0.00000087,0.0000027
 9,-0.00000152,0.00000027,0.00000149,0.00000074,0.00000218,0.00000345,-
 0.00000149,0.00000277,0.00000715,-0.00000153,0.00000170,0.00000495,0.0
 0000054,0.00000258,0.00000560,0.00000146,0.00000102,-0.00000119,-0.000
 00231,0.00000138,0.00000118,-0.00000437,0.00000111,0.00000514,0.000003
 91,-0.00000342,-0.00000795,0.00000033,0.00000069,0.00000071,-0.0000005
 3,0.,0.00000189,0.00000316,0.00000542,0.00000772,0.00000465,0.00000435
 ,0.00000381,0.00000116,0.00000059,0.00000320,0.00000098,0.00000345,0.0
 0000576,0.00000308,0.00000411,0.00000653,-0.00000015,0.00000045,0.0000
 0083,0.00000031,0.00000085,0.00000231,0.00000151,-0.00000037,-0.000002
 97,0.00000257,-0.00000181,-0.00000564\\\@


 A SCIENTIST IS SOMEONE WHOSE CURIOSITY SURVIVES
 EDUCATION'S ASSAULTS ON IT.
                          - SIR HERMANN BONDI
 Job cpu time:       0 days  4 hours 57 minutes 17.6 seconds.
 File lengths (MBytes):  RWF=   1036 Int=      0 D2E=      0 Chk=     23 Scr=      1
 Normal termination of Gaussian 09 at Mon Sep  7 00:42:01 2020.
