 Entering Gaussian System, Link 0=g09
 Input=m062x_PM6_2H2O_dienophile_pm6_cpcmtoluene_1_water_gd3.com
 Output=m062x_PM6_2H2O_dienophile_pm6_cpcmtoluene_1_water_gd3.log
 Initial command:
 /apps/applications/gaussian/G09.D01/2/default/g09/l1.exe "/local/725663.1.40core-192G.q/Gau-383092.inp" -scrdir="/local/725663.1.40core-192G.q/"
 Entering Link 1 = /apps/applications/gaussian/G09.D01/2/default/g09/l1.exe PID=    383093.
  
 Copyright (c) 1988,1990,1992,1993,1995,1998,2003,2009,2013,
            Gaussian, Inc.  All Rights Reserved.
  
 This is part of the Gaussian(R) 09 program.  It is based on
 the Gaussian(R) 03 system (copyright 2003, Gaussian, Inc.),
 the Gaussian(R) 98 system (copyright 1998, Gaussian, Inc.),
 the Gaussian(R) 94 system (copyright 1995, Gaussian, Inc.),
 the Gaussian 92(TM) system (copyright 1992, Gaussian, Inc.),
 the Gaussian 90(TM) system (copyright 1990, Gaussian, Inc.),
 the Gaussian 88(TM) system (copyright 1988, Gaussian, Inc.),
 the Gaussian 86(TM) system (copyright 1986, Carnegie Mellon
 University), and the Gaussian 82(TM) system (copyright 1983,
 Carnegie Mellon University). Gaussian is a federally registered
 trademark of Gaussian, Inc.
  
 This software contains proprietary and confidential information,
 including trade secrets, belonging to Gaussian, Inc.
  
 This software is provided under written license and may be
 used, copied, transmitted, or stored only in accord with that
 written license.
  
 The following legend is applicable only to US Government
 contracts under FAR:
  
                    RESTRICTED RIGHTS LEGEND
  
 Use, reproduction and disclosure by the US Government is
 subject to restrictions as set forth in subparagraphs (a)
 and (c) of the Commercial Computer Software - Restricted
 Rights clause in FAR 52.227-19.
  
 Gaussian, Inc.
 340 Quinnipiac St., Bldg. 40, Wallingford CT 06492
  
  
 ---------------------------------------------------------------
 Warning -- This program may not be used in any manner that
 competes with the business of Gaussian, Inc. or will provide
 assistance to any competitor of Gaussian, Inc.  The licensee
 of this program is prohibited from giving any competitor of
 Gaussian, Inc. access to this program.  By using this program,
 the user acknowledges that Gaussian, Inc. is engaged in the
 business of creating and licensing software in the field of
 computational chemistry and represents and warrants to the
 licensee that it is not a competitor of Gaussian, Inc. and that
 it will not use this program in any manner prohibited above.
 ---------------------------------------------------------------
  

 Cite this work as:
 Gaussian 09, Revision D.01,
 M. J. Frisch, G. W. Trucks, H. B. Schlegel, G. E. Scuseria, 
 M. A. Robb, J. R. Cheeseman, G. Scalmani, V. Barone, B. Mennucci, 
 G. A. Petersson, H. Nakatsuji, M. Caricato, X. Li, H. P. Hratchian, 
 A. F. Izmaylov, J. Bloino, G. Zheng, J. L. Sonnenberg, M. Hada, 
 M. Ehara, K. Toyota, R. Fukuda, J. Hasegawa, M. Ishida, T. Nakajima, 
 Y. Honda, O. Kitao, H. Nakai, T. Vreven, J. A. Montgomery, Jr., 
 J. E. Peralta, F. Ogliaro, M. Bearpark, J. J. Heyd, E. Brothers, 
 K. N. Kudin, V. N. Staroverov, T. Keith, R. Kobayashi, J. Normand, 
 K. Raghavachari, A. Rendell, J. C. Burant, S. S. Iyengar, J. Tomasi, 
 M. Cossi, N. Rega, J. M. Millam, M. Klene, J. E. Knox, J. B. Cross, 
 V. Bakken, C. Adamo, J. Jaramillo, R. Gomperts, R. E. Stratmann, 
 O. Yazyev, A. J. Austin, R. Cammi, C. Pomelli, J. W. Ochterski, 
 R. L. Martin, K. Morokuma, V. G. Zakrzewski, G. A. Voth, 
 P. Salvador, J. J. Dannenberg, S. Dapprich, A. D. Daniels, 
 O. Farkas, J. B. Foresman, J. V. Ortiz, J. Cioslowski, 
 and D. J. Fox, Gaussian, Inc., Wallingford CT, 2013.
 
 ******************************************
 Gaussian 09:  ES64L-G09RevD.01 24-Apr-2013
                 6-Sep-2020 
 ******************************************
 %nprocshared=4
 Will use up to    4 processors via shared memory.
 %chk=m062x_PM6_2H2O_dienophile_pm6_cpcmtoluene_1_water_gd3.chk
 ----------------------------------------------------------------------
 # opt freq scrf=(cpcm,solvent=water) geom=connectivity def2svp m062x e
 mpiricaldispersion=gd3
 ----------------------------------------------------------------------
 1/14=-1,18=20,19=15,26=3,38=1,57=2/1,3;
 2/9=110,12=2,17=6,18=5,40=1/2;
 3/5=43,7=101,11=2,16=1,25=1,30=1,70=2101,71=1,72=1,74=-55,124=31/1,2,3;
 4//1;
 5/5=2,38=5,53=1/2;
 6/7=2,8=2,9=2,10=2,28=1/1;
 7//1,2,3,16;
 1/14=-1,18=20,19=15,26=3/3(2);
 2/9=110/2;
 99//99;
 2/9=110/2;
 3/5=43,7=101,11=2,16=1,25=1,30=1,70=2105,71=1,72=1,74=-55,124=31/1,2,3;
 4/5=5,16=3,69=1/1;
 5/5=2,38=5,53=1/2;
 7//1,2,3,16;
 1/14=-1,18=20,19=15,26=3/3(-5);
 2/9=110/2;
 6/7=2,8=2,9=2,10=2,19=2,28=1/1;
 99/9=1/99;
 -------------------
 Title Card Required
 -------------------
 Symbolic Z-matrix:
 Charge =  0 Multiplicity = 1
 C                     1.13484   0.35119  -0.04346 
 C                     0.66195  -1.07549  -0.11734 
 C                    -0.67159  -1.06958  -0.11499 
 C                    -1.1349    0.3605   -0.03897 
 H                     1.37246  -1.89899  -0.16365 
 H                    -1.38978  -1.88658  -0.15946 
 C                     0.02254   2.5931    0.07205 
 H                    -1.01274   2.93198   0.18747 
 H                     0.61611   2.91884   0.93541 
 H                     0.44828   3.02177  -0.84453 
 N                     0.00428   1.14795  -0.00144 
 O                    -2.26925   0.77492  -0.01537 
 O                     2.26996   0.76473  -0.02442 
 O                    -3.76116  -1.68787  -0.00025 
 H                    -3.76223  -1.85106   0.95082 
 H                    -3.47732  -0.76161  -0.06084 
 O                     3.74637  -1.70531   0.0057 
 H                     3.46783  -0.77786  -0.06193 
 H                     3.74304  -1.86223   0.95781 
 
 Add virtual bond connecting atoms H18        and O13        Dist= 3.69D+00.
 Add virtual bond connecting atoms H16        and O12        Dist= 3.69D+00.

 GradGradGradGradGradGradGradGradGradGradGradGradGradGradGradGradGradGrad
 Berny optimization.
 Initialization pass.
                           ----------------------------
                           !    Initial Parameters    !
                           ! (Angstroms and Degrees)  !
 --------------------------                            --------------------------
 ! Name  Definition              Value          Derivative Info.                !
 --------------------------------------------------------------------------------
 ! R1    R(1,2)                  1.5048         estimate D2E/DX2                !
 ! R2    R(1,11)                 1.3837         estimate D2E/DX2                !
 ! R3    R(1,13)                 1.2083         estimate D2E/DX2                !
 ! R4    R(2,3)                  1.3335         estimate D2E/DX2                !
 ! R5    R(2,5)                  1.0886         estimate D2E/DX2                !
 ! R6    R(3,4)                  1.5052         estimate D2E/DX2                !
 ! R7    R(3,6)                  1.0887         estimate D2E/DX2                !
 ! R8    R(4,11)                 1.3854         estimate D2E/DX2                !
 ! R9    R(4,12)                 1.2079         estimate D2E/DX2                !
 ! R10   R(7,8)                  1.0954         estimate D2E/DX2                !
 ! R11   R(7,9)                  1.0972         estimate D2E/DX2                !
 ! R12   R(7,10)                 1.0978         estimate D2E/DX2                !
 ! R13   R(7,11)                 1.4471         estimate D2E/DX2                !
 ! R14   R(12,16)                1.9551         estimate D2E/DX2                !
 ! R15   R(13,18)                1.9534         estimate D2E/DX2                !
 ! R16   R(14,15)                0.965          estimate D2E/DX2                !
 ! R17   R(14,16)                0.9707         estimate D2E/DX2                !
 ! R18   R(17,18)                0.9707         estimate D2E/DX2                !
 ! R19   R(17,19)                0.965          estimate D2E/DX2                !
 ! A1    A(2,1,11)             106.8962         estimate D2E/DX2                !
 ! A2    A(2,1,13)             128.3521         estimate D2E/DX2                !
 ! A3    A(11,1,13)            124.7515         estimate D2E/DX2                !
 ! A4    A(1,2,3)              108.0565         estimate D2E/DX2                !
 ! A5    A(1,2,5)              120.9414         estimate D2E/DX2                !
 ! A6    A(3,2,5)              131.0019         estimate D2E/DX2                !
 ! A7    A(2,3,4)              108.1865         estimate D2E/DX2                !
 ! A8    A(2,3,6)              131.0165         estimate D2E/DX2                !
 ! A9    A(4,3,6)              120.7967         estimate D2E/DX2                !
 ! A10   A(3,4,11)             106.7562         estimate D2E/DX2                !
 ! A11   A(3,4,12)             128.0267         estimate D2E/DX2                !
 ! A12   A(11,4,12)            125.217          estimate D2E/DX2                !
 ! A13   A(8,7,9)              109.6654         estimate D2E/DX2                !
 ! A14   A(8,7,10)             109.4927         estimate D2E/DX2                !
 ! A15   A(8,7,11)             107.5995         estimate D2E/DX2                !
 ! A16   A(9,7,10)             109.3457         estimate D2E/DX2                !
 ! A17   A(9,7,11)             110.0761         estimate D2E/DX2                !
 ! A18   A(10,7,11)            110.6372         estimate D2E/DX2                !
 ! A19   A(1,11,4)             110.1043         estimate D2E/DX2                !
 ! A20   A(1,11,7)             124.4885         estimate D2E/DX2                !
 ! A21   A(4,11,7)             125.4071         estimate D2E/DX2                !
 ! A22   A(4,12,16)            108.0702         estimate D2E/DX2                !
 ! A23   A(1,13,18)            107.7892         estimate D2E/DX2                !
 ! A24   A(15,14,16)           102.8984         estimate D2E/DX2                !
 ! A25   A(12,16,14)           158.3087         estimate D2E/DX2                !
 ! A26   A(18,17,19)           102.8919         estimate D2E/DX2                !
 ! A27   A(13,18,17)           158.2931         estimate D2E/DX2                !
 ! D1    D(11,1,2,3)            -0.0594         estimate D2E/DX2                !
 ! D2    D(11,1,2,5)           179.8081         estimate D2E/DX2                !
 ! D3    D(13,1,2,3)          -179.9487         estimate D2E/DX2                !
 ! D4    D(13,1,2,5)            -0.0812         estimate D2E/DX2                !
 ! D5    D(2,1,11,4)             0.1217         estimate D2E/DX2                !
 ! D6    D(2,1,11,7)          -179.9234         estimate D2E/DX2                !
 ! D7    D(13,1,11,4)         -179.9839         estimate D2E/DX2                !
 ! D8    D(13,1,11,7)           -0.029          estimate D2E/DX2                !
 ! D9    D(2,1,13,18)           -1.4285         estimate D2E/DX2                !
 ! D10   D(11,1,13,18)         178.7003         estimate D2E/DX2                !
 ! D11   D(1,2,3,4)             -0.0212         estimate D2E/DX2                !
 ! D12   D(1,2,3,6)            179.8015         estimate D2E/DX2                !
 ! D13   D(5,2,3,4)           -179.8706         estimate D2E/DX2                !
 ! D14   D(5,2,3,6)             -0.0479         estimate D2E/DX2                !
 ! D15   D(2,3,4,11)             0.0947         estimate D2E/DX2                !
 ! D16   D(2,3,4,12)          -179.9972         estimate D2E/DX2                !
 ! D17   D(6,3,4,11)          -179.7495         estimate D2E/DX2                !
 ! D18   D(6,3,4,12)             0.1586         estimate D2E/DX2                !
 ! D19   D(3,4,11,1)            -0.1339         estimate D2E/DX2                !
 ! D20   D(3,4,11,7)           179.9117         estimate D2E/DX2                !
 ! D21   D(12,4,11,1)          179.9547         estimate D2E/DX2                !
 ! D22   D(12,4,11,7)            0.0003         estimate D2E/DX2                !
 ! D23   D(3,4,12,16)            1.0318         estimate D2E/DX2                !
 ! D24   D(11,4,12,16)        -179.0758         estimate D2E/DX2                !
 ! D25   D(8,7,11,1)          -174.6866         estimate D2E/DX2                !
 ! D26   D(8,7,11,4)             5.2614         estimate D2E/DX2                !
 ! D27   D(9,7,11,1)           -55.2261         estimate D2E/DX2                !
 ! D28   D(9,7,11,4)           124.722          estimate D2E/DX2                !
 ! D29   D(10,7,11,1)           65.7397         estimate D2E/DX2                !
 ! D30   D(10,7,11,4)         -114.3123         estimate D2E/DX2                !
 ! D31   D(4,12,16,14)          14.7584         estimate D2E/DX2                !
 ! D32   D(1,13,18,17)         -14.9911         estimate D2E/DX2                !
 ! D33   D(15,14,16,12)         74.4225         estimate D2E/DX2                !
 ! D34   D(19,17,18,13)        -73.9055         estimate D2E/DX2                !
 --------------------------------------------------------------------------------
 Trust Radius=3.00D-01 FncErr=1.00D-07 GrdErr=1.00D-06
 Number of steps in this run=     90 maximum allowed number of steps=    114.
 GradGradGradGradGradGradGradGradGradGradGradGradGradGradGradGradGradGrad

                          Input orientation:                          
 ---------------------------------------------------------------------
 Center     Atomic      Atomic             Coordinates (Angstroms)
 Number     Number       Type             X           Y           Z
 ---------------------------------------------------------------------
      1          6           0        1.134836    0.351190   -0.043459
      2          6           0        0.661947   -1.075491   -0.117338
      3          6           0       -0.671586   -1.069579   -0.114990
      4          6           0       -1.134900    0.360496   -0.038973
      5          1           0        1.372458   -1.898991   -0.163648
      6          1           0       -1.389782   -1.886575   -0.159463
      7          6           0        0.022544    2.593097    0.072048
      8          1           0       -1.012742    2.931983    0.187467
      9          1           0        0.616106    2.918837    0.935406
     10          1           0        0.448279    3.021773   -0.844534
     11          7           0        0.004282    1.147946   -0.001441
     12          8           0       -2.269250    0.774922   -0.015369
     13          8           0        2.269956    0.764734   -0.024419
     14          8           0       -3.761162   -1.687866   -0.000250
     15          1           0       -3.762225   -1.851055    0.950815
     16          1           0       -3.477323   -0.761612   -0.060841
     17          8           0        3.746373   -1.705313    0.005699
     18          1           0        3.467833   -0.777857   -0.061934
     19          1           0        3.743039   -1.862226    0.957812
 ---------------------------------------------------------------------
                    Distance matrix (angstroms):
                    1          2          3          4          5
     1  C    0.000000
     2  C    1.504826   0.000000
     3  C    2.299318   1.333548   0.000000
     4  C    2.269760   2.301491   1.505175   0.000000
     5  H    2.265883   1.088633   2.206447   3.377524   0.000000
     6  H    3.375610   2.206632   1.088699   2.264688   2.762271
     7  C    2.505331   3.728705   3.732559   2.517242   4.696453
     8  H    3.365399   4.354002   4.027452   2.584326   5.399145
     9  H    2.796439   4.130984   4.320757   3.249699   4.999145
    10  H    2.871427   4.166778   4.304125   3.199653   5.052883
    11  N    1.383741   2.321557   2.321014   1.385360   3.343956
    12  O    3.430472   3.467902   2.442261   1.207914   4.520380
    13  O    1.208254   2.445558   3.467791   3.428799   2.814306
    14  O    5.303811   4.466834   3.152923   3.330847   5.140557
    15  H    5.460739   4.616898   3.361353   3.574000   5.254455
    16  H    4.744538   4.151538   2.823107   2.597412   4.982427
    17  O    3.324417   3.150476   4.465096   5.300603   2.387815
    18  H    2.591903   2.822171   4.150025   4.741469   2.378631
    19  H    3.564334   3.356788   4.611736   5.452372   2.622723
                    6          7          8          9         10
     6  H    0.000000
     7  C    4.702736   0.000000
     8  H    4.845722   1.095437   0.000000
     9  H    5.321119   1.097182   1.792409   0.000000
    10  H    5.285799   1.097787   1.790997   1.790795   0.000000
    11  N    3.343158   1.447134   2.062235   2.094771   2.102181
    12  O    2.806741   2.926725   2.504569   3.718282   3.622267
    13  O    4.521212   2.898806   3.939285   2.880389   3.014187
    14  O    2.385011   5.713869   5.378853   6.423211   6.372826
    15  H    2.619631   5.903151   5.569543   6.474712   6.685512
    16  H    2.373414   4.849825   4.447298   5.594137   5.508042
    17  O    5.142006   5.687498   6.647310   5.660891   5.826291
    18  H    4.983492   4.821960   5.822428   4.774158   4.916031
    19  H    5.253070   5.871675   6.796714   5.712861   6.160953
                   11         12         13         14         15
    11  N    0.000000
    12  O    2.303972   0.000000
    13  O    2.297968   4.539226   0.000000
    14  O    4.713852   2.879471   6.510777   0.000000
    15  H    4.907889   3.171473   6.646852   0.964964   0.000000
    16  H    3.971336   1.955107   5.946619   0.970661   1.513771
    17  O    4.705782   6.506899   2.877820   7.507558   7.569249
    18  H    3.963403   5.943687   1.953434   7.286308   7.379102
    19  H    4.894855   6.636961   3.167913   7.567121   7.505276
                   16         17         18         19
    16  H    0.000000
    17  O    7.285381   0.000000
    18  H    6.945175   0.970739   0.000000
    19  H    7.374458   0.964962   1.513762   0.000000
 Stoichiometry    C5H9NO4
 Framework group  C1[X(C5H9NO4)]
 Deg. of freedom    51
 Full point group                 C1      NOp   1
 Largest Abelian subgroup         C1      NOp   1
 Largest concise Abelian subgroup C1      NOp   1
                         Standard orientation:                         
 ---------------------------------------------------------------------
 Center     Atomic      Atomic             Coordinates (Angstroms)
 Number     Number       Type             X           Y           Z
 ---------------------------------------------------------------------
      1          6           0        1.134836    0.351190   -0.043459
      2          6           0        0.661947   -1.075491   -0.117338
      3          6           0       -0.671586   -1.069579   -0.114990
      4          6           0       -1.134900    0.360496   -0.038973
      5          1           0        1.372458   -1.898991   -0.163648
      6          1           0       -1.389782   -1.886575   -0.159463
      7          6           0        0.022544    2.593097    0.072048
      8          1           0       -1.012742    2.931983    0.187467
      9          1           0        0.616106    2.918837    0.935406
     10          1           0        0.448279    3.021773   -0.844534
     11          7           0        0.004282    1.147946   -0.001441
     12          8           0       -2.269250    0.774922   -0.015369
     13          8           0        2.269956    0.764734   -0.024419
     14          8           0       -3.761162   -1.687866   -0.000250
     15          1           0       -3.762225   -1.851055    0.950815
     16          1           0       -3.477323   -0.761612   -0.060841
     17          8           0        3.746373   -1.705313    0.005699
     18          1           0        3.467833   -0.777857   -0.061934
     19          1           0        3.743039   -1.862226    0.957812
 ---------------------------------------------------------------------
 Rotational constants (GHZ):      1.7633534      0.7026717      0.5064160
 Standard basis: def2SVP (5D, 7F)
 There are   195 symmetry adapted cartesian basis functions of A   symmetry.
 There are   185 symmetry adapted basis functions of A   symmetry.
   185 basis functions,   313 primitive gaussians,   195 cartesian basis functions
    39 alpha electrons       39 beta electrons
       nuclear repulsion energy       530.0274873934 Hartrees.
 NAtoms=   19 NActive=   19 NUniq=   19 SFac= 1.00D+00 NAtFMM=   60 NAOKFM=F Big=F
 Integral buffers will be    131072 words long.
 Raffenetti 2 integral format.
 Two-electron integral symmetry is turned on.
 Nuclear repulsion after empirical dispersion term =      530.0268963077 Hartrees.
 ------------------------------------------------------------------------------
 Polarizable Continuum Model (PCM)
 =================================
 Model                : C-PCM.
 Atomic radii         : UFF (Universal Force Field).
 Polarization charges : Total charges.
 Charge compensation  : None.
 Solution method      : On-the-fly selection.
 Cavity type          : Scaled VdW (van der Waals Surface) (Alpha=1.100).
 Cavity algorithm     : GePol (No added spheres)
                        Default sphere list used, NSphG=   19.
                        Lebedev-Laikov grids with approx.  5.0 points / Ang**2.
                        Smoothing algorithm: Karplus/York (Gamma=1.0000).
                        Polarization charges: spherical gaussians, with
                                              point-specific exponents (IZeta= 3).
                        Self-potential: point-specific (ISelfS= 7).
                        Self-field    : sphere-specific E.n sum rule (ISelfD= 2).
 1st derivatives      : Analytical E(r).r(x)/FMM algorithm (CHGder, D1EAlg=3).
                        Cavity 1st derivative terms included.
 Solvent              : Water, Eps=  78.355300 Eps(inf)=   1.777849
 ------------------------------------------------------------------------------
 Spheres list:
 ISph  on   Nord     Re0    Alpha      Xe            Ye            Ze
    1   C      1    1.9255  1.100      1.134836      0.351190     -0.043459
    2   C      2    1.9255  1.100      0.661947     -1.075491     -0.117338
    3   C      3    1.9255  1.100     -0.671586     -1.069579     -0.114990
    4   C      4    1.9255  1.100     -1.134900      0.360496     -0.038973
    5   H      5    1.4430  1.100      1.372458     -1.898991     -0.163648
    6   H      6    1.4430  1.100     -1.389782     -1.886575     -0.159463
    7   C      7    1.9255  1.100      0.022544      2.593097      0.072048
    8   H      8    1.4430  1.100     -1.012742      2.931983      0.187467
    9   H      9    1.4430  1.100      0.616106      2.918837      0.935406
   10   H     10    1.4430  1.100      0.448279      3.021773     -0.844534
   11   N     11    1.8300  1.100      0.004282      1.147946     -0.001441
   12   O     12    1.7500  1.100     -2.269250      0.774922     -0.015369
   13   O     13    1.7500  1.100      2.269956      0.764734     -0.024419
   14   O     14    1.7500  1.100     -3.761162     -1.687866     -0.000250
   15   H     15    1.4430  1.100     -3.762225     -1.851055      0.950815
   16   H     16    1.4430  1.100     -3.477323     -0.761612     -0.060841
   17   O     17    1.7500  1.100      3.746373     -1.705313      0.005699
   18   H     18    1.4430  1.100      3.467833     -0.777857     -0.061934
   19   H     19    1.4430  1.100      3.743039     -1.862226      0.957812
 ------------------------------------------------------------------------------
 One-electron integrals computed using PRISM.
   1 Symmetry operations used in ECPInt.
 ECPInt:  NShTT=    3828 NPrTT=   13852 LenC2=    3646 LenP2D=    9982.
 LDataN:  DoStor=T MaxTD1= 4 Len=   56
 NBasis=   185 RedAO= T EigKep=  6.83D-04  NBF=   185
 NBsUse=   185 1.00D-06 EigRej= -1.00D+00 NBFU=   185
 ExpMin= 1.22D-01 ExpMax= 2.27D+03 ExpMxC= 3.41D+02 IAcc=1 IRadAn=         1 AccDes= 0.00D+00
 Harris functional with IExCor= 1009 and IRadAn=       1 diagonalized for initial guess.
 HarFok:  IExCor= 1009 AccDes= 0.00D+00 IRadAn=         1 IDoV= 1 UseB2=F ITyADJ=14
 ICtDFT=  3500011 ScaDFX=  1.000000  1.000000  1.000000  1.000000
 FoFCou: FMM=F IPFlag=           0 FMFlag=      100000 FMFlg1=           0
         NFxFlg=           0 DoJE=T BraDBF=F KetDBF=T FulRan=T
         wScrn=  0.000000 ICntrl=     500 IOpCl=  0 I1Cent=   200000004 NGrid=           0
         NMat0=    1 NMatS0=      1 NMatT0=    0 NMatD0=    1 NMtDS0=    0 NMtDT0=    0
 Petite list used in FoFCou.
 Requested convergence on RMS density matrix=1.00D-08 within 128 cycles.
 Requested convergence on MAX density matrix=1.00D-06.
 Requested convergence on             energy=1.00D-06.
 No special actions if energy rises.
 Inv3:  Mode=1 IEnd=     8885523.
 Iteration    1 A*A^-1 deviation from unit magnitude is 5.55D-15 for   1720.
 Iteration    1 A*A^-1 deviation from orthogonality  is 2.42D-15 for   1710   1649.
 Iteration    1 A^-1*A deviation from unit magnitude is 5.77D-15 for   1720.
 Iteration    1 A^-1*A deviation from orthogonality  is 2.46D-15 for   1715   1274.
 Error on total polarization charges =  0.00554
 SCF Done:  E(RM062X) =  -550.978377209     A.U. after   13 cycles
            NFock= 13  Conv=0.23D-08     -V/T= 2.0085

 **********************************************************************

            Population analysis using the SCF density.

 **********************************************************************

 Orbital symmetries:
       Occupied  (A) (A) (A) (A) (A) (A) (A) (A) (A) (A) (A) (A)
                 (A) (A) (A) (A) (A) (A) (A) (A) (A) (A) (A) (A)
                 (A) (A) (A) (A) (A) (A) (A) (A) (A) (A) (A) (A)
                 (A) (A) (A)
       Virtual   (A) (A) (A) (A) (A) (A) (A) (A) (A) (A) (A) (A)
                 (A) (A) (A) (A) (A) (A) (A) (A) (A) (A) (A) (A)
                 (A) (A) (A) (A) (A) (A) (A) (A) (A) (A) (A) (A)
                 (A) (A) (A) (A) (A) (A) (A) (A) (A) (A) (A) (A)
                 (A) (A) (A) (A) (A) (A) (A) (A) (A) (A) (A) (A)
                 (A) (A) (A) (A) (A) (A) (A) (A) (A) (A) (A) (A)
                 (A) (A) (A) (A) (A) (A) (A) (A) (A) (A) (A) (A)
                 (A) (A) (A) (A) (A) (A) (A) (A) (A) (A) (A) (A)
                 (A) (A) (A) (A) (A) (A) (A) (A) (A) (A) (A) (A)
                 (A) (A) (A) (A) (A) (A) (A) (A) (A) (A) (A) (A)
                 (A) (A) (A) (A) (A) (A) (A) (A) (A) (A) (A) (A)
                 (A) (A) (A) (A) (A) (A) (A) (A) (A) (A) (A) (A)
                 (A) (A)
 The electronic state is 1-A.
 Alpha  occ. eigenvalues --  -19.65662 -19.65624 -19.61338 -19.61323 -14.81838
 Alpha  occ. eigenvalues --  -10.69748 -10.69619 -10.59875 -10.59362 -10.59262
 Alpha  occ. eigenvalues --   -1.20744  -1.18870  -1.09339  -1.09269  -1.08006
 Alpha  occ. eigenvalues --   -0.93184  -0.80451  -0.77016  -0.70516  -0.64112
 Alpha  occ. eigenvalues --   -0.59771  -0.58656  -0.58471  -0.58324  -0.55851
 Alpha  occ. eigenvalues --   -0.53470  -0.52812  -0.50980  -0.49635  -0.49069
 Alpha  occ. eigenvalues --   -0.47317  -0.45492  -0.45382  -0.39266  -0.38360
 Alpha  occ. eigenvalues --   -0.37885  -0.37465  -0.35798  -0.34451
 Alpha virt. eigenvalues --   -0.06651   0.09417   0.10152   0.10939   0.11701
 Alpha virt. eigenvalues --    0.11831   0.15676   0.16728   0.18668   0.19263
 Alpha virt. eigenvalues --    0.20294   0.21158   0.21960   0.24553   0.28455
 Alpha virt. eigenvalues --    0.29059   0.30981   0.37368   0.40295   0.41088
 Alpha virt. eigenvalues --    0.44277   0.44973   0.48103   0.49205   0.49987
 Alpha virt. eigenvalues --    0.51288   0.56046   0.59426   0.60771   0.60967
 Alpha virt. eigenvalues --    0.62165   0.65088   0.65218   0.66378   0.68933
 Alpha virt. eigenvalues --    0.69679   0.70516   0.70948   0.71960   0.72190
 Alpha virt. eigenvalues --    0.74289   0.74565   0.75411   0.77169   0.80877
 Alpha virt. eigenvalues --    0.82759   0.84658   0.91605   0.95873   0.98173
 Alpha virt. eigenvalues --    1.00038   1.00785   1.06175   1.07543   1.08442
 Alpha virt. eigenvalues --    1.08658   1.12876   1.13970   1.14604   1.18193
 Alpha virt. eigenvalues --    1.19873   1.22118   1.24873   1.25587   1.26976
 Alpha virt. eigenvalues --    1.28398   1.32358   1.33796   1.35029   1.38441
 Alpha virt. eigenvalues --    1.42994   1.45414   1.46162   1.48312   1.50261
 Alpha virt. eigenvalues --    1.53782   1.54780   1.56246   1.57364   1.61828
 Alpha virt. eigenvalues --    1.62716   1.63461   1.66667   1.72013   1.74996
 Alpha virt. eigenvalues --    1.75779   1.78966   1.80903   1.81614   1.83094
 Alpha virt. eigenvalues --    1.84365   1.84422   1.86821   1.90405   1.95936
 Alpha virt. eigenvalues --    1.99701   2.00652   2.05018   2.07726   2.09931
 Alpha virt. eigenvalues --    2.11602   2.17696   2.20581   2.25262   2.29754
 Alpha virt. eigenvalues --    2.29921   2.31521   2.38611   2.39480   2.40004
 Alpha virt. eigenvalues --    2.41537   2.42305   2.44903   2.46996   2.53113
 Alpha virt. eigenvalues --    2.61534   2.65220   2.67934   2.71450   2.74730
 Alpha virt. eigenvalues --    2.75317   2.79418   2.80377   2.83961   2.85338
 Alpha virt. eigenvalues --    2.92986   2.95336   3.02322   3.03364   3.04202
 Alpha virt. eigenvalues --    3.07032   3.07826   3.18307   3.21900   3.22217
 Alpha virt. eigenvalues --    3.25094   3.25125   3.37332   3.43370   3.55160
 Alpha virt. eigenvalues --    3.55739   3.60988   3.69224   3.70965   3.87701
 Alpha virt. eigenvalues --    3.87892
          Condensed to atoms (all electrons):
               1          2          3          4          5          6
     1  C    4.638822   0.242607   0.036109  -0.122550  -0.051265   0.008906
     2  C    0.242607   5.360895   0.232914   0.028004   0.404120  -0.037963
     3  C    0.036109   0.232914   5.379781   0.236132  -0.038427   0.403083
     4  C   -0.122550   0.028004   0.236132   4.641378   0.008947  -0.050904
     5  H   -0.051265   0.404120  -0.038427   0.008947   0.586224  -0.006189
     6  H    0.008906  -0.037963   0.403083  -0.050904  -0.006189   0.586295
     7  C   -0.018498   0.009598   0.007707  -0.023735  -0.000090  -0.000048
     8  H    0.005635  -0.001035   0.003267  -0.006499   0.000009  -0.000005
     9  H   -0.004414   0.001169  -0.000718   0.002855   0.000003   0.000004
    10  H   -0.003798   0.000678  -0.000595   0.001655   0.000006   0.000005
    11  N    0.303987  -0.115127  -0.120140   0.314773   0.004855   0.004788
    12  O    0.000449   0.004923  -0.077541   0.668034  -0.000054  -0.002503
    13  O    0.670678  -0.076389   0.004527   0.000436  -0.002327  -0.000057
    14  O   -0.000014   0.001201  -0.010389  -0.002124  -0.000007   0.049197
    15  H    0.000003  -0.000086   0.000867   0.000945   0.000002  -0.002058
    16  H    0.000016  -0.000058  -0.001054  -0.002752   0.000002  -0.008425
    17  O   -0.002089  -0.010054   0.001216  -0.000015   0.048720  -0.000007
    18  H   -0.002859  -0.001215  -0.000069   0.000015  -0.008290   0.000002
    19  H    0.000975   0.000876  -0.000094   0.000004  -0.002075   0.000002
               7          8          9         10         11         12
     1  C   -0.018498   0.005635  -0.004414  -0.003798   0.303987   0.000449
     2  C    0.009598  -0.001035   0.001169   0.000678  -0.115127   0.004923
     3  C    0.007707   0.003267  -0.000718  -0.000595  -0.120140  -0.077541
     4  C   -0.023735  -0.006499   0.002855   0.001655   0.314773   0.668034
     5  H   -0.000090   0.000009   0.000003   0.000006   0.004855  -0.000054
     6  H   -0.000048  -0.000005   0.000004   0.000005   0.004788  -0.002503
     7  C    4.483972   0.400589   0.409698   0.412306   0.246105  -0.003448
     8  H    0.400589   0.564769  -0.016912  -0.018505  -0.024523   0.014175
     9  H    0.409698  -0.016912   0.574708  -0.023792  -0.026118   0.000140
    10  H    0.412306  -0.018505  -0.023792   0.573917  -0.026289   0.000098
    11  N    0.246105  -0.024523  -0.026118  -0.026289   7.008395  -0.088583
    12  O   -0.003448   0.014175   0.000140   0.000098  -0.088583   7.725900
    13  O    0.008759   0.000229   0.002142   0.000870  -0.093024  -0.000012
    14  O    0.000000   0.000002   0.000000   0.000000   0.000015  -0.011191
    15  H    0.000000  -0.000001   0.000000   0.000000   0.000006   0.000681
    16  H   -0.000028  -0.000055   0.000002   0.000003   0.000803   0.038384
    17  O    0.000001   0.000000   0.000000   0.000000   0.000015   0.000000
    18  H   -0.000062   0.000002  -0.000018  -0.000002   0.000836   0.000000
    19  H   -0.000001   0.000000   0.000001   0.000000   0.000006   0.000000
              13         14         15         16         17         18
     1  C    0.670678  -0.000014   0.000003   0.000016  -0.002089  -0.002859
     2  C   -0.076389   0.001201  -0.000086  -0.000058  -0.010054  -0.001215
     3  C    0.004527  -0.010389   0.000867  -0.001054   0.001216  -0.000069
     4  C    0.000436  -0.002124   0.000945  -0.002752  -0.000015   0.000015
     5  H   -0.002327  -0.000007   0.000002   0.000002   0.048720  -0.008290
     6  H   -0.000057   0.049197  -0.002058  -0.008425  -0.000007   0.000002
     7  C    0.008759   0.000000   0.000000  -0.000028   0.000001  -0.000062
     8  H    0.000229   0.000002  -0.000001  -0.000055   0.000000   0.000002
     9  H    0.002142   0.000000   0.000000   0.000002   0.000000  -0.000018
    10  H    0.000870   0.000000   0.000000   0.000003   0.000000  -0.000002
    11  N   -0.093024   0.000015   0.000006   0.000803   0.000015   0.000836
    12  O   -0.000012  -0.011191   0.000681   0.038384   0.000000   0.000000
    13  O    7.727970   0.000000   0.000000   0.000000  -0.011349   0.038707
    14  O    0.000000   7.669151   0.334138   0.341454   0.000000   0.000000
    15  H    0.000000   0.334138   0.504974  -0.029185   0.000000   0.000000
    16  H    0.000000   0.341454  -0.029185   0.474617   0.000000   0.000000
    17  O   -0.011349   0.000000   0.000000   0.000000   7.669741   0.341375
    18  H    0.038707   0.000000   0.000000   0.000000   0.341375   0.474685
    19  H    0.000679   0.000000   0.000000   0.000000   0.334200  -0.029299
              19
     1  C    0.000975
     2  C    0.000876
     3  C   -0.000094
     4  C    0.000004
     5  H   -0.002075
     6  H    0.000002
     7  C   -0.000001
     8  H    0.000000
     9  H    0.000001
    10  H    0.000000
    11  N    0.000006
    12  O    0.000000
    13  O    0.000679
    14  O    0.000000
    15  H    0.000000
    16  H    0.000000
    17  O    0.334200
    18  H   -0.029299
    19  H    0.505144
 Mulliken charges:
               1
     1  C    0.297300
     2  C   -0.045058
     3  C   -0.056576
     4  C    0.305400
     5  H    0.055835
     6  H    0.055876
     7  C    0.067175
     8  H    0.078857
     9  H    0.081248
    10  H    0.083444
    11  N   -0.390781
    12  O   -0.269452
    13  O   -0.271841
    14  O   -0.371435
    15  H    0.189714
    16  H    0.186276
    17  O   -0.371755
    18  H    0.186192
    19  H    0.189581
 Sum of Mulliken charges =   0.00000
 Mulliken charges with hydrogens summed into heavy atoms:
               1
     1  C    0.297300
     2  C    0.010777
     3  C   -0.000701
     4  C    0.305400
     7  C    0.310725
    11  N   -0.390781
    12  O   -0.269452
    13  O   -0.271841
    14  O    0.004556
    17  O    0.004018
 Electronic spatial extent (au):  <R**2>=           2115.9500
 Charge=              0.0000 electrons
 Dipole moment (field-independent basis, Debye):
    X=             -0.0376    Y=              1.9030    Z=              3.2511  Tot=              3.7673
 Quadrupole moment (field-independent basis, Debye-Ang):
   XX=            -83.1856   YY=            -56.7279   ZZ=            -54.6632
   XY=              0.0316   XZ=             -0.0448   YZ=             -6.2472
 Traceless Quadrupole moment (field-independent basis, Debye-Ang):
   XX=            -18.3267   YY=              8.1310   ZZ=             10.1957
   XY=              0.0316   XZ=             -0.0448   YZ=             -6.2472
 Octapole moment (field-independent basis, Debye-Ang**2):
  XXX=             -0.7319  YYY=             19.0894  ZZZ=              5.7726  XYY=             -0.4685
  XXY=             26.7459  XXZ=             48.5203  XZZ=              0.7253  YZZ=             -5.0540
  YYZ=             13.8860  XYZ=              0.0621
 Hexadecapole moment (field-independent basis, Debye-Ang**3):
 XXXX=          -2025.2405 YYYY=           -718.8059 ZZZZ=            -59.7181 XXXY=             -1.1042
 XXXZ=             -1.9134 YYYX=              0.6521 YYYZ=            -27.2641 ZZZX=              0.2811
 ZZZY=            -11.1793 XXYY=           -493.9381 XXZZ=           -231.2701 YYZZ=           -124.8502
 XXYZ=            -96.0240 YYXZ=             -0.1353 ZZXY=              1.7823
 N-N= 5.300268963077D+02 E-N=-2.349135813879D+03  KE= 5.463250872318D+02
   1 Symmetry operations used in ECPInt.
 ECPInt:  NShTT=    3828 NPrTT=   13852 LenC2=    3646 LenP2D=    9982.
 LDataN:  DoStor=T MaxTD1= 5 Len=  102
 D1PCM: C-PCM CHGder 1st derivatives, ID1Alg=3 FixD1E=F DoIter=F DoCFld=F I1PDM=0.
 Calling FoFJK, ICntrl=      2127 FMM=F ISym2X=0 I1Cent= 0 IOpClX= 0 NMat=1 NMatS=1 NMatT=0.
 ***** Axes restored to original set *****
 -------------------------------------------------------------------
 Center     Atomic                   Forces (Hartrees/Bohr)
 Number     Number              X              Y              Z
 -------------------------------------------------------------------
      1        6           0.000001970   -0.000000291    0.000000360
      2        6           0.000008073   -0.000021266   -0.000000325
      3        6          -0.000011641   -0.000018896   -0.000006424
      4        6          -0.000005023   -0.000003683    0.000008922
      5        1          -0.000010706    0.000003300   -0.000002333
      6        1           0.000009263    0.000003078    0.000002592
      7        6          -0.000000052   -0.000019425    0.000005866
      8        1          -0.000007447    0.000004059    0.000000807
      9        1           0.000009465    0.000009654    0.000005499
     10        1           0.000007141    0.000011655   -0.000002793
     11        7           0.000004997    0.000012473   -0.000009547
     12        8          -0.000013536    0.000000981   -0.000008943
     13        8           0.000004813    0.000001155    0.000002716
     14        8           0.000003826    0.000005879   -0.000000576
     15        1           0.000002992   -0.000000887    0.000004503
     16        1           0.000002069    0.000005634    0.000006838
     17        8          -0.000009654    0.000001181   -0.000004285
     18        1           0.000006059    0.000006578   -0.000004785
     19        1          -0.000002608   -0.000001179    0.000001908
 -------------------------------------------------------------------
 Cartesian Forces:  Max     0.000021266 RMS     0.000007559

 GradGradGradGradGradGradGradGradGradGradGradGradGradGradGradGradGradGrad
 Berny optimization.
 FormGI is forming the generalized inverse of G from B-inverse, IUseBI=4.
 Internal  Forces:  Max     0.000021615 RMS     0.000007161
 Search for a local minimum.
 Step number   1 out of a maximum of   90
 All quantities printed in internal units (Hartrees-Bohrs-Radians)
 Mixed Optimization -- En-DIIS/RFO-DIIS
 Second derivative matrix not updated -- first step.
 ITU=  0
     Eigenvalues ---    0.00230   0.00230   0.01068   0.01225   0.01378
     Eigenvalues ---    0.01415   0.01416   0.01608   0.01935   0.02011
     Eigenvalues ---    0.02042   0.02379   0.04228   0.04233   0.04643
     Eigenvalues ---    0.04656   0.07551   0.07861   0.16000   0.16000
     Eigenvalues ---    0.16000   0.16000   0.16000   0.16000   0.16000
     Eigenvalues ---    0.16000   0.16000   0.22725   0.24801   0.25000
     Eigenvalues ---    0.25000   0.25000   0.25000   0.25000   0.30497
     Eigenvalues ---    0.31665   0.33928   0.33996   0.34192   0.34963
     Eigenvalues ---    0.34971   0.38623   0.44697   0.46932   0.53226
     Eigenvalues ---    0.53242   0.54419   0.54420   0.56457   1.00783
     Eigenvalues ---    1.00945
 RFO step:  Lambda=-5.43809240D-08 EMin= 2.30000000D-03
 Linear search not attempted -- first point.
 Iteration  1 RMS(Cart)=  0.00085874 RMS(Int)=  0.00000085
 Iteration  2 RMS(Cart)=  0.00000087 RMS(Int)=  0.00000000
 Variable       Old X    -DE/DX   Delta X   Delta X   Delta X     New X
                                 (Linear)    (Quad)   (Total)
    R1        2.84371   0.00002   0.00000   0.00005   0.00005   2.84376
    R2        2.61489   0.00000   0.00000   0.00000   0.00000   2.61490
    R3        2.28327   0.00000   0.00000   0.00000   0.00000   2.28327
    R4        2.52004   0.00000   0.00000   0.00000   0.00000   2.52004
    R5        2.05722  -0.00001   0.00000  -0.00003  -0.00003   2.05719
    R6        2.84437   0.00002   0.00000   0.00005   0.00005   2.84442
    R7        2.05734  -0.00001   0.00000  -0.00002  -0.00002   2.05732
    R8        2.61795   0.00001   0.00000   0.00003   0.00003   2.61798
    R9        2.28263   0.00001   0.00000   0.00001   0.00001   2.28263
   R10        2.07008   0.00001   0.00000   0.00003   0.00003   2.07010
   R11        2.07337   0.00001   0.00000   0.00003   0.00003   2.07341
   R12        2.07452   0.00001   0.00000   0.00003   0.00003   2.07455
   R13        2.73469   0.00001   0.00000   0.00002   0.00002   2.73470
   R14        3.69462  -0.00001   0.00000  -0.00027  -0.00027   3.69435
   R15        3.69145  -0.00001   0.00000  -0.00023  -0.00023   3.69122
   R16        1.82352   0.00000   0.00000   0.00001   0.00001   1.82352
   R17        1.83428  -0.00001   0.00000  -0.00001  -0.00001   1.83427
   R18        1.83443  -0.00001   0.00000  -0.00001  -0.00001   1.83442
   R19        1.82351   0.00000   0.00000   0.00001   0.00001   1.82352
    A1        1.86569   0.00000   0.00000   0.00002   0.00002   1.86571
    A2        2.24017   0.00000   0.00000   0.00001   0.00001   2.24018
    A3        2.17733  -0.00001   0.00000  -0.00003  -0.00003   2.17729
    A4        1.88594   0.00000   0.00000  -0.00001  -0.00001   1.88594
    A5        2.11083   0.00001   0.00000   0.00004   0.00004   2.11086
    A6        2.28641  -0.00001   0.00000  -0.00003  -0.00003   2.28638
    A7        1.88821   0.00000   0.00000  -0.00001  -0.00001   1.88821
    A8        2.28667  -0.00001   0.00000  -0.00003  -0.00003   2.28664
    A9        2.10830   0.00001   0.00000   0.00004   0.00004   2.10834
   A10        1.86325   0.00000   0.00000   0.00001   0.00001   1.86326
   A11        2.23449   0.00000   0.00000  -0.00002  -0.00002   2.23447
   A12        2.18545   0.00000   0.00000   0.00001   0.00001   2.18546
   A13        1.91402   0.00000   0.00000  -0.00001  -0.00001   1.91401
   A14        1.91101   0.00000   0.00000  -0.00002  -0.00002   1.91099
   A15        1.87797   0.00000   0.00000   0.00000   0.00000   1.87797
   A16        1.90844  -0.00001   0.00000  -0.00008  -0.00008   1.90836
   A17        1.92119   0.00001   0.00000   0.00004   0.00004   1.92123
   A18        1.93098   0.00001   0.00000   0.00006   0.00006   1.93105
   A19        1.92168  -0.00001   0.00000  -0.00002  -0.00002   1.92166
   A20        2.17273   0.00000   0.00000  -0.00001  -0.00001   2.17273
   A21        2.18877   0.00001   0.00000   0.00003   0.00003   2.18879
   A22        1.88618  -0.00002   0.00000  -0.00013  -0.00013   1.88605
   A23        1.88128  -0.00001   0.00000  -0.00009  -0.00009   1.88119
   A24        1.79592   0.00000   0.00000   0.00000   0.00000   1.79592
   A25        2.76301  -0.00001   0.00000  -0.00005  -0.00005   2.76296
   A26        1.79580   0.00000   0.00000  -0.00002  -0.00002   1.79579
   A27        2.76274  -0.00002   0.00000  -0.00009  -0.00009   2.76265
    D1       -0.00104   0.00000   0.00000  -0.00010  -0.00010  -0.00114
    D2        3.13824   0.00000   0.00000  -0.00005  -0.00005   3.13819
    D3       -3.14070   0.00000   0.00000  -0.00021  -0.00021  -3.14090
    D4       -0.00142   0.00000   0.00000  -0.00016  -0.00016  -0.00158
    D5        0.00212   0.00000   0.00000   0.00011   0.00011   0.00224
    D6       -3.14026   0.00000   0.00000  -0.00017  -0.00017  -3.14043
    D7       -3.14131   0.00000   0.00000   0.00021   0.00021  -3.14110
    D8       -0.00051   0.00000   0.00000  -0.00007  -0.00007  -0.00058
    D9       -0.02493   0.00000   0.00000   0.00001   0.00001  -0.02493
   D10        3.11891   0.00000   0.00000  -0.00012  -0.00012   3.11879
   D11       -0.00037   0.00000   0.00000   0.00005   0.00005  -0.00032
   D12        3.13813   0.00000   0.00000   0.00009   0.00009   3.13822
   D13       -3.13933   0.00000   0.00000  -0.00001  -0.00001  -3.13934
   D14       -0.00084   0.00000   0.00000   0.00004   0.00004  -0.00080
   D15        0.00165   0.00000   0.00000   0.00002   0.00002   0.00167
   D16       -3.14154   0.00000   0.00000   0.00010   0.00010  -3.14144
   D17       -3.13722   0.00000   0.00000  -0.00002  -0.00002  -3.13724
   D18        0.00277   0.00000   0.00000   0.00006   0.00006   0.00283
   D19       -0.00234   0.00000   0.00000  -0.00008  -0.00008  -0.00242
   D20        3.14005   0.00000   0.00000   0.00020   0.00020   3.14025
   D21        3.14080   0.00000   0.00000  -0.00016  -0.00016   3.14064
   D22        0.00001   0.00000   0.00000   0.00013   0.00013   0.00013
   D23        0.01801   0.00001   0.00000   0.00024   0.00024   0.01825
   D24       -3.12546   0.00001   0.00000   0.00033   0.00033  -3.12513
   D25       -3.04886   0.00000   0.00000   0.00011   0.00011  -3.04875
   D26        0.09183   0.00000   0.00000  -0.00022  -0.00022   0.09161
   D27       -0.96388   0.00000   0.00000   0.00012   0.00012  -0.96375
   D28        2.17681   0.00000   0.00000  -0.00020  -0.00020   2.17660
   D29        1.14737   0.00000   0.00000   0.00010   0.00010   1.14747
   D30       -1.99513   0.00000   0.00000  -0.00023  -0.00023  -1.99536
   D31        0.25758  -0.00001   0.00000  -0.00243  -0.00243   0.25515
   D32       -0.26164   0.00000   0.00000   0.00121   0.00121  -0.26043
   D33        1.29892  -0.00001   0.00000  -0.00041  -0.00041   1.29851
   D34       -1.28990   0.00000   0.00000   0.00028   0.00028  -1.28962
         Item               Value     Threshold  Converged?
 Maximum Force            0.000022     0.000450     YES
 RMS     Force            0.000007     0.000300     YES
 Maximum Displacement     0.005492     0.001800     NO 
 RMS     Displacement     0.000859     0.001200     YES
 Predicted change in Energy=-2.719047D-08
 GradGradGradGradGradGradGradGradGradGradGradGradGradGradGradGradGradGrad

                          Input orientation:                          
 ---------------------------------------------------------------------
 Center     Atomic      Atomic             Coordinates (Angstroms)
 Number     Number       Type             X           Y           Z
 ---------------------------------------------------------------------
      1          6           0        1.134757    0.351282   -0.043568
      2          6           0        0.661813   -1.075412   -0.117429
      3          6           0       -0.671721   -1.069448   -0.115082
      4          6           0       -1.134979    0.360678   -0.039153
      5          1           0        1.372257   -1.898954   -0.163684
      6          1           0       -1.389913   -1.886434   -0.159471
      7          6           0        0.022588    2.593256    0.071935
      8          1           0       -1.012700    2.932200    0.187299
      9          1           0        0.616110    2.918928    0.935369
     10          1           0        0.448437    3.022060   -0.844552
     11          7           0        0.004241    1.148104   -0.001694
     12          8           0       -2.269322    0.775130   -0.015483
     13          8           0        2.269887    0.764795   -0.024337
     14          8           0       -3.760640   -1.687833   -0.000164
     15          1           0       -3.759319   -1.852254    0.950692
     16          1           0       -3.477135   -0.761450   -0.060259
     17          8           0        3.745768   -1.705398    0.005839
     18          1           0        3.467516   -0.777840   -0.061509
     19          1           0        3.741037   -1.862997    0.957837
 ---------------------------------------------------------------------
                    Distance matrix (angstroms):
                    1          2          3          4          5
     1  C    0.000000
     2  C    1.504855   0.000000
     3  C    2.299337   1.333549   0.000000
     4  C    2.269760   2.301508   1.505202   0.000000
     5  H    2.265921   1.088619   2.206420   3.377525   0.000000
     6  H    3.375614   2.206605   1.088686   2.264725   2.762202
     7  C    2.505335   3.728751   3.732618   2.517282   4.696495
     8  H    3.365413   4.354056   4.027516   2.584368   5.399190
     9  H    2.796447   4.131007   4.320775   3.249716   4.999166
    10  H    2.871527   4.166954   4.304337   3.199817   5.053059
    11  N    1.383743   2.321598   2.321060   1.385376   3.343990
    12  O    3.430480   3.467917   2.442277   1.207917   4.520374
    13  O    1.208256   2.445594   3.467815   3.428797   2.814377
    14  O    5.303281   4.466195   3.152305   3.330467   5.139838
    15  H    5.458581   4.614192   3.358857   3.572677   5.251389
    16  H    4.744260   4.151232   2.822803   2.597173   4.982089
    17  O    3.324117   3.150057   4.464669   5.300226   2.387417
    18  H    2.591718   2.821993   4.149842   4.741275   2.378539
    19  H    3.563501   3.355311   4.610131   5.451078   2.621111
                    6          7          8          9         10
     6  H    0.000000
     7  C    4.702800   0.000000
     8  H    4.845800   1.095451   0.000000
     9  H    5.321119   1.097200   1.792430   0.000000
    10  H    5.286036   1.097802   1.791009   1.790774   0.000000
    11  N    3.343200   1.447142   2.062252   2.094824   2.102244
    12  O    2.806780   2.926786   2.504630   3.718294   3.622467
    13  O    4.521219   2.898774   3.939265   2.880330   3.014246
    14  O    2.384359   5.713645   5.378757   6.422882   6.372787
    15  H    2.616814   5.902337   5.569352   6.473700   6.684837
    16  H    2.373168   4.849700   4.447221   5.593846   5.508192
    17  O    5.141530   5.687254   6.647049   5.660669   5.826184
    18  H    4.983292   4.821786   5.822253   4.773926   4.916018
    19  H    5.251246   5.871105   6.796003   5.712484   6.160649
                   11         12         13         14         15
    11  N    0.000000
    12  O    2.303994   0.000000
    13  O    2.297953   4.539230   0.000000
    14  O    4.713478   2.879314   6.510240   0.000000
    15  H    4.906483   3.171234   6.644618   0.964968   0.000000
    16  H    3.971122   1.954967   5.946342   0.970656   1.513771
    17  O    4.705481   6.506519   2.877671   7.506431   7.565755
    18  H    3.963220   5.943496   1.953310   7.285471   7.376046
    19  H    4.893983   6.635622   3.167687   7.564629   7.500367
                   16         17         18         19
    16  H    0.000000
    17  O    7.284623   0.000000
    18  H    6.944670   0.970733   0.000000
    19  H    7.372376   0.964966   1.513752   0.000000
 Stoichiometry    C5H9NO4
 Framework group  C1[X(C5H9NO4)]
 Deg. of freedom    51
 Full point group                 C1      NOp   1
 Largest Abelian subgroup         C1      NOp   1
 Largest concise Abelian subgroup C1      NOp   1
                         Standard orientation:                         
 ---------------------------------------------------------------------
 Center     Atomic      Atomic             Coordinates (Angstroms)
 Number     Number       Type             X           Y           Z
 ---------------------------------------------------------------------
      1          6           0        1.134798    0.351231   -0.043529
      2          6           0        0.661881   -1.075472   -0.117390
      3          6           0       -0.671653   -1.069533   -0.115042
      4          6           0       -1.134938    0.360584   -0.039114
      5          1           0        1.372341   -1.899000   -0.163645
      6          1           0       -1.389830   -1.886533   -0.159432
      7          6           0        0.022587    2.593183    0.071975
      8          1           0       -1.012708    2.932108    0.187339
      9          1           0        0.616103    2.918867    0.935408
     10          1           0        0.448427    3.021996   -0.844513
     11          7           0        0.004267    1.148031   -0.001655
     12          8           0       -2.269289    0.775014   -0.015443
     13          8           0        2.269920    0.764766   -0.024297
     14          8           0       -3.760560   -1.687978   -0.000124
     15          1           0       -3.759236   -1.852398    0.950731
     16          1           0       -3.477073   -0.761589   -0.060219
     17          8           0        3.745849   -1.705399    0.005878
     18          1           0        3.467578   -0.777847   -0.061470
     19          1           0        3.741121   -1.862998    0.957876
 ---------------------------------------------------------------------
 Rotational constants (GHZ):      1.7631601      0.7028431      0.5064894
 Standard basis: def2SVP (5D, 7F)
 There are   195 symmetry adapted cartesian basis functions of A   symmetry.
 There are   185 symmetry adapted basis functions of A   symmetry.
   185 basis functions,   313 primitive gaussians,   195 cartesian basis functions
    39 alpha electrons       39 beta electrons
       nuclear repulsion energy       530.0421453500 Hartrees.
 NAtoms=   19 NActive=   19 NUniq=   19 SFac= 1.00D+00 NAtFMM=   60 NAOKFM=F Big=F
 Integral buffers will be    131072 words long.
 Raffenetti 2 integral format.
 Two-electron integral symmetry is turned on.
 Nuclear repulsion after empirical dispersion term =      530.0415542203 Hartrees.
 ------------------------------------------------------------------------------
 Polarizable Continuum Model (PCM)
 =================================
 Model                : C-PCM.
 Atomic radii         : UFF (Universal Force Field).
 Polarization charges : Total charges.
 Charge compensation  : None.
 Solution method      : On-the-fly selection.
 Cavity type          : Scaled VdW (van der Waals Surface) (Alpha=1.100).
 Cavity algorithm     : GePol (No added spheres)
                        Default sphere list used, NSphG=   19.
                        Lebedev-Laikov grids with approx.  5.0 points / Ang**2.
                        Smoothing algorithm: Karplus/York (Gamma=1.0000).
                        Polarization charges: spherical gaussians, with
                                              point-specific exponents (IZeta= 3).
                        Self-potential: point-specific (ISelfS= 7).
                        Self-field    : sphere-specific E.n sum rule (ISelfD= 2).
 1st derivatives      : Analytical E(r).r(x)/FMM algorithm (CHGder, D1EAlg=3).
                        Cavity 1st derivative terms included.
 Solvent              : Water, Eps=  78.355300 Eps(inf)=   1.777849
 ------------------------------------------------------------------------------
 Spheres list:
 ISph  on   Nord     Re0    Alpha      Xe            Ye            Ze
    1   C      1    1.9255  1.100      1.134798      0.351231     -0.043529
    2   C      2    1.9255  1.100      0.661881     -1.075472     -0.117390
    3   C      3    1.9255  1.100     -0.671653     -1.069533     -0.115042
    4   C      4    1.9255  1.100     -1.134938      0.360584     -0.039114
    5   H      5    1.4430  1.100      1.372341     -1.899000     -0.163645
    6   H      6    1.4430  1.100     -1.389830     -1.886533     -0.159432
    7   C      7    1.9255  1.100      0.022587      2.593183      0.071975
    8   H      8    1.4430  1.100     -1.012708      2.932108      0.187339
    9   H      9    1.4430  1.100      0.616103      2.918867      0.935408
   10   H     10    1.4430  1.100      0.448427      3.021996     -0.844513
   11   N     11    1.8300  1.100      0.004267      1.148031     -0.001655
   12   O     12    1.7500  1.100     -2.269289      0.775014     -0.015443
   13   O     13    1.7500  1.100      2.269920      0.764766     -0.024297
   14   O     14    1.7500  1.100     -3.760560     -1.687978     -0.000124
   15   H     15    1.4430  1.100     -3.759236     -1.852398      0.950731
   16   H     16    1.4430  1.100     -3.477073     -0.761589     -0.060219
   17   O     17    1.7500  1.100      3.745849     -1.705399      0.005878
   18   H     18    1.4430  1.100      3.467578     -0.777847     -0.061470
   19   H     19    1.4430  1.100      3.741121     -1.862998      0.957876
 ------------------------------------------------------------------------------
 One-electron integrals computed using PRISM.
   1 Symmetry operations used in ECPInt.
 ECPInt:  NShTT=    3828 NPrTT=   13852 LenC2=    3646 LenP2D=    9982.
 LDataN:  DoStor=T MaxTD1= 4 Len=   56
 NBasis=   185 RedAO= T EigKep=  6.83D-04  NBF=   185
 NBsUse=   185 1.00D-06 EigRej= -1.00D+00 NBFU=   185
 Initial guess from the checkpoint file:  "m062x_PM6_2H2O_dienophile_pm6_cpcmtoluene_1_water_gd3.chk"
 B after Tr=     0.000000    0.000000    0.000000
         Rot=    1.000000    0.000016    0.000006   -0.000002 Ang=   0.00 deg.
 Requested convergence on RMS density matrix=1.00D-08 within 128 cycles.
 Requested convergence on MAX density matrix=1.00D-06.
 Requested convergence on             energy=1.00D-06.
 No special actions if energy rises.
 Inv3:  Mode=1 IEnd=     8885523.
 Iteration    1 A*A^-1 deviation from unit magnitude is 6.55D-15 for   1711.
 Iteration    1 A*A^-1 deviation from orthogonality  is 2.05D-15 for   1711    820.
 Iteration    1 A^-1*A deviation from unit magnitude is 6.77D-15 for   1711.
 Iteration    1 A^-1*A deviation from orthogonality  is 2.58D-15 for   1712    821.
 Error on total polarization charges =  0.00554
 SCF Done:  E(RM062X) =  -550.978377203     A.U. after    7 cycles
            NFock=  7  Conv=0.69D-08     -V/T= 2.0085
   1 Symmetry operations used in ECPInt.
 ECPInt:  NShTT=    3828 NPrTT=   13852 LenC2=    3646 LenP2D=    9982.
 LDataN:  DoStor=T MaxTD1= 5 Len=  102
 D1PCM: C-PCM CHGder 1st derivatives, ID1Alg=3 FixD1E=F DoIter=F DoCFld=F I1PDM=0.
 Calling FoFJK, ICntrl=      2127 FMM=F ISym2X=0 I1Cent= 0 IOpClX= 0 NMat=1 NMatS=1 NMatT=0.
 ***** Axes restored to original set *****
 -------------------------------------------------------------------
 Center     Atomic                   Forces (Hartrees/Bohr)
 Number     Number              X              Y              Z
 -------------------------------------------------------------------
      1        6           0.000002923   -0.000005088    0.000004001
      2        6          -0.000001260    0.000001778    0.000001406
      3        6           0.000003327    0.000003286   -0.000004508
      4        6          -0.000004906   -0.000006386    0.000013366
      5        1          -0.000005709   -0.000000450   -0.000005572
      6        1           0.000007209    0.000000871   -0.000006375
      7        6          -0.000001662   -0.000007042    0.000006541
      8        1           0.000000786    0.000000403    0.000000319
      9        1           0.000002100   -0.000000230    0.000000339
     10        1           0.000001514   -0.000000341    0.000001430
     11        7          -0.000001001    0.000001345   -0.000010543
     12        8          -0.000003962    0.000003227   -0.000008344
     13        8           0.000003044   -0.000001703   -0.000000318
     14        8           0.000000584   -0.000005957    0.000007151
     15        1          -0.000009203    0.000001214    0.000004020
     16        1           0.000003378    0.000011817    0.000002392
     17        8          -0.000006056   -0.000008204    0.000003694
     18        1           0.000004135    0.000012451   -0.000008509
     19        1           0.000004758   -0.000000991   -0.000000491
 -------------------------------------------------------------------
 Cartesian Forces:  Max     0.000013366 RMS     0.000005230

 GradGradGradGradGradGradGradGradGradGradGradGradGradGradGradGradGradGrad
 Berny optimization.
 Using GEDIIS/GDIIS optimizer.
 FormGI is forming the generalized inverse of G from B-inverse, IUseBI=4.
 Internal  Forces:  Max     0.000036977 RMS     0.000008925
 Search for a local minimum.
 Step number   2 out of a maximum of   90
 All quantities printed in internal units (Hartrees-Bohrs-Radians)
 Mixed Optimization -- En-DIIS/RFO-DIIS
 Swapping is turned off.
 Update second derivatives using D2CorX and points    1    2
 DE=  5.55D-09 DEPred=-2.72D-08 R=-2.04D-01
 Trust test=-2.04D-01 RLast= 2.91D-03 DXMaxT set to 1.50D-01
 ITU= -1  0
     Eigenvalues ---    0.00229   0.00555   0.00968   0.01083   0.01372
     Eigenvalues ---    0.01415   0.01533   0.01723   0.01944   0.02008
     Eigenvalues ---    0.02161   0.02383   0.03208   0.04238   0.04650
     Eigenvalues ---    0.04806   0.07540   0.07861   0.15358   0.16000
     Eigenvalues ---    0.16000   0.16000   0.16000   0.16000   0.16000
     Eigenvalues ---    0.16000   0.18343   0.22725   0.23914   0.24849
     Eigenvalues ---    0.25000   0.25000   0.25000   0.27999   0.30505
     Eigenvalues ---    0.31310   0.33788   0.33960   0.34160   0.34837
     Eigenvalues ---    0.34973   0.38750   0.44592   0.46886   0.53231
     Eigenvalues ---    0.53495   0.54381   0.54421   0.56442   1.00789
     Eigenvalues ---    1.00896
 En-DIIS/RFO-DIIS IScMMF=        0 using points:     2    1
 RFO step:  Lambda=-1.84320770D-08.
 DidBck=T Rises=F RFO-DIIS coefs:    0.46494    0.53506
 Iteration  1 RMS(Cart)=  0.00077350 RMS(Int)=  0.00000038
 Iteration  2 RMS(Cart)=  0.00000037 RMS(Int)=  0.00000000
 Variable       Old X    -DE/DX   Delta X   Delta X   Delta X     New X
                                 (Linear)    (Quad)   (Total)
    R1        2.84376   0.00000  -0.00003   0.00008   0.00005   2.84381
    R2        2.61490   0.00000   0.00000   0.00001   0.00000   2.61490
    R3        2.28327   0.00001   0.00000   0.00001   0.00001   2.28328
    R4        2.52004   0.00000   0.00000   0.00000   0.00000   2.52004
    R5        2.05719   0.00000   0.00001  -0.00004  -0.00003   2.05716
    R6        2.84442   0.00000  -0.00003   0.00008   0.00005   2.84447
    R7        2.05732  -0.00001   0.00001  -0.00004  -0.00003   2.05729
    R8        2.61798   0.00000  -0.00002   0.00005   0.00003   2.61801
    R9        2.28263   0.00001   0.00000   0.00001   0.00001   2.28264
   R10        2.07010   0.00000  -0.00001   0.00004   0.00003   2.07013
   R11        2.07341   0.00000  -0.00002   0.00005   0.00003   2.07344
   R12        2.07455   0.00000  -0.00002   0.00004   0.00003   2.07457
   R13        2.73470  -0.00001  -0.00001   0.00002   0.00001   2.73471
   R14        3.69435   0.00000   0.00014  -0.00041  -0.00027   3.69408
   R15        3.69122   0.00000   0.00012  -0.00038  -0.00026   3.69097
   R16        1.82352   0.00000   0.00000   0.00001   0.00001   1.82353
   R17        1.83427   0.00001   0.00001  -0.00001   0.00000   1.83427
   R18        1.83442   0.00001   0.00001  -0.00001   0.00000   1.83442
   R19        1.82352   0.00000   0.00000   0.00001   0.00001   1.82353
    A1        1.86571  -0.00001  -0.00001   0.00001   0.00000   1.86571
    A2        2.24018   0.00002  -0.00001   0.00005   0.00005   2.24023
    A3        2.17729  -0.00001   0.00002  -0.00007  -0.00005   2.17724
    A4        1.88594   0.00000   0.00000  -0.00001   0.00000   1.88593
    A5        2.11086   0.00000  -0.00002   0.00007   0.00005   2.11091
    A6        2.28638  -0.00001   0.00002  -0.00006  -0.00004   2.28634
    A7        1.88821   0.00000   0.00000   0.00000   0.00000   1.88821
    A8        2.28664  -0.00001   0.00002  -0.00007  -0.00005   2.28658
    A9        2.10834   0.00000  -0.00002   0.00007   0.00005   2.10839
   A10        1.86326  -0.00001  -0.00001   0.00000   0.00000   1.86326
   A11        2.23447   0.00003   0.00001   0.00002   0.00003   2.23450
   A12        2.18546  -0.00002   0.00000  -0.00002  -0.00003   2.18543
   A13        1.91401   0.00000   0.00000  -0.00001   0.00000   1.91401
   A14        1.91099   0.00000   0.00001  -0.00003  -0.00002   1.91097
   A15        1.87797   0.00000   0.00000   0.00000   0.00000   1.87797
   A16        1.90836   0.00000   0.00004  -0.00012  -0.00008   1.90829
   A17        1.92123   0.00000  -0.00002   0.00007   0.00004   1.92128
   A18        1.93105   0.00000  -0.00003   0.00009   0.00006   1.93110
   A19        1.92166   0.00001   0.00001  -0.00001   0.00000   1.92167
   A20        2.17273  -0.00001   0.00000  -0.00002  -0.00002   2.17271
   A21        2.18879   0.00000  -0.00001   0.00003   0.00002   2.18881
   A22        1.88605   0.00004   0.00007  -0.00009  -0.00002   1.88602
   A23        1.88119   0.00002   0.00005  -0.00007  -0.00002   1.88117
   A24        1.79592   0.00000   0.00000   0.00001   0.00001   1.79593
   A25        2.76296   0.00001   0.00003  -0.00005  -0.00003   2.76293
   A26        1.79579   0.00000   0.00001  -0.00002  -0.00001   1.79578
   A27        2.76265  -0.00001   0.00005  -0.00014  -0.00010   2.76255
    D1       -0.00114   0.00000   0.00005  -0.00019  -0.00014  -0.00128
    D2        3.13819   0.00000   0.00003  -0.00020  -0.00018   3.13801
    D3       -3.14090   0.00000   0.00011  -0.00030  -0.00019  -3.14110
    D4       -0.00158   0.00000   0.00008  -0.00031  -0.00023  -0.00181
    D5        0.00224   0.00000  -0.00006   0.00026   0.00020   0.00244
    D6       -3.14043   0.00000   0.00009  -0.00027  -0.00018  -3.14061
    D7       -3.14110   0.00000  -0.00011   0.00037   0.00025  -3.14084
    D8       -0.00058   0.00000   0.00004  -0.00017  -0.00013  -0.00071
    D9       -0.02493  -0.00001   0.00000  -0.00011  -0.00011  -0.02503
   D10        3.11879  -0.00001   0.00006  -0.00023  -0.00017   3.11862
   D11       -0.00032   0.00000  -0.00003   0.00005   0.00002  -0.00030
   D12        3.13822   0.00000  -0.00005   0.00003  -0.00002   3.13820
   D13       -3.13934   0.00000   0.00000   0.00006   0.00007  -3.13927
   D14       -0.00080   0.00000  -0.00002   0.00004   0.00003  -0.00078
   D15        0.00167   0.00000  -0.00001   0.00011   0.00010   0.00177
   D16       -3.14144   0.00000  -0.00005   0.00015   0.00009  -3.14135
   D17       -3.13724   0.00001   0.00001   0.00012   0.00013  -3.13710
   D18        0.00283   0.00000  -0.00003   0.00016   0.00013   0.00296
   D19       -0.00242   0.00000   0.00005  -0.00023  -0.00019  -0.00261
   D20        3.14025   0.00000  -0.00011   0.00031   0.00020   3.14046
   D21        3.14064   0.00000   0.00009  -0.00027  -0.00019   3.14045
   D22        0.00013   0.00000  -0.00007   0.00027   0.00020   0.00034
   D23        0.01825   0.00002  -0.00013   0.00064   0.00052   0.01877
   D24       -3.12513   0.00002  -0.00018   0.00069   0.00051  -3.12462
   D25       -3.04875   0.00000  -0.00006   0.00020   0.00014  -3.04861
   D26        0.09161   0.00000   0.00012  -0.00042  -0.00030   0.09131
   D27       -0.96375   0.00000  -0.00007   0.00023   0.00017  -0.96359
   D28        2.17660   0.00000   0.00011  -0.00039  -0.00028   2.17633
   D29        1.14747   0.00000  -0.00005   0.00018   0.00013   1.14760
   D30       -1.99536   0.00000   0.00012  -0.00044  -0.00031  -1.99567
   D31        0.25515   0.00002   0.00130   0.00040   0.00170   0.25686
   D32       -0.26043  -0.00001  -0.00065  -0.00059  -0.00124  -0.26167
   D33        1.29851   0.00002   0.00022  -0.00009   0.00013   1.29864
   D34       -1.28962  -0.00001  -0.00015   0.00014  -0.00001  -1.28962
         Item               Value     Threshold  Converged?
 Maximum Force            0.000037     0.000450     YES
 RMS     Force            0.000009     0.000300     YES
 Maximum Displacement     0.002417     0.001800     NO 
 RMS     Displacement     0.000773     0.001200     YES
 Predicted change in Energy=-4.333418D-08
 GradGradGradGradGradGradGradGradGradGradGradGradGradGradGradGradGradGrad

                          Input orientation:                          
 ---------------------------------------------------------------------
 Center     Atomic      Atomic             Coordinates (Angstroms)
 Number     Number       Type             X           Y           Z
 ---------------------------------------------------------------------
      1          6           0        1.134782    0.351151   -0.043892
      2          6           0        0.661873   -1.075560   -0.118202
      3          6           0       -0.671662   -1.069629   -0.115966
      4          6           0       -1.134971    0.360492   -0.039702
      5          1           0        1.372294   -1.899090   -0.164668
      6          1           0       -1.389777   -1.886645   -0.160665
      7          6           0        0.022580    2.593073    0.072133
      8          1           0       -1.012739    2.931982    0.187448
      9          1           0        0.615969    2.918456    0.935790
     10          1           0        0.448602    3.022299   -0.844095
     11          7           0        0.004244    1.147947   -0.002069
     12          8           0       -2.269318    0.774942   -0.015929
     13          8           0        2.269885    0.764731   -0.024261
     14          8           0       -3.760559   -1.687884    0.000891
     15          1           0       -3.760449   -1.851033    0.951971
     16          1           0       -3.477003   -0.761575   -0.060091
     17          8           0        3.745767   -1.705268    0.006520
     18          1           0        3.467499   -0.777748   -0.061254
     19          1           0        3.741665   -1.862229    0.958631
 ---------------------------------------------------------------------
                    Distance matrix (angstroms):
                    1          2          3          4          5
     1  C    0.000000
     2  C    1.504882   0.000000
     3  C    2.299359   1.333550   0.000000
     4  C    2.269776   2.301534   1.505230   0.000000
     5  H    2.265962   1.088604   2.206385   3.377529   0.000000
     6  H    3.375613   2.206565   1.088670   2.264769   2.762102
     7  C    2.505329   3.728780   3.732659   2.517310   4.696524
     8  H    3.365420   4.354095   4.027565   2.584395   5.399224
     9  H    2.796426   4.131001   4.320764   3.249701   4.999178
    10  H    2.871620   4.167116   4.304537   3.199995   5.053207
    11  N    1.383745   2.321626   2.321091   1.385392   3.344015
    12  O    3.430493   3.467954   2.442325   1.207923   4.520388
    13  O    1.208260   2.445649   3.467850   3.428803   2.814485
    14  O    5.303210   4.466210   3.152329   3.330346   5.139864
    15  H    5.459363   4.615579   3.360311   3.573149   5.253023
    16  H    4.744153   4.151176   2.822757   2.597030   4.982023
    17  O    3.323950   3.149998   4.464607   5.300104   2.387519
    18  H    2.591579   2.821963   4.149801   4.741180   2.378653
    19  H    3.563697   3.356119   4.610903   5.451489   2.622418
                    6          7          8          9         10
     6  H    0.000000
     7  C    4.702852   0.000000
     8  H    4.845874   1.095464   0.000000
     9  H    5.321111   1.097218   1.792454   0.000000
    10  H    5.286250   1.097817   1.791021   1.790750   0.000000
    11  N    3.343231   1.447146   2.062268   2.094872   2.102299
    12  O    2.806881   2.926800   2.504631   3.718239   3.622646
    13  O    4.521230   2.898707   3.939215   2.880219   3.014268
    14  O    2.384579   5.713477   5.378520   6.422336   6.373136
    15  H    2.619030   5.902161   5.568809   6.473123   6.685158
    16  H    2.373270   4.849560   4.447048   5.593463   5.508425
    17  O    5.141465   5.687017   6.646819   5.660212   5.826211
    18  H    4.983238   4.821586   5.822069   4.773598   4.915988
    19  H    5.252153   5.870876   6.795847   5.711868   6.160576
                   11         12         13         14         15
    11  N    0.000000
    12  O    2.303998   0.000000
    13  O    2.297929   4.539222   0.000000
    14  O    4.713352   2.879165   6.510162   0.000000
    15  H    4.906830   3.171127   6.645313   0.964972   0.000000
    16  H    3.970984   1.954824   5.946226   0.970655   1.513780
    17  O    4.705306   6.506397   2.877512   7.506349   7.566929
    18  H    3.963073   5.943398   1.953175   7.285399   7.377114
    19  H    4.894121   6.635989   3.167512   7.565119   7.502125
                   16         17         18         19
    16  H    0.000000
    17  O    7.284463   0.000000
    18  H    6.944521   0.970731   0.000000
    19  H    7.372815   0.964971   1.513747   0.000000
 Stoichiometry    C5H9NO4
 Framework group  C1[X(C5H9NO4)]
 Deg. of freedom    51
 Full point group                 C1      NOp   1
 Largest Abelian subgroup         C1      NOp   1
 Largest concise Abelian subgroup C1      NOp   1
                         Standard orientation:                         
 ---------------------------------------------------------------------
 Center     Atomic      Atomic             Coordinates (Angstroms)
 Number     Number       Type             X           Y           Z
 ---------------------------------------------------------------------
      1          6           0        1.134816    0.351150   -0.043797
      2          6           0        0.661896   -1.075557   -0.118107
      3          6           0       -0.671639   -1.069616   -0.115871
      4          6           0       -1.134937    0.360508   -0.039607
      5          1           0        1.372311   -1.899092   -0.164573
      6          1           0       -1.389760   -1.886626   -0.160570
      7          6           0        0.022631    2.593081    0.072228
      8          1           0       -1.012686    2.931997    0.187543
      9          1           0        0.616022    2.918459    0.935885
     10          1           0        0.448656    3.022304   -0.843999
     11          7           0        0.004283    1.147955   -0.001974
     12          8           0       -2.269281    0.774967   -0.015833
     13          8           0        2.269921    0.764722   -0.024166
     14          8           0       -3.760541   -1.687848    0.000986
     15          1           0       -3.760432   -1.850997    0.952066
     16          1           0       -3.476977   -0.761541   -0.059996
     17          8           0        3.745786   -1.705288    0.006615
     18          1           0        3.467525   -0.777766   -0.061159
     19          1           0        3.741682   -1.862249    0.958726
 ---------------------------------------------------------------------
 Rotational constants (GHZ):      1.7632782      0.7028302      0.5065037
 Standard basis: def2SVP (5D, 7F)
 There are   195 symmetry adapted cartesian basis functions of A   symmetry.
 There are   185 symmetry adapted basis functions of A   symmetry.
   185 basis functions,   313 primitive gaussians,   195 cartesian basis functions
    39 alpha electrons       39 beta electrons
       nuclear repulsion energy       530.0418297220 Hartrees.
 NAtoms=   19 NActive=   19 NUniq=   19 SFac= 1.00D+00 NAtFMM=   60 NAOKFM=F Big=F
 Integral buffers will be    131072 words long.
 Raffenetti 2 integral format.
 Two-electron integral symmetry is turned on.
 Nuclear repulsion after empirical dispersion term =      530.0412385764 Hartrees.
 ------------------------------------------------------------------------------
 Polarizable Continuum Model (PCM)
 =================================
 Model                : C-PCM.
 Atomic radii         : UFF (Universal Force Field).
 Polarization charges : Total charges.
 Charge compensation  : None.
 Solution method      : On-the-fly selection.
 Cavity type          : Scaled VdW (van der Waals Surface) (Alpha=1.100).
 Cavity algorithm     : GePol (No added spheres)
                        Default sphere list used, NSphG=   19.
                        Lebedev-Laikov grids with approx.  5.0 points / Ang**2.
                        Smoothing algorithm: Karplus/York (Gamma=1.0000).
                        Polarization charges: spherical gaussians, with
                                              point-specific exponents (IZeta= 3).
                        Self-potential: point-specific (ISelfS= 7).
                        Self-field    : sphere-specific E.n sum rule (ISelfD= 2).
 1st derivatives      : Analytical E(r).r(x)/FMM algorithm (CHGder, D1EAlg=3).
                        Cavity 1st derivative terms included.
 Solvent              : Water, Eps=  78.355300 Eps(inf)=   1.777849
 ------------------------------------------------------------------------------
 Spheres list:
 ISph  on   Nord     Re0    Alpha      Xe            Ye            Ze
    1   C      1    1.9255  1.100      1.134816      0.351150     -0.043797
    2   C      2    1.9255  1.100      0.661896     -1.075557     -0.118107
    3   C      3    1.9255  1.100     -0.671639     -1.069616     -0.115871
    4   C      4    1.9255  1.100     -1.134937      0.360508     -0.039607
    5   H      5    1.4430  1.100      1.372311     -1.899092     -0.164573
    6   H      6    1.4430  1.100     -1.389760     -1.886626     -0.160570
    7   C      7    1.9255  1.100      0.022631      2.593081      0.072228
    8   H      8    1.4430  1.100     -1.012686      2.931997      0.187543
    9   H      9    1.4430  1.100      0.616022      2.918459      0.935885
   10   H     10    1.4430  1.100      0.448656      3.022304     -0.843999
   11   N     11    1.8300  1.100      0.004283      1.147955     -0.001974
   12   O     12    1.7500  1.100     -2.269281      0.774967     -0.015833
   13   O     13    1.7500  1.100      2.269921      0.764722     -0.024166
   14   O     14    1.7500  1.100     -3.760541     -1.687848      0.000986
   15   H     15    1.4430  1.100     -3.760432     -1.850997      0.952066
   16   H     16    1.4430  1.100     -3.476977     -0.761541     -0.059996
   17   O     17    1.7500  1.100      3.745786     -1.705288      0.006615
   18   H     18    1.4430  1.100      3.467525     -0.777766     -0.061159
   19   H     19    1.4430  1.100      3.741682     -1.862249      0.958726
 ------------------------------------------------------------------------------
 One-electron integrals computed using PRISM.
   1 Symmetry operations used in ECPInt.
 ECPInt:  NShTT=    3828 NPrTT=   13852 LenC2=    3646 LenP2D=    9982.
 LDataN:  DoStor=T MaxTD1= 4 Len=   56
 NBasis=   185 RedAO= T EigKep=  6.83D-04  NBF=   185
 NBsUse=   185 1.00D-06 EigRej= -1.00D+00 NBFU=   185
 Initial guess from the checkpoint file:  "m062x_PM6_2H2O_dienophile_pm6_cpcmtoluene_1_water_gd3.chk"
 B after Tr=     0.000000    0.000000    0.000000
         Rot=    1.000000    0.000047    0.000000    0.000005 Ang=   0.01 deg.
 Requested convergence on RMS density matrix=1.00D-08 within 128 cycles.
 Requested convergence on MAX density matrix=1.00D-06.
 Requested convergence on             energy=1.00D-06.
 No special actions if energy rises.
 Inv3:  Mode=1 IEnd=     8885523.
 Iteration    1 A*A^-1 deviation from unit magnitude is 4.88D-15 for   1719.
 Iteration    1 A*A^-1 deviation from orthogonality  is 2.15D-15 for   1705   1644.
 Iteration    1 A^-1*A deviation from unit magnitude is 4.88D-15 for   1719.
 Iteration    1 A^-1*A deviation from orthogonality  is 2.62D-15 for   1704    787.
 Error on total polarization charges =  0.00554
[...]
 .00873237,-0.00040395,-0.18244517,0.15398158,0.00847214,-0.00484729,0.
 02029930,0.00107287,-0.00427730,-0.00256711,-0.00010538,0.18080087,0.0
 1917731,-0.00880713,-0.00062639,0.15137325,-0.23545777,-0.01108904,-0.
 00584007,0.01144059,0.00013705,-0.00318703,-0.00301729,-0.00082389,-0.
 16127356,0.23717804,0.00110256,-0.00043719,0.00152965,0.00867036,-0.01
 132021,-0.04072716,-0.00027039,0.00008001,0.00888778,-0.00017258,-0.00
 075066,0.01249940,-0.00847657,0.01183419,0.02772686,-0.00422823,0.0025
 7473,0.00014450,-0.00497660,-0.02016836,-0.00104071,-0.18537823,-0.154
 38476,-0.00822859,0.01289833,0.00864797,0.00036588,0.00129290,0.000702
 87,0.00002631,0.18405058,0.00315293,-0.00307060,-0.00084171,0.00598430
 ,0.01157959,0.00011554,-0.15168845,-0.23255707,-0.01061872,-0.01925549
 ,-0.00881907,-0.00056806,-0.00071393,-0.00012835,0.00033978,0.16159886
 ,0.23420994,0.00022353,-0.00076075,0.01249624,0.00033859,0.00015063,0.
 00898358,-0.00845799,-0.01086597,-0.04067254,-0.00112772,-0.00046873,0
 .00155327,-0.00004255,0.00033565,-0.00614903,0.00819779,0.01135207,0.0
 2764455,0.00741343,0.02919414,0.00206721,-0.00559786,0.00307358,-0.000
 00768,-0.00368786,-0.00399385,-0.00001471,0.01312202,-0.02523401,-0.00
 192096,0.00097395,0.00117946,-0.00000679,0.00084816,-0.00094726,0.0000
 1662,0.62866643,0.01905430,-0.02421921,-0.00130429,-0.00050075,0.00331
 337,0.00002104,0.00043777,0.00353946,-0.00002697,-0.02250202,-0.023236
 42,-0.00090004,0.00020928,0.00043938,-0.00002182,-0.00019641,0.0004793
 0,-0.00004049,0.00530796,0.50588495,0.00190119,-0.00172792,0.00025927,
 0.00020891,0.00017819,0.00238502,-0.00019658,0.00014801,0.00349164,-0.
 00212059,-0.00134615,-0.00479275,-0.00001175,-0.00005704,0.00078995,0.
 00001034,-0.00007172,0.00113299,0.00113551,-0.00644843,0.59470340,0.00
 077513,-0.00153746,-0.00001133,-0.00009438,0.00006548,0.00004480,0.000
 08380,-0.00000373,0.00004803,-0.00210037,-0.00121607,-0.00013566,-0.00
 002074,-0.00002532,0.00000491,-0.00003762,0.00006277,-0.00000093,-0.30
 849388,0.08495261,0.02942061,0.32301364,-0.00523869,-0.00438748,-0.000
 70860,0.00149826,-0.00120906,0.00003946,0.00009323,-0.00006058,-0.0000
 0654,0.00481977,0.00039985,-0.00014816,-0.00036717,-0.00039494,0.00002
 568,-0.00005693,0.00007854,0.00000130,0.07251188,-0.07056715,-0.007994
 40,-0.08960452,0.08574980,-0.00064277,-0.00001812,-0.00015950,0.000043
 11,-0.00009444,0.00025861,-0.00001320,-0.00003545,0.00005335,0.0006668
 1,-0.00002540,0.00135059,-0.00001694,-0.00001448,0.00000066,-0.0000022
 9,0.00000701,-0.00004265,0.02865548,-0.00884952,-0.05068991,-0.0310960
 5,0.01025669,0.04730392,-0.00002825,0.00083525,0.00079746,0.00027871,0
 .00009830,-0.00031208,-0.00024125,0.00013833,-0.00013819,-0.00036114,0
 .00024421,-0.00057870,-0.00002220,-0.00003141,-0.00001193,0.00002259,-
 0.00003565,0.00001376,-0.13246634,-0.04284275,-0.12308888,-0.01069642,
 -0.00866492,-0.02255132,0.13358775,-0.00506113,0.00198242,-0.00008594,
 -0.00050474,-0.00069574,0.00017738,-0.00051427,-0.00149973,0.00076898,
 0.00666519,-0.00113538,-0.00298191,-0.00002384,0.00001983,0.00007458,0
 .00024733,-0.00024718,0.00023912,-0.03774708,-0.06517722,-0.05542840,0
 .00412482,0.00315450,0.00926886,0.04817865,0.08192799,-0.00210539,0.00
 015153,0.00054248,0.00005073,-0.00012352,-0.00024473,0.00014336,-0.000
 14935,-0.00009347,0.00161795,0.00125160,-0.00019758,-0.00003259,-0.000
 02347,0.00000467,0.00000843,0.00001400,0.00000437,-0.12327271,-0.06090
 295,-0.22903183,0.00362091,0.00247285,0.00511665,0.13195523,0.06671147
 ,0.23594436,0.00025351,0.00091760,-0.00074425,0.00021809,0.00004990,0.
 00032022,-0.00021058,0.00010240,0.00006457,-0.00024002,-0.00018961,0.0
 0065832,-0.00000790,-0.00001551,0.00002420,0.00002485,-0.00003586,-0.0
 0003133,-0.09203799,-0.04036802,0.09284547,-0.00702825,-0.01141770,0.0
 2393932,0.00772797,0.00707369,-0.01488595,0.08965140,-0.00562265,0.002
 07869,0.00041141,-0.00049102,-0.00088327,-0.00034164,-0.00023813,-0.00
 141884,-0.00088208,0.00692437,-0.00040194,0.00262533,-0.00005574,0.000
 00221,-0.00011178,0.00020885,-0.00016734,-0.00025109,-0.03710733,-0.08
 047699,0.08145807,0.00261615,0.00448206,-0.00961977,0.00429073,0.00414
 261,-0.00686495,0.04548789,0.09978995,0.00132698,-0.00016107,0.0004736
 6,-0.00010441,0.00006880,-0.00031632,-0.00012768,0.00000849,-0.0002799
 9,-0.00066348,-0.00125918,0.00003906,0.00003236,0.00002724,-0.00000155
 ,0.00000820,-0.00002597,-0.00002765,0.09357494,0.08691438,-0.25203134,
 -0.00111032,-0.00036285,-0.00030184,0.01084653,0.00811939,-0.01725579,
 -0.09966922,-0.09313495,0.25952340,-0.15830473,0.05199015,0.00182094,0
 .00985992,0.00909207,0.00060632,0.00874176,-0.00960165,-0.00060500,-0.
 16007694,-0.05114723,-0.00140360,-0.00017254,-0.00039430,-0.00002558,-
 0.00010101,0.00025688,0.00002108,-0.10921183,-0.00435538,-0.00011270,0
 .00425113,0.03778561,0.00117786,0.00154382,-0.02259641,0.00255112,0.00
 106997,-0.01613825,-0.00388042,0.64174850,0.07605564,-0.22000010,-0.00
 722254,0.02130897,-0.05416762,-0.00364416,-0.02172246,-0.05409708,-0.0
 0348354,-0.07218883,-0.21688117,-0.00728565,-0.00464750,-0.00414095,-0
 .00023117,0.00462093,-0.00424123,-0.00022415,-0.00829472,-0.25083118,-
 0.00794516,0.00193534,-0.02025585,-0.00135409,-0.00054451,-0.02463387,
 -0.00349481,-0.00008786,-0.02891345,-0.00011174,0.00522119,0.81482151,
 0.00367652,-0.00746699,-0.06509312,0.00083172,-0.00372030,0.01559794,-
 0.00083624,-0.00362640,0.01447668,-0.00315719,-0.00751077,-0.05896981,
 -0.00022351,-0.00018965,-0.00025300,0.00022192,-0.00017765,-0.00056671
 ,-0.00036847,-0.00865120,-0.06162446,-0.00072612,-0.00382907,-0.001999
 85,0.00332786,-0.02702439,0.00541052,-0.00251851,0.02635352,0.01039976
 ,-0.00062368,0.03449148,0.10469145,0.03176809,-0.02599868,-0.00136108,
 0.00449652,0.00384826,0.00011961,-0.02234532,0.02558395,0.00142716,-0.
 66661880,0.23662964,0.01323710,-0.00048157,-0.00008735,0.00001345,-0.0
 0132173,0.00176177,0.00017019,-0.00111137,0.01251673,0.00086198,0.0004
 4924,-0.00176243,-0.00021014,0.00006173,-0.00191596,-0.00038931,0.0001
 1733,-0.00222528,0.00020334,-0.12242395,0.00060779,0.00028920,0.797332
 17,-0.00146672,-0.01149407,-0.00108966,0.00140763,-0.00830853,-0.00045
 171,0.04735988,-0.00487660,-0.00135151,0.22739601,-0.20276700,-0.00711
 954,0.00174258,0.00156468,0.00019232,-0.00218106,0.00240339,0.00021723
 ,0.00215324,-0.00024793,-0.00046785,-0.00149396,0.00177390,0.00020651,
 -0.00090348,0.00098737,0.00019171,-0.00056486,0.00082990,0.00023595,-0
 .02152616,0.03136785,0.00072814,-0.24674964,0.19649534,-0.00014245,-0.
 00097766,0.00830725,0.00005541,-0.00046447,0.00070180,0.00255079,-0.00
 129908,0.01912997,0.01280712,-0.00704194,-0.07029875,0.00008556,0.0002
 0290,-0.00232315,-0.00005724,0.00018265,-0.00099052,0.00002698,-0.0000
 3220,-0.00167952,-0.00007259,0.00020053,-0.00098842,0.00015437,-0.0000
 9904,-0.00007386,-0.00029085,0.00027626,-0.00004913,-0.00080883,0.0003
 9067,0.01805249,-0.01424738,0.00840121,0.03374631,-0.66905191,-0.23403
 126,-0.01102225,-0.02215490,-0.02565045,-0.00125883,0.00433941,-0.0038
 5452,-0.00013992,0.03133201,0.02570073,0.00129952,-0.00140268,-0.00184
 516,-0.00018546,-0.00048029,0.00008495,-0.00001768,0.00149708,-0.01177
 636,-0.00085529,-0.00006511,0.00055510,0.00006145,0.00060423,0.0020261
 0,0.00072289,0.00047983,0.00231941,-0.00042955,-0.12373878,-0.00226721
 ,0.00012275,-0.02219355,-0.00136764,-0.00000370,0.79848879,-0.22538073
 ,-0.20160110,-0.00624103,-0.04706964,-0.00451913,-0.00114950,-0.001283
 27,-0.00830223,-0.00045370,0.00184006,-0.01113910,-0.00107960,0.002245
 91,0.00239196,0.00020958,-0.00172476,0.00158694,0.00020236,-0.00009351
 ,0.00188546,-0.00027647,0.00017252,0.00121817,0.00027656,-0.00082191,0
 .00105949,0.00074580,-0.00099818,0.00080146,-0.00029469,0.02144002,0.0
 3186541,0.00061078,0.00134772,0.00346141,0.00030625,0.24663214,0.19255
 694,-0.01056501,-0.00608228,-0.07045640,-0.00237180,-0.00118836,0.0190
 6146,-0.00006510,-0.00043987,0.00074799,0.00010078,-0.00104123,0.00832
 581,0.00006218,0.00018875,-0.00100292,-0.00008616,0.00020493,-0.002357
 27,0.00011429,0.00020405,-0.00292052,0.00000851,0.00005019,0.00010562,
 -0.00038747,0.00025088,-0.00012249,0.00027134,0.00010405,-0.00016685,0
 .00127158,0.00034363,0.01894679,0.00005601,0.00031105,-0.00199087,0.01
 158413,0.00709829,0.03338219,0.00119536,0.00175196,-0.00001869,-0.0010
 6231,-0.00309471,-0.00024924,-0.00319986,0.00371585,0.00072376,0.00546
 462,0.00135855,-0.00032974,0.00007409,-0.00014683,0.00002167,-0.000674
 46,-0.00168154,-0.00037010,-0.00009049,0.00073322,0.00002069,0.0000561
 0,0.00005336,0.00001665,-0.00006228,-0.00016908,-0.00001081,-0.0000507
 2,-0.00018468,0.00001293,-0.00194536,-0.00138104,-0.00005489,-0.004384
 22,-0.00605914,0.00026219,-0.00189234,-0.00119774,-0.00003498,0.061397
 57,0.00194317,-0.00084203,-0.00003458,-0.00000478,0.00035493,-0.000017
 13,0.00036783,0.00044046,-0.00020045,0.00877783,-0.00228956,-0.0001716
 7,-0.00003785,-0.00003072,-0.00001409,-0.00158768,-0.00050664,0.000697
 30,-0.00001687,0.00056837,0.00001699,0.00005815,0.00010853,0.00001911,
 -0.00004906,-0.00009527,-0.00000943,-0.00003926,-0.00010628,0.00001463
 ,-0.00392817,0.00017270,-0.00007310,-0.01077454,-0.00536135,0.00055232
 ,-0.00141386,-0.00008771,-0.00000209,0.15474577,0.51624613,-0.00019037
 ,-0.00003383,-0.00022856,0.00007012,0.00018577,0.00006138,0.00047279,-
 0.00020705,0.00091971,-0.00108439,-0.00002778,-0.00045941,0.00000033,0
 .00001021,0.00005494,-0.00033540,0.00031803,-0.00101648,0.00001153,-0.
 00009280,-0.00000131,-0.00000953,-0.00001164,0.00000287,0.00001224,0.0
 0001706,0.00000009,0.00000071,0.00002431,-0.00000184,0.00043976,0.0001
 2858,-0.00013725,0.00121643,0.00064800,0.00246227,0.00022611,0.0000853
 5,0.00005697,-0.00213395,-0.09953051,0.56569668,-0.00017950,-0.0003241
 7,0.00007541,0.00015106,0.00038423,0.00005801,-0.00002623,-0.00029931,
 -0.00038592,-0.00040909,-0.00045169,0.00019094,-0.00000785,0.00003170,
 -0.00002407,-0.00103271,0.00000967,0.00108477,0.00002199,-0.00010555,-
 0.00000239,-0.00000673,-0.00000138,-0.00000259,0.00000725,0.00002936,0
 .00000216,0.00000637,0.00002998,-0.00000215,0.00019407,0.00030992,0.00
 003014,0.00010251,0.00010775,-0.00039866,0.00026683,0.00018975,-0.0000
 1123,-0.00577973,-0.00904820,-0.01131875,0.00666073,-0.00018126,-0.000
 04308,0.00000550,0.00002455,0.00009426,0.00005414,0.00006530,-0.000234
 39,0.00011719,-0.00066680,-0.00012535,-0.00014754,-0.00000837,0.000006
 52,0.00000618,-0.00028828,0.00030103,-0.00042076,0.00000633,-0.0000590
 0,-0.00000646,-0.00000305,-0.00000238,-0.00000220,0.00000299,0.0000147
 6,0.00000180,0.00000462,0.00001541,-0.00000193,0.00028624,0.00009333,0
 .00013596,0.00016035,-0.00009789,-0.00081541,0.00016411,0.00006288,-0.
 00000372,-0.01167751,-0.05054876,0.05159098,0.01243959,0.06047591,0.00
 022440,0.00015278,-0.00002012,-0.00011161,-0.00026308,-0.00004812,-0.0
 0010921,0.00026332,0.00018968,0.00103177,0.00018425,-0.00004570,0.0000
 0780,-0.00001824,0.00000495,0.00101538,-0.00017523,-0.00022956,-0.0000
 1754,0.00010470,0.00000185,0.00000754,0.00000748,0.00000254,-0.0000090
 3,-0.00002498,-0.00000159,-0.00000677,-0.00002651,0.00000195,-0.000375
 86,-0.00016080,-0.00002146,-0.00090293,-0.00061338,0.00004751,-0.00025
 974,-0.00012606,-0.00000060,0.00413282,0.10309604,-0.52082242,-0.00271
 869,-0.09809533,0.52874935,-0.00289448,0.00003849,-0.00000717,0.000525
 04,0.00046666,0.00010049,-0.00052499,-0.00046956,-0.00013928,-0.015393
 58,-0.00154331,-0.00008411,0.00005292,0.00014564,0.00001559,-0.0010268
 4,0.00147825,-0.00000032,0.00011084,-0.00095661,-0.00001661,-0.0000921
 8,-0.00016404,-0.00002894,0.00008831,0.00020197,0.00001373,0.00006662,
 0.00021842,-0.00002054,0.00516153,0.00092405,0.00006998,0.00572987,0.0
 0177532,0.00007056,0.00243426,0.00064566,0.00003481,-0.04905460,-0.139
 04266,0.01262684,0.00002677,-0.00032583,-0.00191059,0.05483372,-0.0031
 7275,0.00172241,0.00007937,0.00002236,-0.00100201,-0.00009962,0.000338
 98,0.00135313,0.00016202,-0.01252901,0.00399488,0.00029786,0.00005321,
 0.00001681,0.00000395,0.00199485,-0.00089476,-0.00016073,0.00004335,-0
 .00088639,-0.00002146,-0.00008648,-0.00012583,-0.00002089,0.00006764,0
 .00015204,0.00001927,0.00004783,0.00016806,-0.00002354,0.00662847,-0.0
 0022481,-0.00006416,0.00799411,-0.00570437,0.00021392,0.00217477,0.000
 00580,0.00000653,-0.13670068,-0.45796688,0.04688729,-0.00331173,-0.009
 95898,-0.00429541,0.13651711,0.46926441,0.00000921,-0.00006344,0.00015
 740,0.00001241,0.00006412,0.00000229,0.00009103,-0.00007123,-0.0006658
 1,0.00003541,-0.00006839,0.00060742,-0.00000961,-0.00000730,0.00006713
 ,-0.00025024,-0.00003980,0.00010852,0.00000143,0.00000596,0.00001093,0
 .00000688,0.00000872,-0.00001604,-0.00001029,0.00001210,0.00000323,0.0
 0001101,-0.00001204,-0.00000126,-0.00008644,-0.00008112,0.00059985,-0.
 00051711,-0.00001842,-0.00405041,-0.00000325,0.00001566,-0.00005802,-0
 .00199874,-0.00434695,-0.04658457,0.01342435,0.04758277,-0.00780954,-0
 .01071693,-0.04298011,0.05763149,0.00541155,-0.00138388,0.00032016,-0.
 00327994,-0.00371885,-0.00074984,-0.00104130,0.00308983,0.00025835,0.0
 0116566,-0.00176151,0.00002460,-0.00063348,0.00170454,0.00036179,0.000
 07469,0.00014872,-0.00002303,-0.00012816,-0.00077216,-0.00002350,-0.00
 003793,0.00008699,-0.00000494,0.00006615,0.00011353,-0.00000155,0.0000
 6246,0.00014579,-0.00000818,-0.00194569,0.00135320,0.00006312,-0.00188
 502,0.00120895,0.00003903,-0.00431951,0.00612574,-0.00029513,-0.000454
 10,-0.00013301,0.00003956,0.00007636,0.00002928,-0.00005507,0.00038325
 ,0.00016769,0.00000395,0.05947590,-0.00880016,-0.00231290,-0.00013621,
 -0.00034619,0.00045344,-0.00020412,0.00001756,0.00035408,-0.00001536,-
 0.00194792,-0.00082816,-0.00003280,0.00158654,-0.00049393,0.00070069,0
 .00003829,-0.00003275,-0.00001510,0.00004483,0.00061895,0.00001799,0.0
 0001974,-0.00004213,0.00000517,-0.00006491,-0.00004331,0.00001347,-0.0
 0006411,-0.00007078,0.00000299,0.00397027,0.00020556,-0.00009692,0.001
 44152,-0.00008934,-0.00000484,0.01085967,-0.00556919,0.00060812,0.0001
 3745,0.00008885,-0.00001533,-0.00002069,-0.00001272,0.00001916,-0.0001
 6648,-0.00013224,0.00000018,-0.15173999,0.51621308,0.00114039,-0.00003
 246,-0.00046120,-0.00049344,-0.00022169,0.00089468,-0.00007408,0.00019
 608,0.00006297,0.00019795,-0.00003964,-0.00023295,0.00033700,0.0003283
 2,-0.00099599,-0.00000074,0.00001153,0.00005432,-0.00001309,-0.0001076
 0,0.00000259,-0.00000408,0.00001003,-0.00000173,0.00001932,0.00001019,
 0.00000109,0.00000174,0.00001911,0.00000140,-0.00046658,0.00013312,-0.
 00015382,-0.00023986,0.00009131,0.00005871,-0.00126989,0.00071210,0.00
 249568,-0.00004221,-0.00001583,0.00000457,0.00000655,0.00000332,-0.000
 00580,0.00004016,0.00002085,-0.00000196,0.00093062,-0.09969837,0.56711
 351,-0.01532414,0.00162841,0.00012156,-0.00048007,0.00047005,0.0001538
 2,0.00052645,-0.00045555,-0.00010326,-0.00285814,-0.00001323,0.0000157
 6,-0.00094156,-0.00144900,0.00001122,0.00005368,-0.00014876,-0.0000180
 7,0.00014818,0.00105135,0.00001909,0.00003937,-0.00010987,0.00000846,-
 0.00010369,-0.00010770,0.00001326,-0.00009397,-0.00015338,0.00000657,0
 .00515095,-0.00089110,-0.00008991,0.00244075,-0.00064691,-0.00004118,0
 .00574905,-0.00195742,-0.00008778,0.00038602,0.00016305,-0.00003790,-0
 .00005909,-0.00002752,0.00004853,-0.00036744,-0.00022450,-0.00000199,-
 0.04728356,0.13648407,-0.01328422,0.05291795,0.01259658,0.00403954,0.0
 0025361,-0.00035496,0.00134306,0.00016141,-0.00003440,-0.00101493,-0.0
 0010149,0.00317376,0.00171429,0.00007122,-0.00197924,-0.00088741,-0.00
 016452,-0.00005473,0.00001943,0.00000582,-0.00007092,-0.00096225,-0.00
 002345,-0.00003409,0.00007304,-0.00000491,0.00009920,0.00007696,-0.000
 00388,0.00008919,0.00011663,-0.00001281,-0.00669164,-0.00023723,-0.000
 03176,-0.00221106,-0.00000063,0.00001154,-0.00814375,-0.00558076,0.000
 21672,-0.00017339,-0.00013214,0.00002017,0.00002597,0.00001594,-0.0000
 2496,0.00022904,0.00020289,-0.00000001,0.13408630,-0.45863193,0.049994
 10,-0.13373471,0.46955106,-0.00005670,-0.00008763,0.00059295,-0.000107
 61,-0.00007651,-0.00068797,-0.00000924,0.00007057,-0.00000027,-0.00001
 968,-0.00006966,0.00016913,0.00026396,-0.00003562,0.00012001,0.0000106
 0,-0.00000795,0.00006970,-0.00000509,0.00001372,-0.00000833,-0.0000003
 5,0.00000203,0.00000420,-0.00002870,0.00001047,-0.00000602,0.00001972,
 -0.00000684,-0.00000770,0.00011941,-0.00008705,0.00066842,0.00001062,0
 .00001701,-0.00006094,0.00052556,-0.00001963,-0.00410500,-0.00000327,0
 .00000056,-0.00000209,0.00000101,-0.00000077,-0.00000016,0.00000127,-0
 .00000058,-0.00000041,0.00110303,-0.00126833,-0.04700916,0.01134721,-0
 .04612166,0.05840211,-0.00045751,0.00048891,-0.00019328,-0.00003165,0.
 00030429,0.00038850,0.00014710,-0.00038212,-0.00006022,-0.00017843,0.0
 0032514,-0.00007573,-0.00101278,-0.00001923,-0.00107869,-0.00000807,-0
 .00003215,0.00002338,0.00002370,0.00011277,0.00000451,0.00000521,-0.00
 001654,0.00000004,-0.00000694,-0.00002043,-0.00000143,-0.00000899,-0.0
 0002514,0.00000412,0.00019918,-0.00031181,-0.00003471,0.00026732,-0.00
 019181,0.00001084,0.00010759,-0.00011236,0.00040103,0.00007670,0.00002
 012,-0.00000615,-0.00001302,-0.00000473,0.00000880,-0.00005901,-0.0000
 2522,-0.00000108,-0.00570733,0.00855053,0.01321448,0.00009925,0.003182
 84,-0.01317175,0.00655769,0.00070744,-0.00015009,-0.00014979,-0.000067
 16,-0.00023466,0.00011311,-0.00002421,0.00009294,0.00005448,0.00018240
 ,-0.00004509,0.00000620,0.00028827,0.00029848,-0.00041553,0.00000829,0
 .00000684,0.00000629,-0.00000925,-0.00006550,-0.00000434,-0.00000292,0
 .00000700,-0.00000065,0.00000330,0.00000971,-0.00000114,0.00000784,0.0
 0001192,-0.00000314,-0.00029172,0.00009820,0.00014247,-0.00016690,0.00
 006388,-0.00000363,-0.00016678,-0.00009672,-0.00082964,-0.00002982,-0.
 00001263,0.00000319,0.00000480,0.00000251,-0.00000377,0.00002790,0.000
 01584,-0.00000071,0.01124884,-0.04967459,0.04858552,0.00012274,-0.0097
 0555,0.04766787,-0.01184307,0.05937751,-0.00104063,0.00018877,-0.00004
 098,0.00011659,0.00026720,0.00019430,0.00011017,-0.00026463,-0.0000489
 9,-0.00022245,0.00015577,-0.00002148,-0.00101135,-0.00017919,-0.000233
 19,-0.00000795,-0.00001876,0.00000488,0.00002306,0.00011445,0.00000235
 ,0.00000476,-0.00001370,0.00000094,-0.00001018,-0.00001580,-0.00000009
 ,-0.00000974,-0.00002042,0.00000202,0.00038060,-0.00016150,-0.00002443
 ,0.00026271,-0.00012837,-0.00000074,0.00090315,-0.00062205,0.00005843,
 0.00005590,0.00001887,-0.00000554,-0.00000890,-0.00000376,0.00000723,-
 0.00004893,-0.00002455,-0.00000022,-0.00198298,0.10011959,-0.52182689,
 0.00191882,-0.00424513,-0.00813848,0.00056736,-0.09516679,0.53007088\\
 -0.00000205,0.00000525,-0.00000687,0.00000541,-0.00002489,0.00000310,-
 0.00000865,-0.00002631,0.00000976,0.00000366,0.00000266,-0.00001199,-0
 .00000641,0.00000638,-0.00000161,0.00000774,0.00000529,-0.00000321,0.0
 0000252,-0.00000699,-0.00000802,-0.00000897,0.00000334,0.00000025,0.00
 000524,0.00000902,0.00000456,0.00000400,0.00001196,-0.00000531,0.00000
 500,0.00000827,0.00000495,-0.00000892,0.00000316,0.00001038,0.00000113
 ,0.00000915,0.00000576,0.00000499,0.00000753,-0.00000800,-0.00000088,-
 0.00000116,0.00000265,-0.00000150,-0.00001178,-0.00000376,0.00000085,0
 .00001092,-0.00000720,-0.00000406,-0.00001384,0.00000816,0.00000091,0.
 00000204,0.00000641\\\@


 OUR LITTLE SYSTEMS HAVE THEIR DAY,    
   THEY HAVE THEIR DAY AND CEASE TO BE.
   THEY ARE BUT BROKEN LIGHTS OF THEE, 
 AND THOU, OH LORD, ART MORE THAN THEY.
          -------------------          
 LET KNOWLEDGE GROW FROM MORE TO MORE, 
   BUT MORE OF REVERENCE IN US DWELL.  
   THAT MIND AND SOUL, ACCORDING WELL, 
 MAY MAKE ONE MUSIC AS BEFORE.....     
          -------------------          
                    LORD TENNYSON      
 Job cpu time:       0 days  0 hours 15 minutes  3.1 seconds.
 File lengths (MBytes):  RWF=    111 Int=      0 D2E=      0 Chk=     10 Scr=      1
 Normal termination of Gaussian 09 at Sun Sep  6 03:30:39 2020.
