 Entering Gaussian System, Link 0=g09
 Input=m062x_PM6_2H2O_diene_pm6_cpcmtoluene_1_water_gd3.com
 Output=m062x_PM6_2H2O_diene_pm6_cpcmtoluene_1_water_gd3.log
 Initial command:
 /apps/applications/gaussian/G09.D01/2/default/g09/l1.exe "/local/725664.1.40core-192G.q/Gau-303937.inp" -scrdir="/local/725664.1.40core-192G.q/"
 Entering Link 1 = /apps/applications/gaussian/G09.D01/2/default/g09/l1.exe PID=    303938.
  
 Copyright (c) 1988,1990,1992,1993,1995,1998,2003,2009,2013,
            Gaussian, Inc.  All Rights Reserved.
  
 This is part of the Gaussian(R) 09 program.  It is based on
 the Gaussian(R) 03 system (copyright 2003, Gaussian, Inc.),
 the Gaussian(R) 98 system (copyright 1998, Gaussian, Inc.),
 the Gaussian(R) 94 system (copyright 1995, Gaussian, Inc.),
 the Gaussian 92(TM) system (copyright 1992, Gaussian, Inc.),
 the Gaussian 90(TM) system (copyright 1990, Gaussian, Inc.),
 the Gaussian 88(TM) system (copyright 1988, Gaussian, Inc.),
 the Gaussian 86(TM) system (copyright 1986, Carnegie Mellon
 University), and the Gaussian 82(TM) system (copyright 1983,
 Carnegie Mellon University). Gaussian is a federally registered
 trademark of Gaussian, Inc.
  
 This software contains proprietary and confidential information,
 including trade secrets, belonging to Gaussian, Inc.
  
 This software is provided under written license and may be
 used, copied, transmitted, or stored only in accord with that
 written license.
  
 The following legend is applicable only to US Government
 contracts under FAR:
  
                    RESTRICTED RIGHTS LEGEND
  
 Use, reproduction and disclosure by the US Government is
 subject to restrictions as set forth in subparagraphs (a)
 and (c) of the Commercial Computer Software - Restricted
 Rights clause in FAR 52.227-19.
  
 Gaussian, Inc.
 340 Quinnipiac St., Bldg. 40, Wallingford CT 06492
  
  
 ---------------------------------------------------------------
 Warning -- This program may not be used in any manner that
 competes with the business of Gaussian, Inc. or will provide
 assistance to any competitor of Gaussian, Inc.  The licensee
 of this program is prohibited from giving any competitor of
 Gaussian, Inc. access to this program.  By using this program,
 the user acknowledges that Gaussian, Inc. is engaged in the
 business of creating and licensing software in the field of
 computational chemistry and represents and warrants to the
 licensee that it is not a competitor of Gaussian, Inc. and that
 it will not use this program in any manner prohibited above.
 ---------------------------------------------------------------
  

 Cite this work as:
 Gaussian 09, Revision D.01,
 M. J. Frisch, G. W. Trucks, H. B. Schlegel, G. E. Scuseria, 
 M. A. Robb, J. R. Cheeseman, G. Scalmani, V. Barone, B. Mennucci, 
 G. A. Petersson, H. Nakatsuji, M. Caricato, X. Li, H. P. Hratchian, 
 A. F. Izmaylov, J. Bloino, G. Zheng, J. L. Sonnenberg, M. Hada, 
 M. Ehara, K. Toyota, R. Fukuda, J. Hasegawa, M. Ishida, T. Nakajima, 
 Y. Honda, O. Kitao, H. Nakai, T. Vreven, J. A. Montgomery, Jr., 
 J. E. Peralta, F. Ogliaro, M. Bearpark, J. J. Heyd, E. Brothers, 
 K. N. Kudin, V. N. Staroverov, T. Keith, R. Kobayashi, J. Normand, 
 K. Raghavachari, A. Rendell, J. C. Burant, S. S. Iyengar, J. Tomasi, 
 M. Cossi, N. Rega, J. M. Millam, M. Klene, J. E. Knox, J. B. Cross, 
 V. Bakken, C. Adamo, J. Jaramillo, R. Gomperts, R. E. Stratmann, 
 O. Yazyev, A. J. Austin, R. Cammi, C. Pomelli, J. W. Ochterski, 
 R. L. Martin, K. Morokuma, V. G. Zakrzewski, G. A. Voth, 
 P. Salvador, J. J. Dannenberg, S. Dapprich, A. D. Daniels, 
 O. Farkas, J. B. Foresman, J. V. Ortiz, J. Cioslowski, 
 and D. J. Fox, Gaussian, Inc., Wallingford CT, 2013.
 
 ******************************************
 Gaussian 09:  ES64L-G09RevD.01 24-Apr-2013
                 6-Sep-2020 
 ******************************************
 %nprocshared=4
 Will use up to    4 processors via shared memory.
 %chk=m062x_PM6_2H2O_diene_pm6_cpcmtoluene_1_water_gd3.chk
 ----------------------------------------------------------------------
 # opt freq scrf=(cpcm,solvent=water) geom=connectivity def2svp m062x e
 mpiricaldispersion=gd3
 ----------------------------------------------------------------------
 1/14=-1,18=20,19=15,26=3,38=1,57=2/1,3;
 2/9=110,12=2,17=6,18=5,40=1/2;
 3/5=43,7=101,11=2,16=1,25=1,30=1,70=2101,71=1,72=1,74=-55,124=31/1,2,3;
 4//1;
 5/5=2,38=5,53=1/2;
 6/7=2,8=2,9=2,10=2,28=1/1;
 7//1,2,3,16;
 1/14=-1,18=20,19=15,26=3/3(2);
 2/9=110/2;
 99//99;
 2/9=110/2;
 3/5=43,7=101,11=2,16=1,25=1,30=1,70=2105,71=1,72=1,74=-55,124=31/1,2,3;
 4/5=5,16=3,69=1/1;
 5/5=2,38=5,53=1/2;
 7//1,2,3,16;
 1/14=-1,18=20,19=15,26=3/3(-5);
 2/9=110/2;
 6/7=2,8=2,9=2,10=2,19=2,28=1/1;
 99/9=1/99;
 -------------------
 Title Card Required
 -------------------
 Symbolic Z-matrix:
 Charge =  0 Multiplicity = 1
 C                    -3.29319   0.46192  -0.37439 
 H                    -3.52173   1.35624  -0.96543 
 C                    -1.86702   0.1255   -0.23352 
 H                    -1.15421   0.95371  -0.29645 
 C                    -4.3094   -0.21644   0.17711 
 H                    -4.07939  -1.07965   0.81355 
 C                    -5.75655   0.12242   0.00275 
 H                    -6.24061   0.30317   0.97482 
 H                    -5.88595   1.01477  -0.62465 
 H                    -6.29965  -0.71277  -0.4669 
 C                    -1.39224  -1.11169  -0.04153 
 H                    -2.07056  -1.97044  -0.01707 
 C                     0.05201  -1.45879   0.13252 
 H                     0.36937  -2.1612   -0.65443 
 H                     0.2132   -1.95292   1.10487 
 C                     2.15436  -0.27886   0.02005 
 C                     2.87523  -1.59307   0.06748 
 H                     2.63111  -2.18738  -0.8242 
 H                     3.94934  -1.38732   0.09676 
 H                     2.5693   -2.16979   0.95058 
 O                     0.82776  -0.26626   0.06542 
 O                     2.72057   0.79263  -0.0616 
 O                     5.54744   0.36709  -0.07142 
 H                     4.62803   0.68119  -0.05071 
 H                     5.68242   0.15812  -1.00354 
 O                     0.52495   2.67553   0.25351 
 H                     0.1653    2.14798   0.97683 
 H                     1.29898   2.14848  -0.00413 
 
 Add virtual bond connecting atoms H24        and O22        Dist= 3.61D+00.
 Add virtual bond connecting atoms H28        and O22        Dist= 3.71D+00.

 GradGradGradGradGradGradGradGradGradGradGradGradGradGradGradGradGradGrad
 Berny optimization.
 Initialization pass.
                           ----------------------------
                           !    Initial Parameters    !
                           ! (Angstroms and Degrees)  !
 --------------------------                            --------------------------
 ! Name  Definition              Value          Derivative Info.                !
 --------------------------------------------------------------------------------
 ! R1    R(1,2)                  1.0961         estimate D2E/DX2                !
 ! R2    R(1,3)                  1.4721         estimate D2E/DX2                !
 ! R3    R(1,5)                  1.3405         estimate D2E/DX2                !
 ! R4    R(3,4)                  1.0945         estimate D2E/DX2                !
 ! R5    R(3,11)                 1.339          estimate D2E/DX2                !
 ! R6    R(5,6)                  1.0969         estimate D2E/DX2                !
 ! R7    R(5,7)                  1.4965         estimate D2E/DX2                !
 ! R8    R(7,8)                  1.1009         estimate D2E/DX2                !
 ! R9    R(7,9)                  1.0985         estimate D2E/DX2                !
 ! R10   R(7,10)                 1.1014         estimate D2E/DX2                !
 ! R11   R(11,12)                1.0946         estimate D2E/DX2                !
 ! R12   R(11,13)                1.4955         estimate D2E/DX2                !
 ! R13   R(13,14)                1.1015         estimate D2E/DX2                !
 ! R14   R(13,15)                1.1025         estimate D2E/DX2                !
 ! R15   R(13,21)                1.4242         estimate D2E/DX2                !
 ! R16   R(16,17)                1.4997         estimate D2E/DX2                !
 ! R17   R(16,21)                1.3274         estimate D2E/DX2                !
 ! R18   R(16,22)                1.2146         estimate D2E/DX2                !
 ! R19   R(17,18)                1.099          estimate D2E/DX2                !
 ! R20   R(17,19)                1.094          estimate D2E/DX2                !
 ! R21   R(17,20)                1.0982         estimate D2E/DX2                !
 ! R22   R(22,24)                1.9107         estimate D2E/DX2                !
 ! R23   R(22,28)                1.9653         estimate D2E/DX2                !
 ! R24   R(23,24)                0.9718         estimate D2E/DX2                !
 ! R25   R(23,25)                0.9647         estimate D2E/DX2                !
 ! R26   R(26,27)                0.9648         estimate D2E/DX2                !
 ! R27   R(26,28)                0.9712         estimate D2E/DX2                !
 ! A1    A(2,1,3)              116.1094         estimate D2E/DX2                !
 ! A2    A(2,1,5)              118.4678         estimate D2E/DX2                !
 ! A3    A(3,1,5)              125.4097         estimate D2E/DX2                !
 ! A4    A(1,3,4)              116.9052         estimate D2E/DX2                !
 ! A5    A(1,3,11)             124.639          estimate D2E/DX2                !
 ! A6    A(4,3,11)             118.4552         estimate D2E/DX2                !
 ! A7    A(1,5,6)              118.5543         estimate D2E/DX2                !
 ! A8    A(1,5,7)              124.7896         estimate D2E/DX2                !
 ! A9    A(6,5,7)              116.6532         estimate D2E/DX2                !
 ! A10   A(5,7,8)              111.07           estimate D2E/DX2                !
 ! A11   A(5,7,9)              111.3706         estimate D2E/DX2                !
 ! A12   A(5,7,10)             110.7823         estimate D2E/DX2                !
 ! A13   A(8,7,9)              108.6124         estimate D2E/DX2                !
 ! A14   A(8,7,10)             106.5117         estimate D2E/DX2                !
 ! A15   A(9,7,10)             108.3229         estimate D2E/DX2                !
 ! A16   A(3,11,12)            120.5543         estimate D2E/DX2                !
 ! A17   A(3,11,13)            124.9985         estimate D2E/DX2                !
 ! A18   A(12,11,13)           114.4406         estimate D2E/DX2                !
 ! A19   A(11,13,14)           110.0651         estimate D2E/DX2                !
 ! A20   A(11,13,15)           110.355          estimate D2E/DX2                !
 ! A21   A(11,13,21)           109.0372         estimate D2E/DX2                !
 ! A22   A(14,13,15)           107.5866         estimate D2E/DX2                !
 ! A23   A(14,13,21)           110.0805         estimate D2E/DX2                !
 ! A24   A(15,13,21)           109.7049         estimate D2E/DX2                !
 ! A25   A(17,16,21)           119.1842         estimate D2E/DX2                !
 ! A26   A(17,16,22)           123.4427         estimate D2E/DX2                !
 ! A27   A(21,16,22)           117.3729         estimate D2E/DX2                !
 ! A28   A(16,17,18)           109.9652         estimate D2E/DX2                !
 ! A29   A(16,17,19)           107.937          estimate D2E/DX2                !
 ! A30   A(16,17,20)           110.5934         estimate D2E/DX2                !
 ! A31   A(18,17,19)           109.9673         estimate D2E/DX2                !
 ! A32   A(18,17,20)           107.8514         estimate D2E/DX2                !
 ! A33   A(19,17,20)           110.5326         estimate D2E/DX2                !
 ! A34   A(13,21,16)           122.5475         estimate D2E/DX2                !
 ! A35   A(16,22,24)           114.4262         estimate D2E/DX2                !
 ! A36   A(16,22,28)           105.6302         estimate D2E/DX2                !
 ! A37   A(24,22,28)           139.6547         estimate D2E/DX2                !
 ! A38   A(24,23,25)           102.8832         estimate D2E/DX2                !
 ! A39   A(22,24,23)           164.4058         estimate D2E/DX2                !
 ! A40   A(27,26,28)           101.4919         estimate D2E/DX2                !
 ! A41   A(22,28,26)           163.4555         estimate D2E/DX2                !
 ! D1    D(2,1,3,4)             27.2705         estimate D2E/DX2                !
 ! D2    D(2,1,3,11)          -152.4469         estimate D2E/DX2                !
 ! D3    D(5,1,3,4)           -151.3894         estimate D2E/DX2                !
 ! D4    D(5,1,3,11)            28.8932         estimate D2E/DX2                !
 ! D5    D(2,1,5,6)           -176.7272         estimate D2E/DX2                !
 ! D6    D(2,1,5,7)              2.6286         estimate D2E/DX2                !
 ! D7    D(3,1,5,6)              1.904          estimate D2E/DX2                !
 ! D8    D(3,1,5,7)           -178.7403         estimate D2E/DX2                !
 ! D9    D(1,3,11,12)            2.401          estimate D2E/DX2                !
 ! D10   D(1,3,11,13)         -178.5857         estimate D2E/DX2                !
 ! D11   D(4,3,11,12)         -177.3124         estimate D2E/DX2                !
 ! D12   D(4,3,11,13)            1.701          estimate D2E/DX2                !
 ! D13   D(1,5,7,8)           -122.2026         estimate D2E/DX2                !
 ! D14   D(1,5,7,9)             -1.0016         estimate D2E/DX2                !
 ! D15   D(1,5,7,10)           119.6343         estimate D2E/DX2                !
 ! D16   D(6,5,7,8)             57.1642         estimate D2E/DX2                !
 ! D17   D(6,5,7,9)            178.3652         estimate D2E/DX2                !
 ! D18   D(6,5,7,10)           -60.9988         estimate D2E/DX2                !
 ! D19   D(3,11,13,14)        -120.6386         estimate D2E/DX2                !
 ! D20   D(3,11,13,15)         120.767          estimate D2E/DX2                !
 ! D21   D(3,11,13,21)           0.2059         estimate D2E/DX2                !
 ! D22   D(12,11,13,14)         58.4282         estimate D2E/DX2                !
 ! D23   D(12,11,13,15)        -60.1663         estimate D2E/DX2                !
 ! D24   D(12,11,13,21)        179.2726         estimate D2E/DX2                !
 ! D25   D(11,13,21,16)       -171.3788         estimate D2E/DX2                !
 ! D26   D(14,13,21,16)        -50.5438         estimate D2E/DX2                !
 ! D27   D(15,13,21,16)         67.6619         estimate D2E/DX2                !
 ! D28   D(21,16,17,18)         64.3189         estimate D2E/DX2                !
 ! D29   D(21,16,17,19)       -175.7158         estimate D2E/DX2                !
 ! D30   D(21,16,17,20)        -54.688          estimate D2E/DX2                !
 ! D31   D(22,16,17,18)       -115.5176         estimate D2E/DX2                !
 ! D32   D(22,16,17,19)          4.4478         estimate D2E/DX2                !
 ! D33   D(22,16,17,20)        125.4755         estimate D2E/DX2                !
 ! D34   D(17,16,21,13)         -1.219          estimate D2E/DX2                !
 ! D35   D(22,16,21,13)        178.6273         estimate D2E/DX2                !
 ! D36   D(17,16,22,24)         -2.4854         estimate D2E/DX2                !
 ! D37   D(17,16,22,28)       -177.5477         estimate D2E/DX2                !
 ! D38   D(21,16,22,24)        177.6754         estimate D2E/DX2                !
 ! D39   D(21,16,22,28)          2.6131         estimate D2E/DX2                !
 ! D40   D(16,22,24,23)         10.104          estimate D2E/DX2                !
 ! D41   D(28,22,24,23)       -177.2521         estimate D2E/DX2                !
 ! D42   D(16,22,28,26)         51.9822         estimate D2E/DX2                !
 ! D43   D(24,22,28,26)       -121.065          estimate D2E/DX2                !
 ! D44   D(25,23,24,22)         74.9685         estimate D2E/DX2                !
 ! D45   D(27,26,28,22)         -7.528          estimate D2E/DX2                !
 --------------------------------------------------------------------------------
 Trust Radius=3.00D-01 FncErr=1.00D-07 GrdErr=1.00D-06
 Number of steps in this run=    123 maximum allowed number of steps=    168.
 GradGradGradGradGradGradGradGradGradGradGradGradGradGradGradGradGradGrad

                          Input orientation:                          
 ---------------------------------------------------------------------
 Center     Atomic      Atomic             Coordinates (Angstroms)
 Number     Number       Type             X           Y           Z
 ---------------------------------------------------------------------
      1          6           0       -3.293185    0.461915   -0.374390
      2          1           0       -3.521733    1.356237   -0.965429
      3          6           0       -1.867018    0.125498   -0.233516
      4          1           0       -1.154205    0.953707   -0.296447
      5          6           0       -4.309396   -0.216436    0.177107
      6          1           0       -4.079386   -1.079652    0.813553
      7          6           0       -5.756552    0.122422    0.002752
      8          1           0       -6.240607    0.303166    0.974823
      9          1           0       -5.885946    1.014769   -0.624649
     10          1           0       -6.299647   -0.712765   -0.466897
     11          6           0       -1.392238   -1.111685   -0.041529
     12          1           0       -2.070556   -1.970443   -0.017073
     13          6           0        0.052009   -1.458792    0.132518
     14          1           0        0.369373   -2.161200   -0.654425
     15          1           0        0.213198   -1.952916    1.104873
     16          6           0        2.154364   -0.278864    0.020047
     17          6           0        2.875229   -1.593067    0.067483
     18          1           0        2.631110   -2.187385   -0.824198
     19          1           0        3.949336   -1.387321    0.096761
     20          1           0        2.569300   -2.169791    0.950580
     21          8           0        0.827762   -0.266258    0.065417
     22          8           0        2.720571    0.792625   -0.061597
     23          8           0        5.547443    0.367091   -0.071422
     24          1           0        4.628028    0.681189   -0.050711
     25          1           0        5.682416    0.158118   -1.003537
     26          8           0        0.524946    2.675527    0.253507
     27          1           0        0.165300    2.147981    0.976834
     28          1           0        1.298975    2.148478   -0.004127
 ---------------------------------------------------------------------
                    Distance matrix (angstroms):
                    1          2          3          4          5
     1  C    0.000000
     2  H    1.096072   0.000000
     3  C    1.472065   2.188263   0.000000
     4  H    2.196172   2.492941   1.094529   0.000000
     5  C    1.340520   2.097404   2.500148   3.398341   0.000000
     6  H    2.098988   3.067460   2.728243   3.731398   1.096864
     7  C    2.515088   2.730218   3.896705   4.686379   1.496491
     8  H    3.245439   3.502258   4.540917   5.283069   2.153117
     9  H    2.662834   2.412931   4.134679   4.743503   2.155038
    10  H    3.229124   3.499444   4.517228   5.411262   2.149926
    11  C    2.490103   3.388064   1.338991   2.094633   3.059262
    12  H    2.745699   3.751279   2.116895   3.077077   2.850728
    13  C    3.890552   4.679905   2.515277   2.731138   4.535117
    14  H    4.513699   5.254502   3.226081   3.485984   5.134631
    15  H    4.507144   5.402440   3.230849   3.504561   4.932542
    16  C    5.511817   5.988555   4.049607   3.544859   6.465969
    17  C    6.516712   7.119440   5.053016   4.780674   7.316144
    18  H    6.505259   7.101738   5.092297   4.947079   7.284084
    19  H    7.489711   8.029460   6.018943   5.628602   8.341707
    20  H    6.561261   7.294152   5.133357   5.017550   7.192379
    21  O    4.207834   4.755338   2.739466   2.355303   5.138614
    22  O    6.030959   6.332530   4.639029   3.885227   7.106027
    23  O    8.846326   9.166658   7.420167   6.731036   9.877224
    24  H    7.930855   8.228670   6.521337   5.793865   8.985276
    25  H    9.002751   9.281880   7.588672   6.918983  10.068293
    26  O    4.457853   4.427408   3.530061   2.467116   5.633840
    27  H    4.077958   4.241869   3.112186   2.188293   5.123762
    28  H    4.906070   4.979053   3.764117   2.744271   6.089293
                    6          7          8          9         10
     6  H    0.000000
     7  C    2.217040   0.000000
     8  H    2.570811   1.100863   0.000000
     9  H    3.117480   1.098480   1.786190   0.000000
    10  H    2.589154   1.101390   1.764698   1.783370   0.000000
    11  C    2.820099   4.535661   5.151840   5.005522   4.941937
    12  H    2.349222   4.238755   4.852059   4.882401   4.435009
    13  C    4.204281   6.021334   6.588702   6.476968   6.423347
    14  H    4.807927   6.570675   7.240123   7.015460   6.827075
    15  H    4.390186   6.415576   6.838013   6.999854   6.813632
    16  C    6.334868   7.921106   8.469114   8.169192   8.479132
    17  C    7.013336   8.800837   9.355075   9.167227   9.232488
    18  H    6.995717   8.739103   9.388647   9.101311   9.058730
    19  H    8.066525   9.823056  10.366469  10.150036  10.286612
    20  H    6.738858   8.687487   9.150441   9.171366   9.098922
    21  O    5.030052   6.596074   7.149343   6.869578   7.161193
    22  O    7.107090   8.503818   9.034182   8.627776   9.153950
    23  O    9.775075  11.306886  11.834561  11.465074  11.902774
    24  H    8.925613  10.399739  10.923454  10.534910  11.024083
    25  H   10.006331  11.483200  12.086911  11.606223  12.025650
    26  O    5.967822   6.785163   7.205630   6.680480   7.653403
    27  H    5.334945   6.334039   6.666258   6.361328   7.215523
    28  H    6.325835   7.340668   7.823606   7.300235   8.132646
                   11         12         13         14         15
    11  C    0.000000
    12  H    1.094613   0.000000
    13  C    1.495535   2.188480   0.000000
    14  H    2.140186   2.529004   1.101534   0.000000
    15  H    2.144605   2.544524   1.102549   1.778455   0.000000
    16  C    3.643593   4.551128   2.413457   2.680353   2.783419
    17  C    4.295915   4.960882   2.827159   2.668940   2.879597
    18  H    4.237574   4.775372   2.845684   2.268251   3.102030
    19  H    5.350468   6.049140   3.898146   3.738891   3.910871
    20  H    4.218726   4.743876   2.740711   2.723195   2.371088
    21  O    2.377937   3.363227   1.424231   2.078244   2.074361
    22  O    4.532328   5.530952   3.496825   3.821604   3.896866
    23  O    7.095551   7.968747   5.794414   5.791766   5.934667
    24  H    6.281567   7.204395   5.055002   5.155559   5.269213
    25  H    7.251799   8.100152   5.967118   5.807714   6.230105
    26  O    4.255069   5.328685   4.163040   4.923664   4.716407
    27  H    3.753453   4.790440   3.706011   4.612125   4.103175
    28  H    4.227610   5.321599   3.819161   4.456498   4.385228
                   16         17         18         19         20
    16  C    0.000000
    17  C    1.499675   0.000000
    18  H    2.140675   1.099046   0.000000
    19  H    2.111039   1.094027   1.796103   0.000000
    20  H    2.147945   1.098209   1.775941   1.801601   0.000000
    21  O    1.327437   2.439784   2.781044   3.316925   2.727619
    22  O    1.214638   2.394182   3.077340   2.507410   3.134213
    23  O    3.455229   3.316963   3.949306   2.379116   4.043463
    24  H    2.654378   2.873763   3.579760   2.181996   3.656369
    25  H    3.699436   3.477647   3.852793   2.569553   4.350773
    26  O    3.382001   4.876405   5.407891   5.315802   5.304941
    27  H    3.280456   4.708086   5.302767   5.252791   4.941969
    28  H    2.573765   4.060648   4.609426   4.420008   4.601374
                   21         22         23         24         25
    21  O    0.000000
    22  O    2.172577   0.000000
    23  O    4.763953   2.858738   0.000000
    24  H    3.918311   1.910740   0.971808   0.000000
    25  H    4.989030   3.172125   0.964741   1.514336   0.000000
    26  O    2.963305   2.909533   5.537141   4.572222   5.875117
    27  H    2.664223   3.073229   5.765230   4.808666   6.190314
    28  H    2.461266   1.965344   4.607315   3.638365   4.916799
                   26         27         28
    26  O    0.000000
    27  H    0.964807   0.000000
    28  H    0.971224   1.499168   0.000000
 Stoichiometry    C8H16O4
 Framework group  C1[X(C8H16O4)]
 Deg. of freedom    78
 Full point group                 C1      NOp   1
 Largest Abelian subgroup         C1      NOp   1
 Largest concise Abelian subgroup C1      NOp   1
                         Standard orientation:                         
 ---------------------------------------------------------------------
 Center     Atomic      Atomic             Coordinates (Angstroms)
 Number     Number       Type             X           Y           Z
 ---------------------------------------------------------------------
      1          6           0       -3.293185    0.461915   -0.374390
      2          1           0       -3.521733    1.356237   -0.965429
      3          6           0       -1.867018    0.125498   -0.233516
      4          1           0       -1.154205    0.953707   -0.296447
      5          6           0       -4.309396   -0.216436    0.177107
      6          1           0       -4.079386   -1.079652    0.813553
      7          6           0       -5.756552    0.122422    0.002752
      8          1           0       -6.240607    0.303166    0.974823
      9          1           0       -5.885946    1.014769   -0.624649
     10          1           0       -6.299647   -0.712765   -0.466897
     11          6           0       -1.392238   -1.111685   -0.041529
     12          1           0       -2.070556   -1.970443   -0.017073
     13          6           0        0.052009   -1.458792    0.132518
     14          1           0        0.369373   -2.161200   -0.654425
     15          1           0        0.213198   -1.952916    1.104873
     16          6           0        2.154364   -0.278864    0.020047
     17          6           0        2.875229   -1.593067    0.067483
     18          1           0        2.631110   -2.187385   -0.824198
     19          1           0        3.949336   -1.387321    0.096761
     20          1           0        2.569300   -2.169791    0.950580
     21          8           0        0.827762   -0.266258    0.065417
     22          8           0        2.720571    0.792625   -0.061597
     23          8           0        5.547443    0.367091   -0.071422
     24          1           0        4.628028    0.681189   -0.050711
     25          1           0        5.682416    0.158118   -1.003537
     26          8           0        0.524946    2.675527    0.253507
     27          1           0        0.165300    2.147981    0.976834
     28          1           0        1.298975    2.148478   -0.004127
 ---------------------------------------------------------------------
 Rotational constants (GHZ):      1.9821107      0.2741222      0.2437758
 Standard basis: def2SVP (5D, 7F)
 There are   260 symmetry adapted cartesian basis functions of A   symmetry.
 There are   248 symmetry adapted basis functions of A   symmetry.
   248 basis functions,   412 primitive gaussians,   260 cartesian basis functions
    48 alpha electrons       48 beta electrons
       nuclear repulsion energy       694.2939439431 Hartrees.
 NAtoms=   28 NActive=   28 NUniq=   28 SFac= 1.00D+00 NAtFMM=   60 NAOKFM=F Big=F
 Integral buffers will be    131072 words long.
 Raffenetti 2 integral format.
 Two-electron integral symmetry is turned on.
 Nuclear repulsion after empirical dispersion term =      694.2927711107 Hartrees.
 ------------------------------------------------------------------------------
 Polarizable Continuum Model (PCM)
 =================================
 Model                : C-PCM.
 Atomic radii         : UFF (Universal Force Field).
 Polarization charges : Total charges.
 Charge compensation  : None.
 Solution method      : On-the-fly selection.
 Cavity type          : Scaled VdW (van der Waals Surface) (Alpha=1.100).
 Cavity algorithm     : GePol (No added spheres)
                        Default sphere list used, NSphG=   28.
                        Lebedev-Laikov grids with approx.  5.0 points / Ang**2.
                        Smoothing algorithm: Karplus/York (Gamma=1.0000).
                        Polarization charges: spherical gaussians, with
                                              point-specific exponents (IZeta= 3).
                        Self-potential: point-specific (ISelfS= 7).
                        Self-field    : sphere-specific E.n sum rule (ISelfD= 2).
 1st derivatives      : Analytical E(r).r(x)/FMM algorithm (CHGder, D1EAlg=3).
                        Cavity 1st derivative terms included.
 Solvent              : Water, Eps=  78.355300 Eps(inf)=   1.777849
 ------------------------------------------------------------------------------
 One-electron integrals computed using PRISM.
   1 Symmetry operations used in ECPInt.
 ECPInt:  NShTT=    7260 NPrTT=   25404 LenC2=    6501 LenP2D=   16602.
 LDataN:  DoStor=T MaxTD1= 4 Len=   56
 NBasis=   248 RedAO= T EigKep=  1.12D-03  NBF=   248
 NBsUse=   248 1.00D-06 EigRej= -1.00D+00 NBFU=   248
 ExpMin= 1.22D-01 ExpMax= 2.27D+03 ExpMxC= 3.41D+02 IAcc=1 IRadAn=         1 AccDes= 0.00D+00
 Harris functional with IExCor= 1009 and IRadAn=       1 diagonalized for initial guess.
 HarFok:  IExCor= 1009 AccDes= 0.00D+00 IRadAn=         1 IDoV= 1 UseB2=F ITyADJ=14
 ICtDFT=  3500011 ScaDFX=  1.000000  1.000000  1.000000  1.000000
 FoFCou: FMM=F IPFlag=           0 FMFlag=      100000 FMFlg1=           0
         NFxFlg=           0 DoJE=T BraDBF=F KetDBF=T FulRan=T
         wScrn=  0.000000 ICntrl=     500 IOpCl=  0 I1Cent=   200000004 NGrid=           0
         NMat0=    1 NMatS0=      1 NMatT0=    0 NMatD0=    1 NMtDS0=    0 NMtDT0=    0
 Petite list used in FoFCou.
 Requested convergence on RMS density matrix=1.00D-08 within 128 cycles.
 Requested convergence on MAX density matrix=1.00D-06.
 Requested convergence on             energy=1.00D-06.
 No special actions if energy rises.
 Inv3:  Mode=1 IEnd=    15106608.
 Iteration    1 A*A^-1 deviation from unit magnitude is 4.22D-15 for   1105.
 Iteration    1 A*A^-1 deviation from orthogonality  is 1.80D-15 for   1543    258.
 Iteration    1 A^-1*A deviation from unit magnitude is 4.00D-15 for   1105.
 Iteration    1 A^-1*A deviation from orthogonality  is 1.63D-15 for   1886   1683.
 Error on total polarization charges =  0.00910
 SCF Done:  E(RM062X) =  -614.629399114     A.U. after   12 cycles
            NFock= 12  Conv=0.83D-08     -V/T= 2.0094

 **********************************************************************

            Population analysis using the SCF density.

 **********************************************************************

 Orbital symmetries:
       Occupied  (A) (A) (A) (A) (A) (A) (A) (A) (A) (A) (A) (A)
                 (A) (A) (A) (A) (A) (A) (A) (A) (A) (A) (A) (A)
                 (A) (A) (A) (A) (A) (A) (A) (A) (A) (A) (A) (A)
                 (A) (A) (A) (A) (A) (A) (A) (A) (A) (A) (A) (A)
       Virtual   (A) (A) (A) (A) (A) (A) (A) (A) (A) (A) (A) (A)
                 (A) (A) (A) (A) (A) (A) (A) (A) (A) (A) (A) (A)
                 (A) (A) (A) (A) (A) (A) (A) (A) (A) (A) (A) (A)
                 (A) (A) (A) (A) (A) (A) (A) (A) (A) (A) (A) (A)
                 (A) (A) (A) (A) (A) (A) (A) (A) (A) (A) (A) (A)
                 (A) (A) (A) (A) (A) (A) (A) (A) (A) (A) (A) (A)
                 (A) (A) (A) (A) (A) (A) (A) (A) (A) (A) (A) (A)
                 (A) (A) (A) (A) (A) (A) (A) (A) (A) (A) (A) (A)
                 (A) (A) (A) (A) (A) (A) (A) (A) (A) (A) (A) (A)
                 (A) (A) (A) (A) (A) (A) (A) (A) (A) (A) (A) (A)
                 (A) (A) (A) (A) (A) (A) (A) (A) (A) (A) (A) (A)
                 (A) (A) (A) (A) (A) (A) (A) (A) (A) (A) (A) (A)
                 (A) (A) (A) (A) (A) (A) (A) (A) (A) (A) (A) (A)
                 (A) (A) (A) (A) (A) (A) (A) (A) (A) (A) (A) (A)
                 (A) (A) (A) (A) (A) (A) (A) (A) (A) (A) (A) (A)
                 (A) (A) (A) (A) (A) (A) (A) (A) (A) (A) (A) (A)
                 (A) (A) (A) (A) (A) (A) (A) (A)
 The electronic state is 1-A.
 Alpha  occ. eigenvalues --  -19.69524 -19.64600 -19.60963 -19.60736 -10.71268
 Alpha  occ. eigenvalues --  -10.62926 -10.56995 -10.56338 -10.55810 -10.55755
 Alpha  occ. eigenvalues --  -10.55325 -10.54891  -1.24458  -1.15076  -1.08905
 Alpha  occ. eigenvalues --   -1.08669  -0.91405  -0.87610  -0.84778  -0.81509
 Alpha  occ. eigenvalues --   -0.74678  -0.69315  -0.65173  -0.60767  -0.59802
 Alpha  occ. eigenvalues --   -0.59582  -0.58642  -0.57285  -0.56394  -0.54057
 Alpha  occ. eigenvalues --   -0.51585  -0.51476  -0.48747  -0.47834  -0.47452
 Alpha  occ. eigenvalues --   -0.46670  -0.45666  -0.45505  -0.45082  -0.43261
 Alpha  occ. eigenvalues --   -0.41594  -0.40623  -0.39193  -0.37765  -0.37355
 Alpha  occ. eigenvalues --   -0.36987  -0.36342  -0.27996
 Alpha virt. eigenvalues --    0.00752   0.03619   0.08954   0.10289   0.11580
 Alpha virt. eigenvalues --    0.12114   0.12584   0.13316   0.14309   0.15492
 Alpha virt. eigenvalues --    0.17213   0.17778   0.18028   0.19151   0.19700
 Alpha virt. eigenvalues --    0.20482   0.22009   0.22888   0.23678   0.24972
 Alpha virt. eigenvalues --    0.25518   0.28978   0.30653   0.33466   0.37060
 Alpha virt. eigenvalues --    0.37849   0.39969   0.41479   0.43370   0.45502
 Alpha virt. eigenvalues --    0.46714   0.47704   0.48102   0.49173   0.50926
 Alpha virt. eigenvalues --    0.52414   0.54867   0.55807   0.56328   0.58585
 Alpha virt. eigenvalues --    0.59668   0.60781   0.61043   0.63447   0.64138
 Alpha virt. eigenvalues --    0.64935   0.66135   0.67411   0.68061   0.68192
 Alpha virt. eigenvalues --    0.68623   0.69837   0.70342   0.70873   0.71515
 Alpha virt. eigenvalues --    0.71690   0.73048   0.73576   0.73914   0.74247
 Alpha virt. eigenvalues --    0.74337   0.75392   0.75902   0.76369   0.76784
 Alpha virt. eigenvalues --    0.77806   0.80644   0.83653   0.88520   0.90580
 Alpha virt. eigenvalues --    0.91636   0.96237   0.97760   1.00076   1.02283
 Alpha virt. eigenvalues --    1.04706   1.06696   1.08197   1.09836   1.10014
 Alpha virt. eigenvalues --    1.12254   1.14000   1.14223   1.16289   1.20901
 Alpha virt. eigenvalues --    1.21895   1.23940   1.25670   1.28719   1.31166
 Alpha virt. eigenvalues --    1.32620   1.33484   1.34002   1.36155   1.37408
 Alpha virt. eigenvalues --    1.39667   1.42482   1.45033   1.46731   1.48396
 Alpha virt. eigenvalues --    1.51346   1.53158   1.55242   1.57662   1.58546
 Alpha virt. eigenvalues --    1.59089   1.59402   1.60076   1.60979   1.62496
 Alpha virt. eigenvalues --    1.62945   1.63978   1.70884   1.72441   1.74164
 Alpha virt. eigenvalues --    1.75830   1.76672   1.78377   1.80054   1.82073
 Alpha virt. eigenvalues --    1.82090   1.83077   1.83633   1.84293   1.84599
 Alpha virt. eigenvalues --    1.85427   1.86763   1.87172   1.87621   1.89843
 Alpha virt. eigenvalues --    1.91166   1.91688   1.93647   1.95632   1.95999
 Alpha virt. eigenvalues --    1.99640   1.99990   2.05936   2.07872   2.09358
 Alpha virt. eigenvalues --    2.09978   2.12084   2.15165   2.17104   2.19963
 Alpha virt. eigenvalues --    2.21705   2.27810   2.28761   2.30142   2.30291
 Alpha virt. eigenvalues --    2.31459   2.32590   2.34059   2.34646   2.39234
 Alpha virt. eigenvalues --    2.40558   2.45773   2.46728   2.47726   2.49896
 Alpha virt. eigenvalues --    2.53114   2.54321   2.55217   2.58313   2.62780
 Alpha virt. eigenvalues --    2.67603   2.68879   2.71008   2.73342   2.75848
 Alpha virt. eigenvalues --    2.77746   2.81998   2.84696   2.86286   2.89823
 Alpha virt. eigenvalues --    2.91160   2.92391   2.93500   2.95172   2.99630
 Alpha virt. eigenvalues --    3.03218   3.04184   3.05880   3.06819   3.07196
 Alpha virt. eigenvalues --    3.10215   3.12016   3.16811   3.20701   3.24422
 Alpha virt. eigenvalues --    3.25418   3.27074   3.37623   3.47345   3.55565
 Alpha virt. eigenvalues --    3.56418   3.67437   3.70916   3.88123   3.89903
          Condensed to atoms (all electrons):
               1          2          3          4          5          6
     1  C    4.883173   0.411947   0.325117  -0.043211   0.626706  -0.033038
     2  H    0.411947   0.645172  -0.042701  -0.010104  -0.050514   0.008398
     3  C    0.325117  -0.042701   4.949648   0.330833  -0.045662  -0.021313
     4  H   -0.043211  -0.010104   0.330833   0.724014   0.010711  -0.000012
     5  C    0.626706  -0.050514  -0.045662   0.010711   4.892042   0.401310
     6  H   -0.033038   0.008398  -0.021313  -0.000012   0.401310   0.633768
     7  C   -0.054765  -0.014415   0.010273  -0.000297   0.388474  -0.043645
     8  H    0.001623   0.000275  -0.000519   0.000012  -0.019372  -0.003558
     9  H   -0.012339   0.006976   0.000572   0.000015  -0.026138   0.006452
    10  H    0.000991   0.000146  -0.000193   0.000002  -0.017966  -0.003252
    11  C   -0.048547   0.010363   0.597608  -0.047546  -0.022108   0.009328
    12  H   -0.019422   0.000067  -0.021177   0.007807   0.008515   0.002192
    13  C    0.010619  -0.000244  -0.060056  -0.027606   0.000142  -0.000063
    14  H   -0.000222   0.000014   0.002027   0.000145   0.000060   0.000023
    15  H    0.000094  -0.000002   0.000500   0.000882  -0.000060  -0.000028
    16  C    0.000001   0.000000  -0.001086   0.001037   0.000000   0.000000
    17  C    0.000003   0.000000   0.000047   0.000153   0.000000   0.000000
    18  H    0.000000   0.000000  -0.000015  -0.000006   0.000000   0.000000
    19  H    0.000000   0.000000   0.000003  -0.000003   0.000000   0.000000
    20  H    0.000000   0.000000  -0.000011  -0.000001   0.000000   0.000000
    21  O    0.000535  -0.000005   0.011622   0.004196  -0.000003  -0.000001
    22  O   -0.000001   0.000000  -0.000146  -0.000146   0.000000   0.000000
    23  O    0.000000   0.000000   0.000000   0.000000   0.000000   0.000000
    24  H    0.000000   0.000000   0.000000   0.000000   0.000000   0.000000
    25  H    0.000000   0.000000   0.000000   0.000000   0.000000   0.000000
    26  O    0.000049  -0.000083  -0.017764   0.059613   0.000003   0.000000
    27  H    0.000026   0.000077   0.007657  -0.011296  -0.000022   0.000003
    28  H    0.000010   0.000003   0.000890  -0.001991   0.000000   0.000000
               7          8          9         10         11         12
     1  C   -0.054765   0.001623  -0.012339   0.000991  -0.048547  -0.019422
     2  H   -0.014415   0.000275   0.006976   0.000146   0.010363   0.000067
     3  C    0.010273  -0.000519   0.000572  -0.000193   0.597608  -0.021177
     4  H   -0.000297   0.000012   0.000015   0.000002  -0.047546   0.007807
     5  C    0.388474  -0.019372  -0.026138  -0.017966  -0.022108   0.008515
     6  H   -0.043645  -0.003558   0.006452  -0.003252   0.009328   0.002192
     7  C    4.576226   0.386990   0.402007   0.384793   0.000263  -0.000134
     8  H    0.386990   0.617120  -0.021859  -0.021939   0.000069   0.000027
     9  H    0.402007  -0.021859   0.615604  -0.021301   0.000005   0.000005
    10  H    0.384793  -0.021939  -0.021301   0.615274  -0.000034  -0.000040
    11  C    0.000263   0.000069   0.000005  -0.000034   5.055651   0.396408
    12  H   -0.000134   0.000027   0.000005  -0.000040   0.396408   0.602025
    13  C    0.000003   0.000001   0.000001  -0.000003   0.326658  -0.034317
    14  H    0.000001   0.000000   0.000000   0.000000  -0.031689  -0.001922
    15  H   -0.000002   0.000000   0.000000   0.000000  -0.022813  -0.001537
    16  C    0.000000   0.000000   0.000000   0.000000   0.008242   0.000032
    17  C    0.000000   0.000000   0.000000   0.000000  -0.000616  -0.000004
    18  H    0.000000   0.000000   0.000000   0.000000   0.000264   0.000003
    19  H    0.000000   0.000000   0.000000   0.000000  -0.000039   0.000000
    20  H    0.000000   0.000000   0.000000   0.000000   0.000793  -0.000002
    21  O    0.000000   0.000000   0.000000   0.000000  -0.070655   0.002308
    22  O    0.000000   0.000000   0.000000   0.000000   0.000213   0.000004
    23  O    0.000000   0.000000   0.000000   0.000000   0.000000   0.000000
    24  H    0.000000   0.000000   0.000000   0.000000   0.000002   0.000000
    25  H    0.000000   0.000000   0.000000   0.000000   0.000000   0.000000
    26  O    0.000000   0.000000   0.000000   0.000000  -0.000149  -0.000003
    27  H    0.000001   0.000000   0.000000   0.000000  -0.000485  -0.000004
    28  H    0.000000   0.000000   0.000000   0.000000  -0.000294   0.000006
              13         14         15         16         17         18
     1  C    0.010619  -0.000222   0.000094   0.000001   0.000003   0.000000
     2  H   -0.000244   0.000014  -0.000002   0.000000   0.000000   0.000000
     3  C   -0.060056   0.002027   0.000500  -0.001086   0.000047  -0.000015
     4  H   -0.027606   0.000145   0.000882   0.001037   0.000153  -0.000006
     5  C    0.000142   0.000060  -0.000060   0.000000   0.000000   0.000000
     6  H   -0.000063   0.000023  -0.000028   0.000000   0.000000   0.000000
     7  C    0.000003   0.000001  -0.000002   0.000000   0.000000   0.000000
     8  H    0.000001   0.000000   0.000000   0.000000   0.000000   0.000000
     9  H    0.000001   0.000000   0.000000   0.000000   0.000000   0.000000
    10  H   -0.000003   0.000000   0.000000   0.000000   0.000000   0.000000
    11  C    0.326658  -0.031689  -0.022813   0.008242  -0.000616   0.000264
    12  H   -0.034317  -0.001922  -0.001537   0.000032  -0.000004   0.000003
    13  C    4.535480   0.401824   0.393281  -0.043438   0.009576  -0.001839
    14  H    0.401824   0.611697  -0.031724  -0.011941   0.010513   0.000397
    15  H    0.393281  -0.031724   0.607618  -0.006140   0.002030  -0.000719
    16  C   -0.043438  -0.011941  -0.006140   4.510103   0.380776  -0.004882
    17  C    0.009576   0.010513   0.002030   0.380776   4.807879   0.374138
    18  H   -0.001839   0.000397  -0.000719  -0.004882   0.374138   0.541020
    19  H    0.000670   0.000018  -0.000005  -0.001895   0.314314  -0.007827
    20  H    0.002589  -0.002610   0.000806  -0.007239   0.373125  -0.010867
    21  O    0.283572  -0.025964  -0.026434   0.347276  -0.094007   0.001245
    22  O    0.001303   0.000024   0.000022   0.586212  -0.074750   0.000969
    23  O    0.000001   0.000000   0.000000   0.001573  -0.019671   0.000013
    24  H   -0.000018  -0.000002   0.000002  -0.004184   0.002014   0.000139
    25  H    0.000000   0.000001   0.000000   0.000261   0.001255  -0.000113
    26  O    0.000022  -0.000010   0.000002   0.002136   0.000000   0.000001
    27  H    0.000394   0.000074  -0.000166   0.002155   0.000124   0.000000
    28  H    0.000078  -0.000003   0.000039  -0.001694   0.001551  -0.000073
              19         20         21         22         23         24
     1  C    0.000000   0.000000   0.000535  -0.000001   0.000000   0.000000
     2  H    0.000000   0.000000  -0.000005   0.000000   0.000000   0.000000
     3  C    0.000003  -0.000011   0.011622  -0.000146   0.000000   0.000000
     4  H   -0.000003  -0.000001   0.004196  -0.000146   0.000000   0.000000
     5  C    0.000000   0.000000  -0.000003   0.000000   0.000000   0.000000
     6  H    0.000000   0.000000  -0.000001   0.000000   0.000000   0.000000
     7  C    0.000000   0.000000   0.000000   0.000000   0.000000   0.000000
     8  H    0.000000   0.000000   0.000000   0.000000   0.000000   0.000000
     9  H    0.000000   0.000000   0.000000   0.000000   0.000000   0.000000
    10  H    0.000000   0.000000   0.000000   0.000000   0.000000   0.000000
    11  C   -0.000039   0.000793  -0.070655   0.000213   0.000000   0.000002
    12  H    0.000000  -0.000002   0.002308   0.000004   0.000000   0.000000
    13  C    0.000670   0.002589   0.283572   0.001303   0.000001  -0.000018
    14  H    0.000018  -0.002610  -0.025964   0.000024   0.000000  -0.000002
    15  H   -0.000005   0.000806  -0.026434   0.000022   0.000000   0.000002
    16  C   -0.001895  -0.007239   0.347276   0.586212   0.001573  -0.004184
    17  C    0.314314   0.373125  -0.094007  -0.074750  -0.019671   0.002014
    18  H   -0.007827  -0.010867   0.001245   0.000969   0.000013   0.000139
    19  H    0.606684  -0.010702   0.003517  -0.003503   0.057793  -0.010425
    20  H   -0.010702   0.551965   0.000108   0.001363   0.000106   0.000057
    21  O    0.003517   0.000108   7.985387  -0.089360  -0.000003   0.000462
    22  O   -0.003503   0.001363  -0.089360   7.861725  -0.012709   0.041629
    23  O    0.057793   0.000106  -0.000003  -0.012709   7.670266   0.341905
    24  H   -0.010425   0.000057   0.000462   0.041629   0.341905   0.471949
    25  H   -0.001165   0.000034   0.000002   0.000749   0.334148  -0.030151
    26  O    0.000000   0.000002  -0.002092  -0.011001   0.000000   0.000001
    27  H   -0.000001  -0.000011   0.003500   0.000339   0.000000  -0.000007
    28  H   -0.000024  -0.000065   0.000182   0.039230   0.000001   0.000059
              25         26         27         28
     1  C    0.000000   0.000049   0.000026   0.000010
     2  H    0.000000  -0.000083   0.000077   0.000003
     3  C    0.000000  -0.017764   0.007657   0.000890
     4  H    0.000000   0.059613  -0.011296  -0.001991
     5  C    0.000000   0.000003  -0.000022   0.000000
     6  H    0.000000   0.000000   0.000003   0.000000
     7  C    0.000000   0.000000   0.000001   0.000000
     8  H    0.000000   0.000000   0.000000   0.000000
     9  H    0.000000   0.000000   0.000000   0.000000
    10  H    0.000000   0.000000   0.000000   0.000000
    11  C    0.000000  -0.000149  -0.000485  -0.000294
    12  H    0.000000  -0.000003  -0.000004   0.000006
    13  C    0.000000   0.000022   0.000394   0.000078
    14  H    0.000001  -0.000010   0.000074  -0.000003
    15  H    0.000000   0.000002  -0.000166   0.000039
    16  C    0.000261   0.002136   0.002155  -0.001694
    17  C    0.001255   0.000000   0.000124   0.001551
    18  H   -0.000113   0.000001   0.000000  -0.000073
    19  H   -0.001165   0.000000  -0.000001  -0.000024
    20  H    0.000034   0.000002  -0.000011  -0.000065
    21  O    0.000002  -0.002092   0.003500   0.000182
    22  O    0.000749  -0.011001   0.000339   0.039230
    23  O    0.334148   0.000000   0.000000   0.000001
    24  H   -0.030151   0.000001  -0.000007   0.000059
    25  H    0.507063   0.000000   0.000000  -0.000006
    26  O    0.000000   7.651860   0.331727   0.352982
    27  H    0.000000   0.331727   0.515623  -0.036472
    28  H   -0.000006   0.352982  -0.036472   0.465494
 Mulliken charges:
               1
     1  C   -0.049352
     2  H    0.034630
     3  C   -0.026156
     4  H    0.002797
     5  C   -0.146119
     6  H    0.043437
     7  C   -0.035774
     8  H    0.061130
     9  H    0.050001
    10  H    0.063520
    11  C   -0.160892
    12  H    0.059163
    13  C    0.201369
    14  H    0.079270
    15  H    0.084354
    16  C    0.242695
    17  C   -0.088452
    18  H    0.108154
    19  H    0.052591
    20  H    0.100560
    21  O   -0.335388
    22  O   -0.342165
    23  O   -0.373423
    24  H    0.186568
    25  H    0.187922
    26  O   -0.367298
    27  H    0.186763
    28  H    0.180096
 Sum of Mulliken charges =   0.00000
 Mulliken charges with hydrogens summed into heavy atoms:
               1
     1  C   -0.014722
     3  C   -0.023359
     5  C   -0.102682
     7  C    0.138876
    11  C   -0.101728
    13  C    0.364993
    16  C    0.242695
    17  C    0.172853
    21  O   -0.335388
    22  O   -0.342165
    23  O    0.001066
    26  O   -0.000439
 Electronic spatial extent (au):  <R**2>=           4394.5873
 Charge=              0.0000 electrons
 Dipole moment (field-independent basis, Debye):
    X=             -2.8547    Y=             -7.8040    Z=             -0.4515  Tot=              8.3220
 Quadrupole moment (field-independent basis, Debye-Ang):
   XX=            -84.2659   YY=            -77.3717   ZZ=            -70.5689
   XY=             -9.1124   XZ=            -10.1663   YZ=             -0.8132
 Traceless Quadrupole moment (field-independent basis, Debye-Ang):
   XX=             -6.8637   YY=              0.0305   ZZ=              6.8332
   XY=             -9.1124   XZ=            -10.1663   YZ=             -0.8132
 Octapole moment (field-independent basis, Debye-Ang**2):
  XXX=           -134.6401  YYY=            -41.5522  ZZZ=              2.4328  XYY=             10.3762
  XXY=            -30.3276  XXZ=            -51.3222  XZZ=             31.6021  YZZ=              4.6490
  YYZ=              0.5735  XYZ=              3.2548
 Hexadecapole moment (field-independent basis, Debye-Ang**3):
 XXXX=          -5337.1169 YYYY=           -781.0251 ZZZZ=           -108.7725 XXXY=            -96.9497
 XXXZ=           -341.5999 YYYX=             -7.0948 YYYZ=             -4.3017 ZZZX=            -24.5641
 ZZZY=              2.8432 XXYY=           -900.0755 XXZZ=           -763.3095 YYZZ=           -120.4122
 XXYZ=            -20.7601 YYXZ=             -3.3216 ZZXY=             -0.0014
 N-N= 6.942927711107D+02 E-N=-2.823210831471D+03  KE= 6.089041416860D+02
   1 Symmetry operations used in ECPInt.
 ECPInt:  NShTT=    7260 NPrTT=   25404 LenC2=    6501 LenP2D=   16602.
 LDataN:  DoStor=T MaxTD1= 5 Len=  102
 D1PCM: C-PCM CHGder 1st derivatives, ID1Alg=3 FixD1E=F DoIter=F DoCFld=F I1PDM=0.
 Calling FoFJK, ICntrl=      2127 FMM=F ISym2X=0 I1Cent= 0 IOpClX= 0 NMat=1 NMatS=1 NMatT=0.
 ***** Axes restored to original set *****
 -------------------------------------------------------------------
 Center     Atomic                   Forces (Hartrees/Bohr)
 Number     Number              X              Y              Z
 -------------------------------------------------------------------
      1        6          -0.000007557   -0.000007169   -0.000003110
      2        1           0.000023117    0.000005250   -0.000004054
      3        6          -0.000000738   -0.000008854   -0.000003278
      4        1          -0.000012559    0.000007089   -0.000010856
      5        6           0.000017564    0.000003771    0.000001258
      6        1           0.000010121   -0.000003694    0.000012330
      7        6          -0.000001952   -0.000002501    0.000001013
      8        1           0.000004440   -0.000000345    0.000005615
      9        1           0.000003547   -0.000006010   -0.000000185
     10        1           0.000002615   -0.000010329    0.000010342
     11        6          -0.000019191   -0.000016800    0.000006346
     12        1           0.000005873   -0.000005032    0.000009263
     13        6           0.000002990   -0.000017543    0.000008713
     14        1          -0.000011167    0.000003537    0.000012147
     15        1          -0.000008379    0.000008143    0.000010624
     16        6           0.000017250    0.000022727   -0.000052652
     17        6           0.000003304    0.000005514    0.000013569
     18        1          -0.000013730   -0.000004278    0.000006984
     19        1           0.000007215    0.000009060    0.000004857
     20        1          -0.000006303    0.000001038    0.000012915
     21        8          -0.000030931    0.000006396    0.000007114
     22        8           0.000021767   -0.000013373   -0.000004816
     23        8          -0.000020386    0.000012243   -0.000026711
     24        1           0.000003101    0.000005348    0.000022861
     25        1           0.000000567   -0.000001681   -0.000009396
     26        8           0.000027178   -0.000004992   -0.000028244
     27        1           0.000001331    0.000001459   -0.000004198
     28        1          -0.000019088    0.000011025    0.000001550
 -------------------------------------------------------------------
 Cartesian Forces:  Max     0.000052652 RMS     0.000012891

 GradGradGradGradGradGradGradGradGradGradGradGradGradGradGradGradGradGrad
 Berny optimization.
 FormGI is forming the generalized inverse of G from B-inverse, IUseBI=4.
 Internal  Forces:  Max     0.000054270 RMS     0.000014760
 Search for a local minimum.
 Step number   1 out of a maximum of  123
 All quantities printed in internal units (Hartrees-Bohrs-Radians)
 Mixed Optimization -- En-DIIS/RFO-DIIS
 Second derivative matrix not updated -- first step.
 ITU=  0
     Eigenvalues ---    0.00230   0.00230   0.00770   0.00812   0.00825
     Eigenvalues ---    0.01135   0.01371   0.01401   0.01409   0.01512
     Eigenvalues ---    0.01655   0.01710   0.02025   0.02028   0.02177
     Eigenvalues ---    0.02652   0.02876   0.02896   0.04144   0.04563
     Eigenvalues ---    0.05011   0.06471   0.07164   0.07330   0.07443
     Eigenvalues ---    0.07468   0.07620   0.11401   0.13914   0.15919
     Eigenvalues ---    0.15984   0.15998   0.15999   0.15999   0.16000
     Eigenvalues ---    0.16000   0.16000   0.16000   0.16000   0.16000
     Eigenvalues ---    0.16000   0.16000   0.16000   0.22000   0.22000
     Eigenvalues ---    0.22000   0.22001   0.22024   0.25000   0.25000
     Eigenvalues ---    0.25000   0.25000   0.25000   0.32411   0.32748
     Eigenvalues ---    0.32850   0.33402   0.33513   0.33529   0.33587
     Eigenvalues ---    0.33788   0.33851   0.33881   0.34031   0.34120
     Eigenvalues ---    0.34285   0.34295   0.34351   0.35494   0.41830
     Eigenvalues ---    0.53009   0.53128   0.54452   0.54466   0.57089
     Eigenvalues ---    0.57432   0.60115   0.97799
 RFO step:  Lambda=-2.41290137D-07 EMin= 2.30000000D-03
 Linear search not attempted -- first point.
 Iteration  1 RMS(Cart)=  0.00140512 RMS(Int)=  0.00000109
 Iteration  2 RMS(Cart)=  0.00000128 RMS(Int)=  0.00000001
 Iteration  3 RMS(Cart)=  0.00000000 RMS(Int)=  0.00000001
 Variable       Old X    -DE/DX   Delta X   Delta X   Delta X     New X
                                 (Linear)    (Quad)   (Total)
    R1        2.07128   0.00000   0.00000   0.00001   0.00001   2.07129
    R2        2.78180  -0.00005   0.00000  -0.00015  -0.00015   2.78165
    R3        2.53322  -0.00002   0.00000  -0.00004  -0.00004   2.53318
    R4        2.06836   0.00000   0.00000   0.00000   0.00000   2.06836
    R5        2.53033  -0.00001   0.00000  -0.00002  -0.00002   2.53031
    R6        2.07277   0.00001   0.00000   0.00003   0.00003   2.07280
    R7        2.82796  -0.00001   0.00000  -0.00003  -0.00003   2.82792
    R8        2.08033   0.00000   0.00000   0.00000   0.00000   2.08033
    R9        2.07583   0.00000   0.00000   0.00000   0.00000   2.07582
   R10        2.08133   0.00000   0.00000   0.00000   0.00000   2.08133
   R11        2.06852   0.00000   0.00000   0.00000   0.00000   2.06852
   R12        2.82615  -0.00003   0.00000  -0.00009  -0.00009   2.82606
   R13        2.08160  -0.00001   0.00000  -0.00003  -0.00003   2.08157
   R14        2.08352   0.00000   0.00000   0.00000   0.00000   2.08352
   R15        2.69141   0.00002   0.00000   0.00005   0.00005   2.69145
   R16        2.83398  -0.00001   0.00000  -0.00003  -0.00003   2.83395
   R17        2.50849   0.00002   0.00000   0.00004   0.00004   2.50853
   R18        2.29533   0.00001   0.00000   0.00001   0.00001   2.29534
   R19        2.07690   0.00000   0.00000   0.00001   0.00001   2.07691
   R20        2.06741   0.00001   0.00000   0.00002   0.00002   2.06743
   R21        2.07531   0.00001   0.00000   0.00003   0.00003   2.07534
   R22        3.61078  -0.00002   0.00000  -0.00031  -0.00031   3.61047
   R23        3.71396  -0.00001   0.00000  -0.00019  -0.00019   3.71377
   R24        1.83645  -0.00002   0.00000  -0.00004  -0.00004   1.83641
   R25        1.82310   0.00000   0.00000   0.00000   0.00000   1.82310
   R26        1.82322   0.00001   0.00000   0.00001   0.00001   1.82323
   R27        1.83535  -0.00003   0.00000  -0.00006  -0.00006   1.83529
    A1        2.02649   0.00000   0.00000  -0.00004  -0.00005   2.02645
    A2        2.06765   0.00005   0.00000   0.00029   0.00029   2.06794
    A3        2.18881  -0.00005   0.00000  -0.00025  -0.00025   2.18856
    A4        2.04038  -0.00001   0.00000  -0.00006  -0.00006   2.04032
    A5        2.17536  -0.00002   0.00000  -0.00008  -0.00008   2.17529
    A6        2.06743   0.00002   0.00000   0.00014   0.00014   2.06757
    A7        2.06916  -0.00002   0.00000  -0.00008  -0.00008   2.06908
    A8        2.17799   0.00002   0.00000   0.00007   0.00007   2.17806
    A9        2.03598   0.00000   0.00000   0.00001   0.00001   2.03599
   A10        1.93854  -0.00001   0.00000  -0.00004  -0.00004   1.93850
   A11        1.94378   0.00000   0.00000  -0.00002  -0.00002   1.94377
   A12        1.93352  -0.00001   0.00000  -0.00003  -0.00003   1.93348
   A13        1.89564   0.00001   0.00000   0.00003   0.00003   1.89568
   A14        1.85898   0.00000   0.00000   0.00001   0.00001   1.85899
   A15        1.89059   0.00001   0.00000   0.00005   0.00005   1.89064
   A16        2.10407   0.00002   0.00000   0.00012   0.00012   2.10419
   A17        2.18164  -0.00003   0.00000  -0.00016  -0.00016   2.18148
   A18        1.99736   0.00001   0.00000   0.00004   0.00004   1.99740
   A19        1.92100  -0.00001   0.00000  -0.00007  -0.00007   1.92093
   A20        1.92606   0.00000   0.00000  -0.00004  -0.00004   1.92602
   A21        1.90306  -0.00002   0.00000  -0.00010  -0.00010   1.90296
   A22        1.87774   0.00001   0.00000   0.00007   0.00007   1.87781
   A23        1.92127   0.00001   0.00000   0.00010   0.00010   1.92137
   A24        1.91471   0.00001   0.00000   0.00004   0.00004   1.91475
   A25        2.08016  -0.00004   0.00000  -0.00016  -0.00016   2.08000
   A26        2.15448   0.00000   0.00000   0.00001   0.00001   2.15449
   A27        2.04854   0.00004   0.00000   0.00015   0.00015   2.04869
   A28        1.91925  -0.00001   0.00000  -0.00006  -0.00006   1.91919
   A29        1.88386   0.00000   0.00000   0.00001   0.00001   1.88386
   A30        1.93022   0.00000   0.00000  -0.00004  -0.00004   1.93018
   A31        1.91929   0.00001   0.00000   0.00010   0.00010   1.91939
   A32        1.88236   0.00000   0.00000  -0.00005  -0.00005   1.88232
   A33        1.92916   0.00000   0.00000   0.00004   0.00004   1.92920
   A34        2.13886  -0.00002   0.00000  -0.00007  -0.00007   2.13878
   A35        1.99711   0.00002   0.00000   0.00010   0.00010   1.99722
   A36        1.84359   0.00001   0.00000   0.00005   0.00005   1.84364
   A37        2.43743  -0.00003   0.00000  -0.00020  -0.00020   2.43723
   A38        1.79565   0.00000   0.00000   0.00001   0.00001   1.79566
   A39        2.86942   0.00000   0.00000   0.00001   0.00001   2.86943
   A40        1.77137   0.00000   0.00000  -0.00003  -0.00003   1.77134
   A41        2.85284   0.00000   0.00000   0.00000   0.00000   2.85284
    D1        0.47596   0.00000   0.00000  -0.00013  -0.00013   0.47583
    D2       -2.66070  -0.00001   0.00000  -0.00038  -0.00038  -2.66108
    D3       -2.64224   0.00000   0.00000   0.00011   0.00011  -2.64213
    D4        0.50428   0.00000   0.00000  -0.00014  -0.00014   0.50414
    D5       -3.08447   0.00000   0.00000   0.00017   0.00017  -3.08430
    D6        0.04588   0.00000   0.00000   0.00017   0.00017   0.04605
    D7        0.03323   0.00000   0.00000  -0.00007  -0.00007   0.03316
    D8       -3.11961   0.00000   0.00000  -0.00008  -0.00008  -3.11968
    D9        0.04191   0.00001   0.00000   0.00035   0.00035   0.04225
   D10       -3.11691   0.00001   0.00000   0.00042   0.00042  -3.11649
   D11       -3.09469   0.00000   0.00000   0.00010   0.00010  -3.09459
   D12        0.02969   0.00001   0.00000   0.00016   0.00016   0.02985
   D13       -2.13284   0.00000   0.00000   0.00006   0.00006  -2.13278
   D14       -0.01748   0.00000   0.00000   0.00007   0.00007  -0.01741
   D15        2.08801   0.00000   0.00000   0.00010   0.00010   2.08811
   D16        0.99770   0.00000   0.00000   0.00006   0.00006   0.99776
   D17        3.11306   0.00000   0.00000   0.00006   0.00006   3.11312
   D18       -1.06463   0.00000   0.00000   0.00009   0.00009  -1.06454
   D19       -2.10554   0.00000   0.00000   0.00035   0.00035  -2.10519
   D20        2.10778   0.00000   0.00000   0.00032   0.00032   2.10810
   D21        0.00359   0.00000   0.00000   0.00037   0.00037   0.00396
   D22        1.01976   0.00000   0.00000   0.00041   0.00041   1.02018
   D23       -1.05010   0.00000   0.00000   0.00039   0.00039  -1.04971
   D24        3.12890   0.00001   0.00000   0.00043   0.00043   3.12933
   D25       -2.99112   0.00001   0.00000   0.00053   0.00053  -2.99060
   D26       -0.88216   0.00000   0.00000   0.00044   0.00044  -0.88171
   D27        1.18092   0.00002   0.00000   0.00062   0.00062   1.18154
   D28        1.12258   0.00000   0.00000   0.00002   0.00002   1.12260
   D29       -3.06682   0.00001   0.00000   0.00012   0.00012  -3.06670
   D30       -0.95449   0.00001   0.00000   0.00015   0.00015  -0.95434
   D31       -2.01616  -0.00001   0.00000  -0.00049  -0.00049  -2.01665
   D32        0.07763  -0.00001   0.00000  -0.00040  -0.00040   0.07723
   D33        2.18996   0.00000   0.00000  -0.00037  -0.00037   2.18959
   D34       -0.02128   0.00001   0.00000   0.00022   0.00022  -0.02105
   D35        3.11763   0.00002   0.00000   0.00070   0.00070   3.11834
   D36       -0.04338   0.00001   0.00000   0.00029   0.00029  -0.04309
   D37       -3.09879   0.00002   0.00000   0.00069   0.00069  -3.09810
   D38        3.10102   0.00000   0.00000  -0.00022  -0.00022   3.10080
   D39        0.04561   0.00001   0.00000   0.00019   0.00019   0.04580
   D40        0.17635   0.00001   0.00000   0.00281   0.00281   0.17916
   D41       -3.09363   0.00000   0.00000   0.00224   0.00224  -3.09140
   D42        0.90726   0.00000   0.00000   0.00219   0.00219   0.90945
   D43       -2.11298   0.00001   0.00000   0.00273   0.00273  -2.11025
   D44        1.30845   0.00000   0.00000   0.00011   0.00011   1.30856
   D45       -0.13139   0.00001   0.00000   0.00051   0.00051  -0.13088
         Item               Value     Threshold  Converged?
 Maximum Force            0.000054     0.000450     YES
 RMS     Force            0.000015     0.000300     YES
 Maximum Displacement     0.006757     0.001800     NO 
 RMS     Displacement     0.001405     0.001200     NO 
 Predicted change in Energy=-1.206428D-07
 GradGradGradGradGradGradGradGradGradGradGradGradGradGradGradGradGradGrad

                          Input orientation:                          
 ---------------------------------------------------------------------
 Center     Atomic      Atomic             Coordinates (Angstroms)
 Number     Number       Type             X           Y           Z
 ---------------------------------------------------------------------
      1          6           0       -3.293011    0.461581   -0.375719
      2          1           0       -3.521454    1.355517   -0.967394
      3          6           0       -1.866951    0.125079   -0.234777
      4          1           0       -1.154069    0.953165   -0.298528
      5          6           0       -4.309008   -0.216273    0.176734
      6          1           0       -4.078677   -1.078918    0.813861
      7          6           0       -5.756238    0.122337    0.002660
      8          1           0       -6.239863    0.303965    0.974780
      9          1           0       -5.885924    1.014080   -0.625536
     10          1           0       -6.299458   -0.713358   -0.465944
     11          6           0       -1.392453   -1.112005   -0.041537
     12          1           0       -2.070848   -1.970680   -0.016319
     13          6           0        0.051705   -1.458990    0.133080
     14          1           0        0.369192   -2.161874   -0.653367
     15          1           0        0.212617   -1.952484    1.105800
     16          6           0        2.153978   -0.279009    0.019806
     17          6           0        2.874640   -1.593307    0.067252
     18          1           0        2.630238   -2.187628   -0.824357
     19          1           0        3.948794   -1.387730    0.096427
     20          1           0        2.568643   -2.169923    0.950416
     21          8           0        0.827364   -0.266397    0.065435
     22          8           0        2.720346    0.792422   -0.061546
     23          8           0        5.547029    0.366867   -0.072216
     24          1           0        4.627635    0.680909   -0.050691
     25          1           0        5.682198    0.160855   -1.004964
     26          8           0        0.525707    2.675948    0.255505
     27          1           0        0.167612    2.149500    0.980410
     28          1           0        1.299146    2.148498   -0.002963
 ---------------------------------------------------------------------
                    Distance matrix (angstroms):
                    1          2          3          4          5
     1  C    0.000000
     2  H    1.096078   0.000000
     3  C    1.471987   2.188169   0.000000
     4  H    2.196061   2.492745   1.094528   0.000000
     5  C    1.340500   2.097569   2.499901   3.398102   0.000000
     6  H    2.098931   3.067546   2.727816   3.730965   1.096878
     7  C    2.515103   2.730567   3.896529   4.686251   1.496473
     8  H    3.245401   3.502506   4.540637   5.282809   2.153073
     9  H    2.662867   2.413331   4.134629   4.743532   2.155010
    10  H    3.229141   3.499858   4.517027   5.411133   2.149888
    11  C    2.489974   3.387996   1.338980   2.094707   3.058803
    12  H    2.745677   3.751317   2.116956   3.077173   2.850364
    13  C    3.890321   4.679739   2.515122   2.731057   4.534543
    14  H    4.513461   5.254310   3.225788   3.485643   5.134198
    15  H    4.506888   5.402248   3.230793   3.504678   4.931804
    16  C    5.511316   5.988052   4.049194   3.544399   6.465196
    17  C    6.516035   7.118713   5.052402   4.780043   7.315259
    18  H    6.504188   7.100539   5.091260   4.945914   7.282964
    19  H    7.489100   8.028806   6.018404   5.628054   8.340867
    20  H    6.560674   7.293559   5.132857   5.017183   7.191483
    21  O    4.207382   4.754951   2.739109   2.354969   5.137823
    22  O    6.030640   6.332274   4.638819   3.884983   7.105354
    23  O    8.845756   9.166033   7.419703   6.730504   9.876412
    24  H    7.930346   8.228189   6.520927   5.793415   8.984445
    25  H    9.002264   9.280939   7.588420   6.918190  10.067911
    26  O    4.459200   4.429281   3.531588   2.469125   5.634324
    27  H    4.082164   4.246593   3.116794   2.194023   5.126685
    28  H    4.906377   4.979671   3.764589   2.744894   6.088992
                    6          7          8          9         10
     6  H    0.000000
     7  C    2.217041   0.000000
     8  H    2.570795   1.100864   0.000000
     9  H    3.117475   1.098478   1.786211   0.000000
    10  H    2.589094   1.101392   1.764705   1.783403   0.000000
    11  C    2.819326   4.535215   5.151238   5.005255   4.941431
    12  H    2.348577   4.238298   4.851491   4.882083   4.434429
    13  C    4.203329   6.020781   6.587890   6.476652   6.422778
    14  H    4.807191   6.570303   7.239532   7.015264   6.826728
    15  H    4.389026   6.414751   6.836901   6.999302   6.812704
    16  C    6.333749   7.920410   8.468082   8.168756   8.478514
    17  C    7.012178   8.799981   9.354005   9.166565   9.231614
    18  H    6.994465   8.738013   9.387418   9.100301   9.057671
    19  H    8.065381   9.822258  10.365427  10.149463  10.285802
    20  H    6.737641   8.686561   9.149344   9.170671   9.097850
    21  O    5.028874   6.595367   7.148281   6.869156   7.160568
    22  O    7.105980   8.503270   9.033156   8.627578   9.153566
    23  O    9.773927  11.306160  11.833469  11.464618  11.902150
    24  H    8.924366  10.399022  10.922280  10.534533  11.023511
    25  H   10.005990  11.482796  12.086166  11.605749  12.025592
    26  O    5.967506   6.785844   7.205317   6.681844   7.654460
    27  H    5.336796   6.336985   6.667966   6.365024   7.218787
    28  H    6.324903   7.340558   7.822719   7.300666   8.132857
                   11         12         13         14         15
    11  C    0.000000
    12  H    1.094614   0.000000
    13  C    1.495487   2.188465   0.000000
    14  H    2.140082   2.529067   1.101518   0.000000
    15  H    2.144537   2.544346   1.102549   1.778491   0.000000
    16  C    3.643463   4.551068   2.413450   2.680263   2.783665
    17  C    4.295529   4.960570   2.826895   2.668301   2.879923
    18  H    4.236958   4.774956   2.845423   2.267649   3.102530
    19  H    5.350138   6.048854   3.897913   3.738321   3.911113
    20  H    4.218228   4.743328   2.740153   2.722089   2.371136
    21  O    2.377832   3.363168   1.424255   2.078325   2.074407
    22  O    4.532367   5.531032   3.496909   3.821785   3.896910
    23  O    7.095380   7.968645   5.794349   5.791569   5.934903
    24  H    6.281408   7.204289   5.054906   5.155480   5.269214
    25  H    7.252520   8.101271   5.968374   5.809193   6.232002
    26  O    4.256307   5.329834   4.163817   4.924943   4.716292
    27  H    3.757072   4.793751   3.708450   4.614955   4.104147
    28  H    4.228128   5.322092   3.819501   4.457258   4.384970
                   16         17         18         19         20
    16  C    0.000000
    17  C    1.499662   0.000000
    18  H    2.140622   1.099053   0.000000
    19  H    2.111042   1.094039   1.796182   0.000000
    20  H    2.147915   1.098225   1.775929   1.801649   0.000000
    21  O    1.327458   2.439679   2.780866   3.316877   2.727390
    22  O    1.214641   2.394180   3.077450   2.507410   3.134097
    23  O    3.455202   3.317137   3.949535   2.379371   4.043743
    24  H    2.654315   2.873841   3.580036   2.182140   3.656351
    25  H    3.700266   3.479815   3.855185   2.572133   4.353189
    26  O    3.382098   4.876419   5.408283   5.315667   5.304616
    27  H    3.281169   4.708552   5.303998   5.252691   4.941991
    28  H    2.573723   4.060569   4.609608   4.419890   4.601013
                   21         22         23         24         25
    21  O    0.000000
    22  O    2.172694   0.000000
    23  O    4.763949   2.858558   0.000000
    24  H    3.918282   1.910577   0.971788   0.000000
    25  H    4.989760   3.171984   0.964744   1.514330   0.000000
    26  O    2.963868   2.909404   5.536510   4.571625   5.874000
    27  H    2.666272   3.073074   5.764021   4.807467   6.189271
    28  H    2.461498   1.965244   4.606900   3.637986   4.915880
                   26         27         28
    26  O    0.000000
    27  H    0.964813   0.000000
    28  H    0.971193   1.499130   0.000000
 Stoichiometry    C8H16O4
 Framework group  C1[X(C8H16O4)]
 Deg. of freedom    78
 Full point group                 C1      NOp   1
 Largest Abelian subgroup         C1      NOp   1
 Largest concise Abelian subgroup C1      NOp   1
                         Standard orientation:                         
 ---------------------------------------------------------------------
 Center     Atomic      Atomic             Coordinates (Angstroms)
 Number     Number       Type             X           Y           Z
 ---------------------------------------------------------------------
      1          6           0       -3.292948    0.461728   -0.375717
      2          1           0       -3.521359    1.355501   -0.967650
      3          6           0       -1.866902    0.125196   -0.234709
      4          1           0       -1.153980    0.953228   -0.298719
      5          6           0       -4.308966   -0.215913    0.176958
      6          1           0       -4.078663   -1.078382    0.814333
      7          6           0       -5.756183    0.122718    0.002817
      8          1           0       -6.239777    0.304656    0.974895
      9          1           0       -5.885839    1.014283   -0.625638
     10          1           0       -6.299456   -0.713088   -0.465529
     11          6           0       -1.392461   -1.111855   -0.041117
     12          1           0       -2.070899   -1.970488   -0.015631
     13          6           0        0.051684   -1.458861    0.133570
     14          1           0        0.369117   -2.161992   -0.652678
     15          1           0        0.212593   -1.952077    1.106432
     16          6           0        2.154014   -0.279018    0.019900
     17          6           0        2.874611   -1.593338    0.067717
     18          1           0        2.630159   -2.187909   -0.823712
     19          1           0        3.948776   -1.387806    0.096807
     20          1           0        2.568605   -2.169679    0.951057
     21          8           0        0.827401   -0.266326    0.065557
     22          8           0        2.720432    0.792360   -0.061779
     23          8           0        5.547095    0.366661   -0.072389
     24          1           0        4.627717    0.680756   -0.050935
     25          1           0        5.682232    0.160368   -1.005079
     26          8           0        0.525895    2.676089    0.254769
     27          1           0        0.167790    2.149873    0.979836
     28          1           0        1.299302    2.148525   -0.003562
 ---------------------------------------------------------------------
 Rotational constants (GHZ):      1.9812612      0.2741561      0.2438019
 Standard basis: def2SVP (5D, 7F)
 There are   260 symmetry adapted cartesian basis functions of A   symmetry.
 There are   248 symmetry adapted basis functions of A   symmetry.
   248 basis functions,   412 primitive gaussians,   260 cartesian basis functions
    48 alpha electrons       48 beta electrons
       nuclear repulsion energy       694.2942284146 Hartrees.
 NAtoms=   28 NActive=   28 NUniq=   28 SFac= 1.00D+00 NAtFMM=   60 NAOKFM=F Big=F
 Integral buffers will be    131072 words long.
 Raffenetti 2 integral format.
 Two-electron integral symmetry is turned on.
 Nuclear repulsion after empirical dispersion term =      694.2930554054 Hartrees.
 ------------------------------------------------------------------------------
 Polarizable Continuum Model (PCM)
 =================================
 Model                : C-PCM.
 Atomic radii         : UFF (Universal Force Field).
 Polarization charges : Total charges.
 Charge compensation  : None.
 Solution method      : On-the-fly selection.
 Cavity type          : Scaled VdW (van der Waals Surface) (Alpha=1.100).
 Cavity algorithm     : GePol (No added spheres)
                        Default sphere list used, NSphG=   28.
                        Lebedev-Laikov grids with approx.  5.0 points / Ang**2.
                        Smoothing algorithm: Karplus/York (Gamma=1.0000).
                        Polarization charges: spherical gaussians, with
                                              point-specific exponents (IZeta= 3).
                        Self-potential: point-specific (ISelfS= 7).
                        Self-field    : sphere-specific E.n sum rule (ISelfD= 2).
 1st derivatives      : Analytical E(r).r(x)/FMM algorithm (CHGder, D1EAlg=3).
                        Cavity 1st derivative terms included.
 Solvent              : Water, Eps=  78.355300 Eps(inf)=   1.777849
 ------------------------------------------------------------------------------
 One-electron integrals computed using PRISM.
   1 Symmetry operations used in ECPInt.
 ECPInt:  NShTT=    7260 NPrTT=   25404 LenC2=    6501 LenP2D=   16601.
 LDataN:  DoStor=T MaxTD1= 4 Len=   56
 NBasis=   248 RedAO= T EigKep=  1.12D-03  NBF=   248
 NBsUse=   248 1.00D-06 EigRej= -1.00D+00 NBFU=   248
 Initial guess from the checkpoint file:  "m062x_PM6_2H2O_diene_pm6_cpcmtoluene_1_water_gd3.chk"
 B after Tr=     0.000000    0.000000    0.000000
         Rot=    1.000000    0.000054   -0.000004    0.000037 Ang=   0.01 deg.
 Requested convergence on RMS density matrix=1.00D-08 within 128 cycles.
 Requested convergence on MAX density matrix=1.00D-06.
 Requested convergence on             energy=1.00D-06.
 No special actions if energy rises.
 Inv3:  Mode=1 IEnd=    15093147.
 Iteration    1 A*A^-1 deviation from unit magnitude is 5.44D-15 for   2233.
 Iteration    1 A*A^-1 deviation from orthogonality  is 3.61D-15 for   2239   1783.
 Iteration    1 A^-1*A deviation from unit magnitude is 5.44D-15 for   2233.
 Iteration    1 A^-1*A deviation from orthogonality  is 1.71D-15 for   2224   1740.
 Error on total polarization charges =  0.00910
 SCF Done:  E(RM062X) =  -614.629399175     A.U. after    7 cycles
            NFock=  7  Conv=0.93D-08     -V/T= 2.0094
   1 Symmetry operations used in ECPInt.
 ECPInt:  NShTT=    7260 NPrTT=   25404 LenC2=    6501 LenP2D=   16601.
 LDataN:  DoStor=T MaxTD1= 5 Len=  102
 D1PCM: C-PCM CHGder 1st derivatives, ID1Alg=3 FixD1E=F DoIter=F DoCFld=F I1PDM=0.
 Calling FoFJK, ICntrl=      2127 FMM=F ISym2X=0 I1Cent= 0 IOpClX= 0 NMat=1 NMatS=1 NMatT=0.
 ***** Axes restored to original set *****
 -------------------------------------------------------------------
 Center     Atomic                   Forces (Hartrees/Bohr)
 Number     Number              X              Y              Z
 -------------------------------------------------------------------
      1        6          -0.000013004    0.000006869   -0.000006309
      2        1          -0.000000742   -0.000007874   -0.000003676
      3        6           0.000012595    0.000004741   -0.000012609
      4        1           0.000013862    0.000012238    0.000031331
      5        6          -0.000005415   -0.000003111    0.000004171
      6        1           0.000003264    0.000004437    0.000005823
      7        6          -0.000002822   -0.000001347    0.000004882
      8        1          -0.000000310   -0.000000126    0.000003288
      9        1          -0.000000857   -0.000007093   -0.000001611
     10        1          -0.000000034   -0.000005707    0.000009190
     11        6          -0.000013248   -0.000011315    0.000008447
     12        1          -0.000000046    0.000001718    0.000012176
     13        6           0.000005018    0.000003272   -0.000004828
     14        1           0.000005284   -0.000001593    0.000012411
     15        1           0.000002089    0.000008588    0.000007394
     16        6           0.000001063    0.000000088    0.000028018
     17        6           0.000016795    0.000000703   -0.000002520
     18        1           0.000000701   -0.000006577    0.000010436
     19        1           0.000003753    0.000003968   -0.000007723
     20        1          -0.000000512    0.000009654    0.000006898
     21        8           0.000012871    0.000001409   -0.000012001
     22        8          -0.000010926   -0.000018704   -0.000030589
     23        8           0.000003559    0.000013835   -0.000024876
     24        1          -0.000014086    0.000009810    0.000019534
     25        1          -0.000006337   -0.000012199   -0.000004529
     26        8           0.000009738    0.000002832   -0.000019769
     27        1          -0.000026959   -0.000009790   -0.000023934
     28        1           0.000004706    0.000001276   -0.000009026
[...]
 01896233,0.02569948,0.00614773,0.00720461,-0.00040902,-0.05466799,0.00
 066235,0.00123483,0.01936821,-0.00302074,0.00290267,-0.00039613,-0.000
 16381,-0.00023233,0.00231188,0.00250358,-0.00271293,-0.00005295,-0.020
 94605,-0.01959377,0.06655796,0.00014704,-0.00042528,0.00027660,-0.0002
 5095,0.00010934,-0.00008720,-0.00001329,0.00056400,-0.00015938,0.00050
 359,-0.00033052,0.00024192,-0.00017880,0.00028415,-0.00007116,0.000058
 48,0.00001991,-0.00003826,-0.00009344,-0.00017847,0.00005922,-0.000119
 69,0.00005152,0.00000523,-0.00003110,0.00003756,-0.00002495,-0.0001435
 4,0.00003627,-0.00004406,-0.00019228,-0.00390897,0.00038884,-0.0014437
 8,0.00040643,-0.00018809,0.00497243,0.01436130,-0.00003952,-0.00173623
 ,-0.00241283,-0.00043083,-0.00204999,-0.00270054,0.00065748,-0.2123885
 0,-0.24318949,0.01861995,0.01389896,0.00739626,-0.00050632,0.00029498,
 0.00278212,0.00027967,0.00211048,-0.00192036,0.00019824,0.00046172,0.0
 0292749,-0.00019955,-0.09529217,-0.08400953,0.00816976,0.30890255,0.00
 011786,-0.00027040,0.00024215,-0.00024151,0.00009621,-0.00007954,-0.00
 047537,0.00034176,0.00001920,0.00008422,-0.00082077,-0.00017199,-0.000
 14595,0.00026117,-0.00006337,0.00004797,0.00001799,-0.00003108,-0.0000
 8555,-0.00016801,0.00004121,-0.00010354,0.00004529,0.00000501,-0.00002
 829,0.00003335,-0.00002225,-0.00013087,0.00003532,-0.00004004,0.000420
 72,-0.00241078,0.00029369,-0.00108568,0.00026315,-0.00014504,0.0074074
 9,0.01239334,0.00002460,-0.00118733,-0.00137647,0.00001741,-0.00164109
 ,-0.00179034,0.00007443,-0.21665461,-0.61786327,0.03744149,-0.01885302
 ,-0.05285308,0.00492032,0.00235832,-0.00402528,0.00204037,-0.00263751,
 0.00160361,0.00013955,0.00340315,-0.00550083,-0.00174811,-0.08037426,-
 0.00796104,0.00413084,0.30196567,0.68291269,-0.00001015,0.00002606,-0.
 00002059,0.00002387,-0.00000992,0.00000852,0.00001180,0.00002257,0.000
 01703,0.00000954,0.00002975,-0.00001360,0.00001518,-0.00002787,0.00000
 562,-0.00000544,-0.00000212,0.00000659,0.00000750,0.00001504,-0.000004
 97,0.00001047,-0.00000452,-0.00000051,0.00000313,-0.00000359,0.0000021
 9,0.00001295,-0.00000316,0.00000385,0.00007719,0.00061011,0.00023454,0
 .00018578,-0.00007603,-0.00012422,-0.00033213,-0.00126752,0.00703445,0
 .00067705,0.00082417,-0.00023829,-0.00068591,-0.00073915,-0.00026450,0
 .01751914,0.03854660,-0.08098598,0.00078750,0.00404516,0.02873137,-0.0
 0245786,0.00432984,-0.00178730,0.00040165,-0.00038964,-0.00042373,0.00
 239951,-0.00328954,-0.00110672,0.00811381,0.00448929,0.01398789,-0.027
 13534,-0.04615878,0.03891261,0.00001875,-0.00006131,0.00003594,-0.0000
 3585,0.00001555,-0.00001198,-0.00006408,0.00007785,-0.00002978,0.00006
 806,-0.00005920,0.00003363,-0.00002448,0.00004213,-0.00001194,0.000007
 70,0.00000188,-0.00000434,-0.00001393,-0.00002608,0.00000928,-0.000017
 11,0.00000741,0.00000079,-0.00000401,0.00000528,-0.00000355,-0.0000203
 7,0.00000514,-0.00000636,0.00005804,-0.00022889,0.00004595,-0.00014113
 ,0.00002312,-0.00001642,0.00085272,0.00141302,-0.00011114,-0.00008190,
 -0.00019979,0.00006372,-0.00010767,-0.00024636,0.00000035,0.00728536,0
 .00718772,-0.00072073,-0.00022656,-0.00203560,0.00025227,-0.00054509,-
 0.00023370,0.00000257,-0.00193459,0.00000246,0.00001956,-0.00075678,-0
 .00026399,-0.00009718,-0.00575488,-0.00190640,0.00029419,-0.01434196,-
 0.00320920,0.00091484,0.50585499,0.00000458,-0.00000756,0.00000681,-0.
 00001142,0.00000422,-0.00000362,-0.00005730,0.00001667,-0.00000960,0.0
 0000211,-0.00001661,0.00000427,-0.00000491,0.00001209,-0.00000306,0.00
 000182,0.00000024,-0.00000081,-0.00000403,-0.00000778,0.00000193,-0.00
 000444,0.00000187,0.00000024,-0.00000105,0.00000141,-0.00000104,-0.000
 00556,0.00000159,-0.00000171,0.00006076,0.00008725,0.00001231,-0.00001
 540,-0.00000441,-0.00000210,0.00012246,0.00010050,-0.00004934,0.000047
 96,0.00002082,0.00010165,0.00004972,-0.00001584,-0.00006420,0.00111360
 ,-0.00417201,0.00004937,-0.00029514,-0.00093135,0.00077856,-0.00086248
 ,-0.00003571,-0.00007802,-0.00049253,-0.00013939,-0.00124345,-0.001159
 63,-0.00007107,-0.00008001,-0.00020921,0.00104418,-0.00002313,0.002010
 72,0.00417535,-0.00014386,-0.17416132,0.08958016,-0.00000215,0.0000069
 7,-0.00000379,0.00000451,-0.00000200,0.00000129,0.00000901,-0.00000975
 ,0.00000444,-0.00000715,0.00000732,-0.00000431,0.00000280,-0.00000485,
 0.00000145,-0.00000091,-0.00000034,0.00000036,0.00000168,0.00000311,-0
 .00000108,0.00000194,-0.00000085,-0.00000004,0.00000049,-0.00000068,0.
 00000040,0.00000244,-0.00000060,0.00000071,-0.00001154,0.00001435,-0.0
 0000845,0.00001510,-0.00000177,0.00000361,-0.00008950,-0.00014835,-0.0
 0006700,-0.00000613,0.00001054,-0.00000829,0.00002171,0.00003908,0.000
 00234,-0.00100625,-0.00047028,-0.00008889,0.00015177,0.00042287,0.0013
 6359,0.00030098,0.00007654,-0.00003361,0.00000460,-0.00079366,-0.00149
 983,-0.00007787,0.00001181,-0.00004610,0.00066719,0.00009934,-0.000246
 97,0.00151784,0.00045580,0.00272558,-0.06104010,0.11398425,0.54555469,
 -0.00002629,0.00009507,-0.00005335,0.00004757,-0.00002137,0.00001616,0
 .00004469,-0.00011098,0.00003975,-0.00011225,0.00008794,-0.00004970,0.
 00003656,-0.00005718,0.00001659,-0.00001080,-0.00000268,0.00000651,0.0
 0001864,0.00003479,-0.00001335,0.00002355,-0.00001010,-0.00000100,0.00
 000562,-0.00000721,0.00000482,0.00002758,-0.00000687,0.00000856,-0.000
 03993,0.00048558,-0.00006554,0.00021941,-0.00004062,0.00002513,-0.0013
 3989,-0.00227773,0.00010639,0.00018206,0.00035486,0.00002400,0.0002378
 6,0.00039731,-0.00008554,-0.01357008,-0.01609374,0.00136970,0.00032126
 ,0.00097921,0.00006724,-0.00023645,0.00041128,-0.00009176,0.00094674,-
 0.00016288,-0.00001556,-0.00028735,0.00043659,0.00000370,0.00978185,0.
 00388007,-0.00060986,0.00492386,0.00987270,-0.00024473,-0.44451341,0.1
 5288268,0.02508817,0.45187454,-0.00000414,0.00000945,-0.00000733,0.000
 00888,-0.00000350,0.00000290,0.00003761,-0.00001441,0.00001003,-0.0000
 0837,0.00001235,-0.00000752,0.00000472,-0.00000990,0.00000309,-0.00000
 148,-0.00000021,0.00000071,0.00000325,0.00000622,-0.00000190,0.0000037
 1,-0.00000157,-0.00000017,0.00000083,-0.00000114,0.00000084,0.00000451
 ,-0.00000125,0.00000139,-0.00004435,-0.00004586,-0.00001005,0.00001722
 ,0.00000262,0.00000142,-0.00016914,-0.00010695,0.00004869,-0.00002088,
 0.00000840,-0.00006385,-0.00002010,0.00002490,0.00003825,-0.00504060,0
 .00128378,-0.00006796,-0.00079606,0.00023142,-0.00014053,0.00053845,0.
 00006229,0.00001902,-0.00045329,-0.00320470,0.00019738,0.00066298,0.00
 008717,0.00005526,0.00042265,-0.00064464,0.00003931,0.00300031,-0.0052
 8420,0.00000536,0.14492950,-0.05988268,-0.01530493,-0.15394017,0.07079
 094,0.00000016,-0.00000183,0.00000138,-0.00000128,0.00000063,-0.000000
 15,-0.00000108,0.00000394,-0.00000945,0.00000222,-0.00000198,0.0000024
 1,-0.00000079,0.00000086,-0.00000033,0.00000024,0.00000017,0.00000015,
 -0.00000048,-0.00000081,0.00000025,-0.00000046,0.00000021,0.,-0.000000
 14,0.00000021,-0.00000010,-0.00000065,0.00000013,-0.00000017,0.0000050
 6,0.00001014,0.00001838,-0.00000076,-0.00000113,-0.00000631,0.00004121
 ,0.00004231,0.00021453,0.00002190,0.00001902,-0.00000738,-0.00004260,-
 0.00004705,-0.00000345,0.00048687,0.00025847,0.00025152,-0.00000622,-0
 .00010375,-0.00068131,-0.00010911,-0.00011521,0.00004925,-0.00006717,0
 .00028518,0.00021691,0.00004418,0.00007308,0.00003463,-0.00023726,0.00
 004834,0.00052169,-0.00080013,-0.00033136,-0.00426837,-0.02400354,0.00
 256917,-0.04583612,-0.02075074,0.01457218,0.05542568,-0.00000189,0.000
 00752,-0.00000426,0.00000469,-0.00000196,0.00000157,0.00001278,-0.0000
 0952,0.00000344,-0.00000698,0.00000817,-0.00000319,0.00000274,-0.00000
 550,0.00000142,-0.00000097,-0.00000024,0.00000050,0.00000188,0.0000035
 0,-0.00000114,0.00000225,-0.00000100,-0.00000014,0.00000051,-0.0000007
 1,0.00000047,0.00000271,-0.00000068,0.00000087,-0.00001230,0.00001075,
 -0.00000683,0.00001523,-0.00000169,0.00000093,-0.00010192,-0.00014234,
 0.00005291,0.00000621,0.00002013,-0.00001752,0.00000236,0.00002200,0.0
 0000486,-0.00088854,-0.00001773,-0.00000988,-0.00032594,-0.00000703,-0
 .00028868,0.00006215,-0.00000977,0.00001657,-0.00050668,-0.00046666,0.
 00053520,0.00025228,0.00002166,0.00003091,0.00059277,-0.00001554,0.000
 07620,-0.00000045,-0.00009434,-0.00102127,-0.04585176,0.02098423,0.034
 47960,-0.00806096,0.01083848,0.04541927,0.05482816,-0.00000065,0.00000
 186,-0.00000144,0.00000175,-0.00000068,0.00000060,0.00000654,-0.000003
 13,0.00000083,-0.00000095,0.00000282,-0.00000075,0.00000087,-0.0000019
 3,0.00000045,-0.00000029,-0.00000007,0.00000020,0.00000059,0.00000121,
 -0.00000030,0.00000071,-0.00000028,-0.00000005,0.00000019,-0.00000025,
 0.00000019,0.00000086,-0.00000025,0.00000026,-0.00000572,-0.00000411,-
 0.00000178,0.00000362,-0.00000001,0.00000062,-0.00002060,-0.00003568,0
 .00000157,-0.00000460,-0.00000070,-0.00000903,-0.00000399,0.00000408,0
 .00000568,-0.00006267,0.00044167,0.00016782,-0.00005228,-0.00015733,-0
 .00057791,0.00002362,-0.00001680,0.00001104,-0.00046581,-0.00002544,0.
 00136388,0.00018345,0.00000366,0.00001342,0.00010136,-0.00009712,-0.00
 001766,-0.00000888,-0.00018583,0.00021025,0.02941433,-0.02973874,-0.09
 843838,0.00207675,-0.00342565,-0.01726733,-0.03118230,0.03322897,0.000
 00220,-0.00000684,0.00000404,-0.00000436,0.00000189,-0.00000136,-0.000
 01043,0.00000871,-0.00000363,0.00000668,-0.00000727,0.00000356,-0.0000
 0273,0.00000489,-0.00000151,0.00000088,0.00000025,-0.00000046,-0.00000
 163,-0.00000311,0.00000105,-0.00000196,0.00000086,0.00000007,-0.000000
 48,0.00000063,-0.00000040,-0.00000240,0.00000062,-0.00000072,0.0000135
 9,-0.00001712,0.00000681,-0.00001556,0.00000193,-0.00000159,0.00009503
 ,0.00014074,-0.00001860,-0.00000490,-0.00001852,0.00001271,-0.00000546
 ,-0.00002479,-0.00000271,0.00094712,0.00031938,-0.00007924,0.00002739,
 -0.00017433,0.00017866,-0.00007338,-0.00002335,-0.00001562,0.00053644,
 0.00077816,-0.00030412,-0.00016609,-0.00003613,-0.00000944,-0.00060014
 ,-0.00008671,0.00001433,-0.00107145,-0.00015979,0.00001630,0.08441706,
 -0.11579759,-0.50181438,-0.00484053,0.00060153,-0.00592318,-0.07927450
 ,0.11453747,0.50794289,0.00007911,-0.00091196,0.00016583,-0.00009539,0
 .00006177,-0.00005099,0.00071163,-0.00007177,-0.00076493,-0.00077806,0
 .00025483,0.00114256,-0.00025434,0.00017141,-0.00010512,0.00002682,-0.
 00002568,-0.00001769,-0.00005040,-0.00005106,0.00014090,-0.00008558,0.
 00002811,-0.00000252,-0.00000874,0.00001714,-0.00001152,-0.00004805,0.
 00000295,-0.00001529,-0.00113393,-0.00045246,-0.00002149,0.00018645,-0
 .00040050,0.00015354,-0.00085767,-0.00083694,0.00002655,0.00023701,0.0
 0010818,-0.00000492,0.00021439,0.00011732,0.00001730,-0.00667709,-0.00
 590477,0.00032169,0.00062842,0.00099764,-0.00025870,-0.00009017,0.0001
 7051,-0.00002040,0.00010732,-0.00008212,0.00000550,-0.00013678,0.00025
 853,0.00001854,0.00424005,0.00041541,0.00009730,-0.00365695,0.01058594
 ,0.00087464,-0.00049548,-0.00000905,0.00004855,0.00078243,0.00009741,-
 0.00001371,0.00004436,0.00000492,-0.00004778,0.42186218,-0.00008994,-0
 .00103792,0.00014915,-0.00013295,0.00006293,-0.00005498,-0.00025069,0.
 00067542,0.00001591,0.00013884,-0.00133701,0.00002802,-0.00028589,0.00
 022023,-0.00012139,0.00003644,-0.00002111,-0.00002342,-0.00006846,-0.0
 0008075,0.00014828,-0.00010423,0.00003455,-0.00000231,-0.00001447,0.00
 002298,-0.00001632,-0.00007146,0.00001084,-0.00002312,-0.00044119,-0.0
 0068637,0.00002790,-0.00008833,-0.00030489,0.00005738,0.00188995,0.001
 45286,-0.00034649,-0.00012063,-0.00058332,0.00002196,-0.00009096,-0.00
 042881,0.00011247,-0.00135379,0.00431339,0.00014964,0.00016000,-0.0007
 0409,0.00016521,0.00002759,-0.00011600,0.00003352,0.00000316,-0.000076
 32,-0.00000282,0.00005838,-0.00017971,-0.00003070,-0.00083055,-0.00659
 942,-0.00024344,0.00633333,-0.00475332,-0.00114532,0.00062984,0.000053
 66,-0.00006390,-0.00096979,-0.00014879,0.00001733,-0.00006029,-0.00001
 400,0.00006200,-0.12542213,0.36655424,-0.00001379,-0.00046004,0.000063
 05,-0.00006098,0.00003873,-0.00001834,-0.00015180,0.00024914,0.0008232
 0,0.00090392,-0.00012699,-0.00158558,-0.00012793,0.00009633,-0.0000576
 5,0.00001458,-0.00001292,-0.00001209,-0.00002967,-0.00003231,0.0000664
 7,-0.00004497,0.00001467,-0.00000100,-0.00000584,0.00000890,-0.0000071
 2,-0.00002901,0.00000375,-0.00000903,-0.00033633,-0.00036806,-0.000050
 38,0.00001034,-0.00016567,-0.00001142,0.00018407,0.00024238,0.00006817
 ,0.00002612,-0.00010076,-0.00000095,0.00001547,-0.00012526,0.00003464,
 -0.00000997,0.00114572,-0.00067561,0.00001602,-0.00020637,-0.00028635,
 0.00002749,-0.00008852,0.00002920,-0.00000981,-0.00001240,0.00000704,-
 0.00000925,-0.00000083,0.00000344,-0.00015000,-0.00092273,0.00067943,0
 .00111625,-0.00165222,0.00238010,0.00015455,0.00001453,-0.00001113,-0.
 00023132,-0.00003810,-0.00000355,-0.00001514,-0.00000262,0.00001397,-0
 .25648938,-0.16174909,0.35779438,-0.00010951,0.00032856,-0.00004086,0.
 00003074,-0.00002246,0.00000446,-0.00044285,-0.00019657,0.00036053,-0.
 00067179,-0.00067509,-0.00150660,0.00009383,-0.00005282,0.00003605,-0.
 00001009,0.00000622,0.00000478,0.00001983,0.00002127,-0.00005192,0.000
 03336,-0.00001116,0.00000085,0.00000338,-0.00000692,0.00000494,0.00002
 027,-0.00000112,0.00000645,0.00057986,0.00002579,0.00007983,-0.0000742
 4,0.00013211,-0.00009641,0.00070673,0.00040879,-0.00009079,-0.00016948
 ,-0.00015543,0.00000032,-0.00011163,-0.00009000,0.00000301,-0.00044234
 ,0.00136648,0.00033155,0.00001866,-0.00015578,0.00015200,0.00000961,-0
 .00000962,-0.00000612,0.00000126,-0.00002303,0.00000269,0.00003824,-0.
 00004657,0.00000119,-0.00073442,-0.00123350,-0.00046509,0.00063009,-0.
 00044139,-0.00085026,0.00010905,0.00000340,-0.00001122,-0.00016399,-0.
 00001730,0.00000309,-0.00000977,-0.00000139,0.00001008,-0.09633194,-0.
 07104051,0.13482742,0.11381062,-0.00007257,0.00044207,-0.00004070,0.00
 007063,-0.00004055,0.00002558,-0.00032462,-0.00036434,0.00023182,-0.00
 104056,-0.00041796,-0.00133697,0.00013076,-0.00008836,0.00004004,-0.00
 001677,0.00000466,0.00000840,0.00002970,0.00004028,-0.00005982,0.00004
 805,-0.00001633,0.00000043,0.00000803,-0.00001083,0.00000812,0.0000366
 6,-0.00000612,0.00001167,0.00035410,0.00000090,0.00008963,0.00004872,0
 .00009485,-0.00003708,-0.00082080,-0.00093510,0.00017327,0.00005491,0.
 00028121,-0.00000778,0.00002319,0.00012436,-0.00007898,0.00349168,0.00
 030585,-0.00053374,-0.00032760,-0.00000433,-0.00008166,0.00001907,-0.0
 0000590,-0.00000057,-0.00003900,0.00008924,-0.00000506,-0.00000366,0.0
 0001658,0.00001141,-0.00163123,0.00138177,0.00088031,-0.00085991,-0.00
 126421,0.00060745,-0.00013268,-0.00002227,0.00001464,0.00020089,0.0000
 2514,-0.00000377,0.00001493,0.00000409,-0.00001429,-0.10589549,-0.1827
 2786,0.23150024,0.09329035,0.17340626,-0.00004087,0.00064342,-0.000119
 13,0.00008340,-0.00004022,0.00003480,-0.00023319,-0.00038369,0.0005543
 9,-0.00133468,-0.00101440,-0.00138253,0.00018377,-0.00013200,0.0000656
 6,-0.00002076,0.00001458,0.00001227,0.00004037,0.00005045,-0.00009038,
 0.00006427,-0.00002152,0.00000089,0.00000821,-0.00001349,0.00000966,0.
 00004372,-0.00000583,0.00001320,0.00047816,0.00033326,-0.00005380,0.00
 000934,0.00021029,-0.00008802,-0.00057446,-0.00050642,0.00018858,-0.00
 000426,0.00024112,-0.00000196,-0.00001137,0.00015534,-0.00005187,0.002
 01916,-0.00054030,-0.00009203,-0.00023614,0.00011068,-0.00004348,0.000
 01020,0.00001469,-0.00001070,-0.00002293,0.00006467,-0.00000237,-0.000
 00272,0.00002739,0.00000968,-0.00074510,0.00189659,0.00022307,-0.00117
 459,0.00017160,0.00021833,-0.00015719,-0.00001850,0.00001464,0.0002364
 7,0.00002699,-0.00000310,0.00001616,0.00000403,-0.00001565,0.16179727,
 0.19968316,-0.29972620,-0.16570641,-0.21279485,0.31310134,0.00001148,0
 .00034587,-0.00003423,0.00002602,-0.00001350,0.00001058,-0.00009787,-0
 .00033640,0.00001867,-0.00120647,-0.00068950,-0.00022190,0.00008649,-0
 .00004435,0.00003324,-0.00000649,0.00000957,0.00000360,0.00001485,0.00
 001054,-0.00004684,0.00002548,-0.00000765,0.00000116,0.00000238,-0.000
 00435,0.00000283,0.00001173,0.00000026,0.00000390,0.00022568,-0.000145
 57,0.00003446,-0.00009967,0.00013488,-0.00001949,-0.00001096,0.0007389
 9,-0.00002202,-0.00006835,0.00001389,-0.00000608,-0.00010623,-0.000061
 51,-0.00000125,0.01297641,0.00908384,-0.00079793,-0.00105097,-0.001755
 79,0.00016795,0.00016278,-0.00030296,0.00006471,-0.00017277,0.00012845
 ,-0.00000149,0.00020350,-0.00036954,-0.00004134,-0.00631734,0.00135230
 ,0.00027091,-0.00497107,-0.00887450,0.00069756,0.00067635,0.00000943,-
 0.00006554,-0.00111280,-0.00005462,0.00001190,-0.00006293,-0.00000943,
 0.00006731,-0.31841960,0.19215873,0.12041897,-0.01683345,0.01334322,0.
 00527416,0.33611381,0.00001967,0.00008050,-0.00004441,0.00006534,-0.00
 001529,0.00001973,0.00022133,-0.00018918,-0.00038175,-0.00017846,0.000
 55704,0.00061532,0.00003894,-0.00005546,0.00001980,-0.00001003,-0.0000
 0304,0.00000597,0.00001890,0.00003447,-0.00001251,0.00002304,-0.000009
 34,-0.00000066,0.00000679,-0.00000684,0.00000472,0.00002716,-0.0000072
 7,0.00000843,-0.00021286,0.00038421,-0.00004555,0.00021867,-0.00004733
 ,0.00004634,-0.00228600,-0.00219092,0.00020332,0.00028413,0.00054298,-
 0.00000086,0.00028648,0.00051155,-0.00009591,-0.00257577,-0.01335565,0
 .00058488,0.00035824,0.00132280,-0.00002050,-0.00012214,0.00028309,-0.
 00006882,0.00006506,0.00004216,-0.00000126,-0.00013905,0.00031174,0.00
 002942,0.00492212,0.00256549,-0.00026187,-0.00234160,0.00434859,-0.000
 50064,-0.00099072,-0.00005462,0.00009375,0.00150561,0.00023078,-0.0000
 2714,0.00008595,0.00001965,-0.00008921,0.22677184,-0.17360139,-0.06724
 952,-0.02140231,0.00968688,0.01182298,-0.20466031,0.16861438,0.0000281
 2,-0.00004348,0.00000853,-0.00000270,0.00000501,-0.00000400,0.00018370
 ,-0.00004699,-0.00028389,-0.00026011,0.00047306,0.00049372,-0.00000941
 ,0.00000758,-0.00000158,0.00000163,-0.00000085,-0.00000077,-0.00000168
 ,-0.00000303,0.00000548,-0.00000409,0.00000161,-0.00000003,-0.00000088
 ,0.00000124,-0.00000049,-0.00000307,0.00000032,-0.00000087,-0.00004945
 ,0.00001996,0.00001265,-0.00000175,-0.00001722,0.00001912,0.00010739,0
 .00001576,-0.00024711,-0.00003882,-0.00007722,0.00000567,0.00002984,0.
 00003621,0.00000489,-0.00108733,-0.00037220,0.00134019,0.00010677,0.00
 014147,0.00095430,-0.00008317,0.00015985,-0.00006960,0.00002296,-0.000
 02440,-0.00002270,0.00005446,-0.00009735,-0.00004719,0.00036987,-0.000
 66870,-0.00103141,0.00043982,0.00058591,-0.00504621,-0.00003047,-0.000
 00305,-0.00000313,0.00003980,0.00001801,0.00000620,0.00000167,-0.00000
 107,-0.00000178,0.09301426,-0.03684863,-0.05950670,0.03299644,-0.01860
 775,-0.01276531,-0.12582379,0.05534594,0.07618198\\-0.00000258,0.00000
 721,-0.00000339,0.00000531,0.00000764,0.00000526,0.00000208,0.00000498
 ,0.00000145,-0.00000332,0.00000170,0.00000220,0.00000083,0.00000052,-0
 .00000282,0.00000023,-0.00000170,-0.00000743,-0.00000166,0.00000294,-0
 .00000427,-0.00000032,-0.00000243,-0.00000248,0.00000220,0.00000551,0.
 00000093,0.00000036,0.00000440,-0.00000753,-0.00000795,-0.00000756,-0.
 00000323,-0.00000006,0.00000224,-0.00001069,-0.00000037,-0.00000385,-0
 .00000982,-0.00000008,0.00000452,-0.00000745,-0.00000259,-0.00000326,-
 0.00000807,0.00001516,0.00000316,0.00000616,0.00000273,-0.00000425,-0.
 00000146,-0.00000112,0.00000102,-0.00000899,0.,-0.00000369,-0.00000348
 ,-0.00000324,-0.00000613,-0.00000837,-0.00000140,0.00000363,0.00000432
 ,-0.00001127,0.00000075,0.00001801,-0.00000765,-0.00000435,0.00002575,
 0.00001302,-0.00000838,-0.00001737,0.00000325,0.00000530,0.00000594,0.
 00000625,-0.00000839,0.00001235,0.00000069,-0.00000573,0.00001386,-0.0
 0000850,0.00000420,0.00001061\\\@


 ERWIN WITH HIS PSI CAN DO
 CALCULATIONS QUITE A FEW.
 BUT ONE THING HAS NOT BEEN SEEN
 JUST WHAT DOES PSI REALLY MEAN.
 -- WALTER HUCKEL, TRANS. BY FELIX BLOCH
 Job cpu time:       0 days  0 hours 29 minutes 53.8 seconds.
 File lengths (MBytes):  RWF=    248 Int=      0 D2E=      0 Chk=     14 Scr=      1
 Normal termination of Gaussian 09 at Sun Sep  6 03:38:50 2020.
