 Entering Gaussian System, Link 0=g09
 Input=m062x_Diels_Alder_4H2O_TS_PM6_freq_1_gd3_water.com
 Output=m062x_Diels_Alder_4H2O_TS_PM6_freq_1_gd3_water.log
 Initial command:
 /apps/applications/gaussian/G09.D01/2/default/g09/l1.exe "/local/725831.1.40core-192G.q/Gau-288053.inp" -scrdir="/local/725831.1.40core-192G.q/"
 Entering Link 1 = /apps/applications/gaussian/G09.D01/2/default/g09/l1.exe PID=    288054.
  
 Copyright (c) 1988,1990,1992,1993,1995,1998,2003,2009,2013,
            Gaussian, Inc.  All Rights Reserved.
  
 This is part of the Gaussian(R) 09 program.  It is based on
 the Gaussian(R) 03 system (copyright 2003, Gaussian, Inc.),
 the Gaussian(R) 98 system (copyright 1998, Gaussian, Inc.),
 the Gaussian(R) 94 system (copyright 1995, Gaussian, Inc.),
 the Gaussian 92(TM) system (copyright 1992, Gaussian, Inc.),
 the Gaussian 90(TM) system (copyright 1990, Gaussian, Inc.),
 the Gaussian 88(TM) system (copyright 1988, Gaussian, Inc.),
 the Gaussian 86(TM) system (copyright 1986, Carnegie Mellon
 University), and the Gaussian 82(TM) system (copyright 1983,
 Carnegie Mellon University). Gaussian is a federally registered
 trademark of Gaussian, Inc.
  
 This software contains proprietary and confidential information,
 including trade secrets, belonging to Gaussian, Inc.
  
 This software is provided under written license and may be
 used, copied, transmitted, or stored only in accord with that
 written license.
  
 The following legend is applicable only to US Government
 contracts under FAR:
  
                    RESTRICTED RIGHTS LEGEND
  
 Use, reproduction and disclosure by the US Government is
 subject to restrictions as set forth in subparagraphs (a)
 and (c) of the Commercial Computer Software - Restricted
 Rights clause in FAR 52.227-19.
  
 Gaussian, Inc.
 340 Quinnipiac St., Bldg. 40, Wallingford CT 06492
  
  
 ---------------------------------------------------------------
 Warning -- This program may not be used in any manner that
 competes with the business of Gaussian, Inc. or will provide
 assistance to any competitor of Gaussian, Inc.  The licensee
 of this program is prohibited from giving any competitor of
 Gaussian, Inc. access to this program.  By using this program,
 the user acknowledges that Gaussian, Inc. is engaged in the
 business of creating and licensing software in the field of
 computational chemistry and represents and warrants to the
 licensee that it is not a competitor of Gaussian, Inc. and that
 it will not use this program in any manner prohibited above.
 ---------------------------------------------------------------
  

 Cite this work as:
 Gaussian 09, Revision D.01,
 M. J. Frisch, G. W. Trucks, H. B. Schlegel, G. E. Scuseria, 
 M. A. Robb, J. R. Cheeseman, G. Scalmani, V. Barone, B. Mennucci, 
 G. A. Petersson, H. Nakatsuji, M. Caricato, X. Li, H. P. Hratchian, 
 A. F. Izmaylov, J. Bloino, G. Zheng, J. L. Sonnenberg, M. Hada, 
 M. Ehara, K. Toyota, R. Fukuda, J. Hasegawa, M. Ishida, T. Nakajima, 
 Y. Honda, O. Kitao, H. Nakai, T. Vreven, J. A. Montgomery, Jr., 
 J. E. Peralta, F. Ogliaro, M. Bearpark, J. J. Heyd, E. Brothers, 
 K. N. Kudin, V. N. Staroverov, T. Keith, R. Kobayashi, J. Normand, 
 K. Raghavachari, A. Rendell, J. C. Burant, S. S. Iyengar, J. Tomasi, 
 M. Cossi, N. Rega, J. M. Millam, M. Klene, J. E. Knox, J. B. Cross, 
 V. Bakken, C. Adamo, J. Jaramillo, R. Gomperts, R. E. Stratmann, 
 O. Yazyev, A. J. Austin, R. Cammi, C. Pomelli, J. W. Ochterski, 
 R. L. Martin, K. Morokuma, V. G. Zakrzewski, G. A. Voth, 
 P. Salvador, J. J. Dannenberg, S. Dapprich, A. D. Daniels, 
 O. Farkas, J. B. Foresman, J. V. Ortiz, J. Cioslowski, 
 and D. J. Fox, Gaussian, Inc., Wallingford CT, 2013.
 
 ******************************************
 Gaussian 09:  ES64L-G09RevD.01 24-Apr-2013
                 6-Sep-2020 
 ******************************************
 %nprocshared=4
 Will use up to    4 processors via shared memory.
 %chk=m062x_Diels_Alder_4H2O_TS_PM6_freq_1_gd3_water.chk
 ----------------------------------------------------------------------
 # opt=(calcfc,ts,noeigentest) scrf=(cpcm,solvent=water) geom=connectiv
 ity def2svp empiricaldispersion=gd3 m062x
 ----------------------------------------------------------------------
 1/5=1,10=4,11=1,14=-1,18=20,26=3,38=1,57=2/1,3;
 2/9=110,12=2,17=6,18=5,40=1/2;
 3/5=43,7=101,11=2,16=1,25=1,30=1,70=2101,71=2,72=1,74=-55,124=31,140=1/1,2,3;
 4//1;
 5/5=2,38=5,53=1/2;
 8/6=4,10=90,11=11/1;
 11/6=1,8=1,9=11,15=111,16=1/1,2,10;
 10/6=1,13=1/2;
 6/7=2,8=2,9=2,10=2,28=1/1;
 7/10=1,18=20,25=1/1,2,3,16;
 1/5=1,10=4,11=1,14=-1,18=20,26=3/3(2);
 2/9=110/2;
 99//99;
 2/9=110/2;
 3/5=43,7=101,11=2,16=1,25=1,30=1,70=2105,71=1,72=1,74=-55,124=31/1,2,3;
 4/5=5,16=3,69=1/1;
 5/5=2,38=5,53=1/2;
 7//1,2,3,16;
 1/5=1,11=1,14=-1,18=20,26=3/3(-5);
 2/9=110/2;
 6/7=2,8=2,9=2,10=2,19=2,28=1/1;
 99/9=1/99;
 -------------------
 Title Card Required
 -------------------
 Symbolic Z-matrix:
 Charge =  0 Multiplicity = 1
 C                     2.36372   1.08208   0.64537 
 C                     1.94057  -0.34702   0.70004 
 C                     0.55847  -0.37378   0.55746 
 C                     0.09058   1.03389   0.49221 
 H                     2.56743  -1.07146   1.21534 
 H                    -0.11056  -1.17566   0.8719 
 C                     1.18148   3.27853   0.27427 
 H                     0.78499   3.74259   1.18848 
 H                     2.20851   3.62345   0.11025 
 H                     0.54843   3.55717  -0.57834 
 N                     1.21686   1.83767   0.401 
 O                    -1.05043   1.45479   0.5014 
 O                     3.46976   1.56073   0.77721 
 C                     2.08303  -2.05357  -1.56608 
 H                     2.47602  -3.07146  -1.49209 
 C                     0.70314  -1.88644  -1.76533 
 H                     0.07045  -2.7764   -1.83331 
 C                     2.92483  -1.00048  -1.24987 
 H                     2.64564   0.00134  -1.58981 
 C                     4.37749  -1.19687  -0.94065 
 H                     4.66172  -0.64733  -0.034 
 H                     4.60372  -2.25952  -0.77894 
 H                     4.99964  -0.8249   -1.76871 
 C                     0.09591  -0.65086  -1.64099 
 H                     0.68719   0.24744  -1.83857 
 C                    -1.3925   -0.46127  -1.77901 
 H                    -1.74759  -0.89744  -2.72705 
 H                    -1.63547   0.60786  -1.77348 
 C                    -3.14527  -0.68764  -0.12696 
 C                    -3.9132    0.42197  -0.78275 
 H                    -4.17999   0.1284   -1.80825 
 H                    -4.81548   0.60144  -0.18952 
 H                    -3.30244   1.3316   -0.8475 
 O                    -2.03457  -1.13984  -0.70124 
 O                    -3.50348  -1.24011   0.89273 
 H                     4.46587   0.3713    1.88616 
 H                    -2.36005   3.69209  -1.63608 
 H                    -2.03784  -2.46499   1.33229 
 H                    -5.16289  -0.58547   1.60919 
 O                    -1.23253  -2.92574   1.62138 
 H                    -1.16639  -2.6915    2.55424 
 O                    -5.91991  -0.00476   1.79187 
 H                    -5.52722   0.69798   2.32227 
 O                    -1.70997   2.98139  -1.66861 
 H                    -1.58557   2.71163  -0.74354 
 O                     4.67591  -0.45007   2.35978 
 H                     5.62614  -0.55404   2.23969 
 
 Add virtual bond connecting atoms H45        and O12        Dist= 3.49D+00.
 Add virtual bond connecting atoms H36        and O13        Dist= 3.60D+00.
 Add virtual bond connecting atoms H39        and O35        Dist= 3.63D+00.
 Add virtual bond connecting atoms H38        and O35        Dist= 3.70D+00.
 Add virtual bond connecting atoms C2         and C18        Dist= 4.31D+00.
 Add virtual bond connecting atoms C3         and C24        Dist= 4.28D+00.
 Add virtual bond connecting atoms H6         and O40        Dist= 4.18D+00.
 Add virtual bond connecting atoms H36        and H21        Dist= 4.12D+00.
 Add virtual bond connecting atoms H45        and H33        Dist= 4.17D+00.

 GradGradGradGradGradGradGradGradGradGradGradGradGradGradGradGradGradGrad
 Berny optimization.
 Initialization pass.
                           ----------------------------
                           !    Initial Parameters    !
                           ! (Angstroms and Degrees)  !
 --------------------------                            --------------------------
 ! Name  Definition              Value          Derivative Info.                !
 --------------------------------------------------------------------------------
 ! R1    R(1,2)                  1.4914         calculate D2E/DX2 analytically  !
 ! R2    R(1,11)                 1.395          calculate D2E/DX2 analytically  !
 ! R3    R(1,13)                 1.2124         calculate D2E/DX2 analytically  !
 ! R4    R(2,3)                  1.3897         calculate D2E/DX2 analytically  !
 ! R5    R(2,5)                  1.0878         calculate D2E/DX2 analytically  !
 ! R6    R(2,18)                 2.2799         calculate D2E/DX2 analytically  !
 ! R7    R(3,4)                  1.4848         calculate D2E/DX2 analytically  !
 ! R8    R(3,6)                  1.0906         calculate D2E/DX2 analytically  !
 ! R9    R(3,24)                 2.2636         calculate D2E/DX2 analytically  !
 ! R10   R(4,11)                 1.3867         calculate D2E/DX2 analytically  !
 ! R11   R(4,12)                 1.2162         calculate D2E/DX2 analytically  !
 ! R12   R(6,40)                 2.2098         calculate D2E/DX2 analytically  !
 ! R13   R(7,8)                  1.0992         calculate D2E/DX2 analytically  !
 ! R14   R(7,9)                  1.0957         calculate D2E/DX2 analytically  !
 ! R15   R(7,10)                 1.0979         calculate D2E/DX2 analytically  !
 ! R16   R(7,11)                 1.4469         calculate D2E/DX2 analytically  !
 ! R17   R(12,45)                1.8482         calculate D2E/DX2 analytically  !
 ! R18   R(13,36)                1.907          calculate D2E/DX2 analytically  !
 ! R19   R(14,15)                1.0936         calculate D2E/DX2 analytically  !
 ! R20   R(14,16)                1.4042         calculate D2E/DX2 analytically  !
 ! R21   R(14,18)                1.3848         calculate D2E/DX2 analytically  !
 ! R22   R(16,17)                1.094          calculate D2E/DX2 analytically  !
 ! R23   R(16,24)                1.3823         calculate D2E/DX2 analytically  !
 ! R24   R(18,19)                1.0941         calculate D2E/DX2 analytically  !
 ! R25   R(18,20)                1.4981         calculate D2E/DX2 analytically  !
 ! R26   R(20,21)                1.0976         calculate D2E/DX2 analytically  !
 ! R27   R(20,22)                1.0984         calculate D2E/DX2 analytically  !
 ! R28   R(20,23)                1.1005         calculate D2E/DX2 analytically  !
 ! R29   R(21,36)                2.1824         calculate D2E/DX2 analytically  !
 ! R30   R(24,25)                1.0934         calculate D2E/DX2 analytically  !
 ! R31   R(24,26)                1.5068         calculate D2E/DX2 analytically  !
 ! R32   R(26,27)                1.1023         calculate D2E/DX2 analytically  !
 ! R33   R(26,28)                1.0964         calculate D2E/DX2 analytically  !
 ! R34   R(26,34)                1.4263         calculate D2E/DX2 analytically  !
 ! R35   R(29,30)                1.5003         calculate D2E/DX2 analytically  !
 ! R36   R(29,34)                1.3296         calculate D2E/DX2 analytically  !
 ! R37   R(29,35)                1.2138         calculate D2E/DX2 analytically  !
 ! R38   R(30,31)                1.0995         calculate D2E/DX2 analytically  !
 ! R39   R(30,32)                1.0946         calculate D2E/DX2 analytically  !
 ! R40   R(30,33)                1.0976         calculate D2E/DX2 analytically  !
 ! R41   R(33,45)                2.2052         calculate D2E/DX2 analytically  !
 ! R42   R(35,38)                1.96           calculate D2E/DX2 analytically  !
 ! R43   R(35,39)                1.9224         calculate D2E/DX2 analytically  !
 ! R44   R(36,46)                0.9711         calculate D2E/DX2 analytically  !
 ! R45   R(37,44)                0.9637         calculate D2E/DX2 analytically  !
 ! R46   R(38,40)                0.9718         calculate D2E/DX2 analytically  !
 ! R47   R(39,42)                0.9714         calculate D2E/DX2 analytically  !
 ! R48   R(40,41)                0.9641         calculate D2E/DX2 analytically  !
 ! R49   R(42,43)                0.964          calculate D2E/DX2 analytically  !
 ! R50   R(44,45)                0.9716         calculate D2E/DX2 analytically  !
 ! R51   R(46,47)                0.9634         calculate D2E/DX2 analytically  !
 ! A1    A(2,1,11)             106.9889         calculate D2E/DX2 analytically  !
 ! A2    A(2,1,13)             129.2834         calculate D2E/DX2 analytically  !
 ! A3    A(11,1,13)            123.7276         calculate D2E/DX2 analytically  !
 ! A4    A(1,2,3)              107.2688         calculate D2E/DX2 analytically  !
 ! A5    A(1,2,5)              119.4727         calculate D2E/DX2 analytically  !
 ! A6    A(1,2,18)              96.9385         calculate D2E/DX2 analytically  !
 ! A7    A(3,2,5)              127.5098         calculate D2E/DX2 analytically  !
 ! A8    A(3,2,18)             109.6382         calculate D2E/DX2 analytically  !
 ! A9    A(5,2,18)              88.0221         calculate D2E/DX2 analytically  !
 ! A10   A(2,3,4)              107.4363         calculate D2E/DX2 analytically  !
 ! A11   A(2,3,6)              126.4885         calculate D2E/DX2 analytically  !
 ! A12   A(2,3,24)             107.7725         calculate D2E/DX2 analytically  !
 ! A13   A(4,3,6)              121.0908         calculate D2E/DX2 analytically  !
 ! A14   A(4,3,24)              90.5144         calculate D2E/DX2 analytically  !
 ! A15   A(6,3,24)              93.7073         calculate D2E/DX2 analytically  !
 ! A16   A(3,4,11)             107.2455         calculate D2E/DX2 analytically  !
 ! A17   A(3,4,12)             128.5643         calculate D2E/DX2 analytically  !
 ! A18   A(11,4,12)            124.1873         calculate D2E/DX2 analytically  !
 ! A19   A(8,7,9)              109.2486         calculate D2E/DX2 analytically  !
 ! A20   A(8,7,10)             109.3143         calculate D2E/DX2 analytically  !
 ! A21   A(8,7,11)             110.8785         calculate D2E/DX2 analytically  !
 ! A22   A(9,7,10)             110.1402         calculate D2E/DX2 analytically  !
 ! A23   A(9,7,11)             107.6778         calculate D2E/DX2 analytically  !
 ! A24   A(10,7,11)            109.565          calculate D2E/DX2 analytically  !
 ! A25   A(1,11,4)             110.0152         calculate D2E/DX2 analytically  !
 ! A26   A(1,11,7)             125.09           calculate D2E/DX2 analytically  !
 ! A27   A(4,11,7)             124.2728         calculate D2E/DX2 analytically  !
 ! A28   A(4,12,45)            120.1255         calculate D2E/DX2 analytically  !
 ! A29   A(1,13,36)            107.0689         calculate D2E/DX2 analytically  !
 ! A30   A(15,14,16)           118.2622         calculate D2E/DX2 analytically  !
 ! A31   A(15,14,18)           118.289          calculate D2E/DX2 analytically  !
 ! A32   A(16,14,18)           122.6337         calculate D2E/DX2 analytically  !
 ! A33   A(14,16,17)           118.7046         calculate D2E/DX2 analytically  !
 ! A34   A(14,16,24)           121.6885         calculate D2E/DX2 analytically  !
 ! A35   A(17,16,24)           118.5971         calculate D2E/DX2 analytically  !
 ! A36   A(2,18,14)             98.6751         calculate D2E/DX2 analytically  !
 ! A37   A(2,18,19)             83.8649         calculate D2E/DX2 analytically  !
 ! A38   A(2,18,20)            106.2392         calculate D2E/DX2 analytically  !
 ! A39   A(14,18,19)           118.0503         calculate D2E/DX2 analytically  !
 ! A40   A(14,18,20)           122.4718         calculate D2E/DX2 analytically  !
 ! A41   A(19,18,20)           115.5678         calculate D2E/DX2 analytically  !
 ! A42   A(18,20,21)           110.8513         calculate D2E/DX2 analytically  !
 ! A43   A(18,20,22)           110.9105         calculate D2E/DX2 analytically  !
 ! A44   A(18,20,23)           110.3986         calculate D2E/DX2 analytically  !
 ! A45   A(21,20,22)           108.0243         calculate D2E/DX2 analytically  !
 ! A46   A(21,20,23)           107.8125         calculate D2E/DX2 analytically  !
 ! A47   A(22,20,23)           108.7436         calculate D2E/DX2 analytically  !
 ! A48   A(20,21,36)           159.5843         calculate D2E/DX2 analytically  !
 ! A49   A(3,24,16)             96.1429         calculate D2E/DX2 analytically  !
 ! A50   A(3,24,25)             87.9619         calculate D2E/DX2 analytically  !
 ! A51   A(3,24,26)            105.9869         calculate D2E/DX2 analytically  !
 ! A52   A(16,24,25)           118.7198         calculate D2E/DX2 analytically  !
 ! A53   A(16,24,26)           122.5581         calculate D2E/DX2 analytically  !
 ! A54   A(25,24,26)           114.4717         calculate D2E/DX2 analytically  !
 ! A55   A(24,26,27)           110.3156         calculate D2E/DX2 analytically  !
 ! A56   A(24,26,28)           109.9463         calculate D2E/DX2 analytically  !
 ! A57   A(24,26,34)           108.3973         calculate D2E/DX2 analytically  !
 ! A58   A(27,26,28)           108.5896         calculate D2E/DX2 analytically  !
 ! A59   A(27,26,34)           108.4589         calculate D2E/DX2 analytically  !
 ! A60   A(28,26,34)           111.1222         calculate D2E/DX2 analytically  !
 ! A61   A(30,29,34)           119.3602         calculate D2E/DX2 analytically  !
 ! A62   A(30,29,35)           123.5571         calculate D2E/DX2 analytically  !
 ! A63   A(34,29,35)           117.0368         calculate D2E/DX2 analytically  !
 ! A64   A(29,30,31)           109.5354         calculate D2E/DX2 analytically  !
 ! A65   A(29,30,32)           107.8346         calculate D2E/DX2 analytically  !
 ! A66   A(29,30,33)           110.7261         calculate D2E/DX2 analytically  !
 ! A67   A(31,30,32)           110.4394         calculate D2E/DX2 analytically  !
 ! A68   A(31,30,33)           107.5347         calculate D2E/DX2 analytically  !
 ! A69   A(32,30,33)           110.779          calculate D2E/DX2 analytically  !
 ! A70   A(30,33,45)           161.6427         calculate D2E/DX2 analytically  !
 ! A71   A(26,34,29)           122.7251         calculate D2E/DX2 analytically  !
 ! A72   A(29,35,38)           104.6056         calculate D2E/DX2 analytically  !
 ! A73   A(29,35,39)           114.3836         calculate D2E/DX2 analytically  !
 ! A74   A(38,35,39)           140.7793         calculate D2E/DX2 analytically  !
 ! A75   A(13,36,21)            80.0004         calculate D2E/DX2 analytically  !
 ! A76   A(13,36,46)           157.5341         calculate D2E/DX2 analytically  !
 ! A77   A(21,36,46)            90.8548         calculate D2E/DX2 analytically  !
 ! A78   A(35,39,42)           161.1453         calculate D2E/DX2 analytically  !
 ! A79   A(6,40,38)             86.8107         calculate D2E/DX2 analytically  !
 ! A80   A(6,40,41)             95.7928         calculate D2E/DX2 analytically  !
 ! A81   A(38,40,41)           103.2683         calculate D2E/DX2 analytically  !
 ! A82   A(39,42,43)           102.814          calculate D2E/DX2 analytically  !
 ! A83   A(37,44,45)           105.0093         calculate D2E/DX2 analytically  !
 ! A84   A(12,45,33)            80.3058         calculate D2E/DX2 analytically  !
 ! A85   A(12,45,44)           150.1361         calculate D2E/DX2 analytically  !
 ! A86   A(33,45,44)            91.6726         calculate D2E/DX2 analytically  !
 ! A87   A(36,46,47)           104.1118         calculate D2E/DX2 analytically  !
 ! A88   L(3,6,40,15,-1)       176.1821         calculate D2E/DX2 analytically  !
 ! A89   L(35,38,40,6,-1)      171.9663         calculate D2E/DX2 analytically  !
 ! A90   L(3,6,40,15,-2)       173.4615         calculate D2E/DX2 analytically  !
 ! A91   L(35,38,40,6,-2)      172.6297         calculate D2E/DX2 analytically  !
 ! D1    D(11,1,2,3)            -3.0795         calculate D2E/DX2 analytically  !
 ! D2    D(11,1,2,5)          -158.3247         calculate D2E/DX2 analytically  !
 ! D3    D(11,1,2,18)          110.0227         calculate D2E/DX2 analytically  !
 ! D4    D(13,1,2,3)           177.0072         calculate D2E/DX2 analytically  !
 ! D5    D(13,1,2,5)            21.762          calculate D2E/DX2 analytically  !
 ! D6    D(13,1,2,18)          -69.8906         calculate D2E/DX2 analytically  !
 ! D7    D(2,1,11,4)             8.696          calculate D2E/DX2 analytically  !
 ! D8    D(2,1,11,7)           179.9512         calculate D2E/DX2 analytically  !
 ! D9    D(13,1,11,4)         -171.3847         calculate D2E/DX2 analytically  !
 ! D10   D(13,1,11,7)           -0.1295         calculate D2E/DX2 analytically  !
 ! D11   D(2,1,13,36)          -27.4519         calculate D2E/DX2 analytically  !
 ! D12   D(11,1,13,36)         152.6478         calculate D2E/DX2 analytically  !
 ! D13   D(1,2,3,4)             -3.2552         calculate D2E/DX2 analytically  !
 ! D14   D(1,2,3,6)           -158.152          calculate D2E/DX2 analytically  !
 ! D15   D(1,2,3,24)            93.0921         calculate D2E/DX2 analytically  !
 ! D16   D(5,2,3,4)            149.386          calculate D2E/DX2 analytically  !
 ! D17   D(5,2,3,6)             -5.5108         calculate D2E/DX2 analytically  !
 ! D18   D(5,2,3,24)          -114.2667         calculate D2E/DX2 analytically  !
 ! D19   D(18,2,3,4)          -107.4517         calculate D2E/DX2 analytically  !
 ! D20   D(18,2,3,6)            97.6515         calculate D2E/DX2 analytically  !
 ! D21   D(18,2,3,24)          -11.1045         calculate D2E/DX2 analytically  !
 ! D22   D(1,2,18,14)         -153.0266         calculate D2E/DX2 analytically  !
 ! D23   D(1,2,18,19)          -35.5085         calculate D2E/DX2 analytically  !
 ! D24   D(1,2,18,20)           79.3762         calculate D2E/DX2 analytically  !
 ! D25   D(3,2,18,14)          -41.8687         calculate D2E/DX2 analytically  !
 ! D26   D(3,2,18,19)           75.6494         calculate D2E/DX2 analytically  !
 ! D27   D(3,2,18,20)         -169.4659         calculate D2E/DX2 analytically  !
 ! D28   D(5,2,18,14)           87.519          calculate D2E/DX2 analytically  !
 ! D29   D(5,2,18,19)         -154.963          calculate D2E/DX2 analytically  !
 ! D30   D(5,2,18,20)          -40.0782         calculate D2E/DX2 analytically  !
 ! D31   D(2,3,4,11)             8.5538         calculate D2E/DX2 analytically  !
 ! D32   D(2,3,4,12)          -172.0517         calculate D2E/DX2 analytically  !
 ! D33   D(6,3,4,11)           165.0816         calculate D2E/DX2 analytically  !
 ! D34   D(6,3,4,12)           -15.5239         calculate D2E/DX2 analytically  !
 ! D35   D(24,3,4,11)         -100.2769         calculate D2E/DX2 analytically  !
 ! D36   D(24,3,4,12)           79.1177         calculate D2E/DX2 analytically  !
 ! D37   D(2,3,40,38)          178.4087         calculate D2E/DX2 analytically  !
 ! D38   D(2,3,40,41)           75.1538         calculate D2E/DX2 analytically  !
 ! D39   D(4,3,40,38)           28.6841         calculate D2E/DX2 analytically  !
 ! D40   D(4,3,40,41)          -74.5708         calculate D2E/DX2 analytically  !
 ! D41   D(24,3,40,38)         -66.346          calculate D2E/DX2 analytically  !
 ! D42   D(24,3,40,41)        -169.6009         calculate D2E/DX2 analytically  !
 ! D43   D(2,3,24,16)           62.096          calculate D2E/DX2 analytically  !
 ! D44   D(2,3,24,25)          -56.5749         calculate D2E/DX2 analytically  !
 ! D45   D(2,3,24,26)         -171.4718         calculate D2E/DX2 analytically  !
 ! D46   D(4,3,24,16)          170.611          calculate D2E/DX2 analytically  !
 ! D47   D(4,3,24,25)           51.9401         calculate D2E/DX2 analytically  !
 ! D48   D(4,3,24,26)          -62.9568         calculate D2E/DX2 analytically  !
 ! D49   D(6,3,24,16)          -68.1854         calculate D2E/DX2 analytically  !
 ! D50   D(6,3,24,25)          173.1437         calculate D2E/DX2 analytically  !
 ! D51   D(6,3,24,26)           58.2469         calculate D2E/DX2 analytically  !
 ! D52   D(3,4,11,1)           -10.7033         calculate D2E/DX2 analytically  !
 ! D53   D(3,4,11,7)           177.9549         calculate D2E/DX2 analytically  !
 ! D54   D(12,4,11,1)          169.869          calculate D2E/DX2 analytically  !
 ! D55   D(12,4,11,7)           -1.4728         calculate D2E/DX2 analytically  !
 ! D56   D(3,4,12,45)         -132.0139         calculate D2E/DX2 analytically  !
 ! D57   D(11,4,12,45)          47.2871         calculate D2E/DX2 analytically  !
 ! D58   D(8,7,11,1)          -103.2046         calculate D2E/DX2 analytically  !
 ! D59   D(8,7,11,4)            66.8409         calculate D2E/DX2 analytically  !
 ! D60   D(9,7,11,1)            16.2603         calculate D2E/DX2 analytically  !
 ! D61   D(9,7,11,4)          -173.6943         calculate D2E/DX2 analytically  !
 ! D62   D(10,7,11,1)          136.0486         calculate D2E/DX2 analytically  !
 ! D63   D(10,7,11,4)          -53.9059         calculate D2E/DX2 analytically  !
 ! D64   D(4,12,45,33)         134.5397         calculate D2E/DX2 analytically  !
 ! D65   D(4,12,45,44)          58.3109         calculate D2E/DX2 analytically  !
 ! D66   D(1,13,36,21)          81.0096         calculate D2E/DX2 analytically  !
 ! D67   D(1,13,36,46)          13.762          calculate D2E/DX2 analytically  !
 ! D68   D(15,14,16,17)          0.3667         calculate D2E/DX2 analytically  !
 ! D69   D(15,14,16,24)        168.7081         calculate D2E/DX2 analytically  !
 ! D70   D(18,14,16,17)       -169.1087         calculate D2E/DX2 analytically  !
 ! D71   D(18,14,16,24)         -0.7673         calculate D2E/DX2 analytically  !
 ! D72   D(15,14,18,2)        -109.6385         calculate D2E/DX2 analytically  !
 ! D73   D(15,14,18,19)        162.7228         calculate D2E/DX2 analytically  !
 ! D74   D(15,14,18,20)          5.9817         calculate D2E/DX2 analytically  !
 ! D75   D(16,14,18,2)          59.8342         calculate D2E/DX2 analytically  !
 ! D76   D(16,14,18,19)        -27.8044         calculate D2E/DX2 analytically  !
 ! D77   D(16,14,18,20)        175.4545         calculate D2E/DX2 analytically  !
 ! D78   D(14,16,24,3)         -63.2902         calculate D2E/DX2 analytically  !
 ! D79   D(14,16,24,25)         27.7518         calculate D2E/DX2 analytically  !
 ! D80   D(14,16,24,26)       -176.7045         calculate D2E/DX2 analytically  !
 ! D81   D(17,16,24,3)         105.0633         calculate D2E/DX2 analytically  !
 ! D82   D(17,16,24,25)       -163.8947         calculate D2E/DX2 analytically  !
 ! D83   D(17,16,24,26)         -8.351          calculate D2E/DX2 analytically  !
 ! D84   D(2,18,20,21)         -20.9871         calculate D2E/DX2 analytically  !
 ! D85   D(2,18,20,22)          99.0113         calculate D2E/DX2 analytically  !
 ! D86   D(2,18,20,23)        -140.3858         calculate D2E/DX2 analytically  !
 ! D87   D(14,18,20,21)       -132.7996         calculate D2E/DX2 analytically  !
 ! D88   D(14,18,20,22)        -12.8011         calculate D2E/DX2 analytically  !
 ! D89   D(14,18,20,23)        107.8018         calculate D2E/DX2 analytically  !
 ! D90   D(19,18,20,21)         69.9269         calculate D2E/DX2 analytically  !
 ! D91   D(19,18,20,22)       -170.0746         calculate D2E/DX2 analytically  !
 ! D92   D(19,18,20,23)        -49.4717         calculate D2E/DX2 analytically  !
 ! D93   D(18,20,21,36)         22.9484         calculate D2E/DX2 analytically  !
 ! D94   D(22,20,21,36)        -98.7582         calculate D2E/DX2 analytically  !
 ! D95   D(23,20,21,36)        143.8882         calculate D2E/DX2 analytically  !
 ! D96   D(20,21,36,13)        -65.8441         calculate D2E/DX2 analytically  !
 ! D97   D(20,21,36,46)         93.5195         calculate D2E/DX2 analytically  !
 ! D98   D(3,24,26,27)        -161.2976         calculate D2E/DX2 analytically  !
 ! D99   D(3,24,26,28)          78.9678         calculate D2E/DX2 analytically  !
 ! D100  D(3,24,26,34)         -42.6808         calculate D2E/DX2 analytically  !
 ! D101  D(16,24,26,27)        -52.9371         calculate D2E/DX2 analytically  !
 ! D102  D(16,24,26,28)       -172.6716         calculate D2E/DX2 analytically  !
 ! D103  D(16,24,26,34)         65.6798         calculate D2E/DX2 analytically  !
 ! D104  D(25,24,26,27)        103.5533         calculate D2E/DX2 analytically  !
 ! D105  D(25,24,26,28)        -16.1813         calculate D2E/DX2 analytically  !
 ! D106  D(25,24,26,34)       -137.8299         calculate D2E/DX2 analytically  !
 ! D107  D(24,26,34,29)        145.4864         calculate D2E/DX2 analytically  !
 ! D108  D(27,26,34,29)        -94.7277         calculate D2E/DX2 analytically  !
 ! D109  D(28,26,34,29)         24.5627         calculate D2E/DX2 analytically  !
 ! D110  D(34,29,30,31)         56.3719         calculate D2E/DX2 analytically  !
 ! D111  D(34,29,30,32)        176.5976         calculate D2E/DX2 analytically  !
 ! D112  D(34,29,30,33)        -62.0568         calculate D2E/DX2 analytically  !
 ! D113  D(35,29,30,31)       -121.0888         calculate D2E/DX2 analytically  !
 ! D114  D(35,29,30,32)         -0.8631         calculate D2E/DX2 analytically  !
 ! D115  D(35,29,30,33)        120.4825         calculate D2E/DX2 analytically  !
 ! D116  D(30,29,34,26)         12.1484         calculate D2E/DX2 analytically  !
 ! D117  D(35,29,34,26)       -170.2272         calculate D2E/DX2 analytically  !
 ! D118  D(30,29,35,38)       -175.1846         calculate D2E/DX2 analytically  !
 ! D119  D(30,29,35,39)          0.4574         calculate D2E/DX2 analytically  !
 ! D120  D(34,29,35,38)          7.3            calculate D2E/DX2 analytically  !
 ! D121  D(34,29,35,39)       -177.058          calculate D2E/DX2 analytically  !
 ! D122  D(29,30,33,45)          7.3255         calculate D2E/DX2 analytically  !
 ! D123  D(31,30,33,45)       -112.3118         calculate D2E/DX2 analytically  !
 ! D124  D(32,30,33,45)        126.9175         calculate D2E/DX2 analytically  !
 ! D125  D(30,33,45,12)        -24.5497         calculate D2E/DX2 analytically  !
 ! D126  D(30,33,45,44)        126.5142         calculate D2E/DX2 analytically  !
 ! D127  D(29,35,40,6)          37.6675         calculate D2E/DX2 analytically  !
 ! D128  D(29,35,40,41)        132.2588         calculate D2E/DX2 analytically  !
 ! D129  D(39,35,40,6)        -130.821          calculate D2E/DX2 analytically  !
 ! D130  D(39,35,40,41)        -36.2297         calculate D2E/DX2 analytically  !
 ! D131  D(29,35,39,42)        -20.9824         calculate D2E/DX2 analytically  !
 ! D132  D(38,35,39,42)        152.3395         calculate D2E/DX2 analytically  !
 ! D133  D(13,36,46,47)        140.1946         calculate D2E/DX2 analytically  !
 ! D134  D(21,36,46,47)         74.9264         calculate D2E/DX2 analytically  !
 ! D135  D(35,39,42,43)        -69.9145         calculate D2E/DX2 analytically  !
 ! D136  D(37,44,45,12)        159.1582         calculate D2E/DX2 analytically  !
 ! D137  D(37,44,45,33)         85.8641         calculate D2E/DX2 analytically  !
 --------------------------------------------------------------------------------
 Trust Radius=3.00D-01 FncErr=1.00D-07 GrdErr=1.00D-06
 Number of steps in this run=    282 maximum allowed number of steps=    282.
 Search for a saddle point of order  1.
 GradGradGradGradGradGradGradGradGradGradGradGradGradGradGradGradGradGrad

                          Input orientation:                          
 ---------------------------------------------------------------------
 Center     Atomic      Atomic             Coordinates (Angstroms)
 Number     Number       Type             X           Y           Z
 ---------------------------------------------------------------------
      1          6           0        2.363715    1.082081    0.645368
      2          6           0        1.940574   -0.347021    0.700044
      3          6           0        0.558473   -0.373783    0.557457
      4          6           0        0.090578    1.033893    0.492213
      5          1           0        2.567431   -1.071457    1.215341
      6          1           0       -0.110560   -1.175657    0.871897
      7          6           0        1.181476    3.278529    0.274265
      8          1           0        0.784987    3.742592    1.188481
      9          1           0        2.208509    3.623449    0.110254
     10          1           0        0.548429    3.557173   -0.578340
     11          7           0        1.216861    1.837667    0.400997
     12          8           0       -1.050432    1.454788    0.501400
     13          8           0        3.469755    1.560731    0.777210
     14          6           0        2.083033   -2.053571   -1.566082
     15          1           0        2.476022   -3.071465   -1.492094
     16          6           0        0.703140   -1.886442   -1.765331
     17          1           0        0.070454   -2.776395   -1.833306
     18          6           0        2.924830   -1.000484   -1.249870
     19          1           0        2.645640    0.001335   -1.589806
     20          6           0        4.377491   -1.196874   -0.940648
     21          1           0        4.661715   -0.647333   -0.034003
     22          1           0        4.603718   -2.259519   -0.778940
     23          1           0        4.999637   -0.824896   -1.768714
     24          6           0        0.095911   -0.650863   -1.640988
     25          1           0        0.687192    0.247439   -1.838574
     26          6           0       -1.392503   -0.461272   -1.779006
     27          1           0       -1.747588   -0.897442   -2.727046
     28          1           0       -1.635473    0.607864   -1.773484
     29          6           0       -3.145270   -0.687642   -0.126964
     30          6           0       -3.913196    0.421967   -0.782754
     31          1           0       -4.179992    0.128395   -1.808249
     32          1           0       -4.815476    0.601443   -0.189521
     33          1           0       -3.302437    1.331596   -0.847498
     34          8           0       -2.034573   -1.139841   -0.701239
     35          8           0       -3.503481   -1.240111    0.892732
     36          1           0        4.465867    0.371295    1.886161
     37          1           0       -2.360045    3.692091   -1.636084
     38          1           0       -2.037843   -2.464990    1.332289
     39          1           0       -5.162889   -0.585469    1.609193
     40          8           0       -1.232528   -2.925736    1.621384
     41          1           0       -1.166385   -2.691503    2.554244
     42          8           0       -5.919910   -0.004756    1.791869
     43          1           0       -5.527217    0.697981    2.322267
     44          8           0       -1.709966    2.981387   -1.668611
     45          1           0       -1.585573    2.711632   -0.743542
     46          8           0        4.675909   -0.450074    2.359778
     47          1           0        5.626142   -0.554044    2.239693
 ---------------------------------------------------------------------
                    Distance matrix (angstroms):
                    1          2          3          4          5
     1  C    0.000000
     2  C    1.491432   0.000000
     3  C    2.320812   1.389694   0.000000
     4  C    2.278800   2.317887   1.484835   0.000000
     5  H    2.236984   1.087791   2.226089   3.330197   0.000000
     6  H    3.357191   2.218856   1.090633   2.250939   2.701934
     7  C    2.521862   3.728556   3.715873   2.505185   4.661424
     8  H    3.140967   4.277720   4.170617   2.881674   5.133507
     9  H    2.601728   4.022968   4.347467   3.367094   4.836547
    10  H    3.304362   4.337633   4.091766   2.778966   5.358906
    11  N    1.394956   2.320787   2.312675   1.386682   3.309108
    12  O    3.437446   3.497441   2.436266   1.216199   4.469962
    13  O    1.212358   2.446194   3.502313   3.431854   2.816835
    14  C    3.847286   2.840411   3.107312   4.211756   2.989231
    15  H    4.672612   3.537622   3.892961   5.146045   3.367283
    16  C    4.169066   3.158977   2.775682   3.741670   3.608904
    17  H    5.127447   3.977068   3.424391   4.463938   4.293711
    18  C    2.871211   2.279899   3.042833   3.899555   2.491994
    19  H    2.498699   2.421133   3.017900   3.453885   3.004305
    20  C    3.429924   3.058216   4.184100   5.040539   2.817860
    21  H    2.955202   2.834364   4.154666   4.898849   2.475231
    22  H    4.267617   3.596857   4.658966   5.729819   3.087898
    23  H    4.051227   3.959924   5.033737   5.715396   3.857590
    24  C    3.656973   2.995919   2.263603   2.718267   3.800517
    25  H    3.110840   2.892910   2.478598   2.531210   3.821149
    26  C    4.729556   4.155496   3.045164   3.097335   5.001951
    27  H    5.674020   5.064627   4.047233   4.180016   5.847400
    28  H    4.697790   4.451770   3.348181   2.879954   5.423799
    29  C    5.837579   5.163891   3.779504   3.717227   5.880820
    30  C    6.471081   6.087418   4.735526   4.246198   6.944150
    31  H    7.053358   6.631658   5.319943   4.934554   7.490625
    32  H    7.243538   6.880052   5.512565   4.972036   7.699321
    33  H    5.864826   5.718549   4.448465   3.660055   6.669732
    34  O    5.108349   4.288817   2.982457   3.265840   4.985619
    35  O    6.314883   5.520188   4.166822   4.271858   6.081817
    36  H    2.542406   2.880964   4.193844   4.639535   2.477013
    37  H    5.859273   6.345648   5.464495   4.195381   7.423074
    38  H    5.694496   4.551190   3.422626   4.180680   4.812916
    39  H    7.769134   7.165375   5.821077   5.609714   7.755588
    40  O    5.472492   4.191326   3.294251   4.324847   4.247695
    41  H    5.508661   4.311363   3.511997   4.439651   4.284693
    42  O    8.432919   7.943326   6.605255   6.236494   8.573517
    43  H    8.076282   7.713076   6.426419   5.917901   8.359397
    44  O    5.055367   5.478619   4.621511   3.421089   6.560400
    45  H    4.492369   4.886002   3.976093   2.674207   5.949490
    46  O    3.260819   3.201155   4.495271   5.168677   2.478212
    47  H    3.982739   3.999599   5.342629   6.018114   3.266914
                    6          7          8          9         10
     6  H    0.000000
     7  C    4.676141   0.000000
     8  H    5.009132   1.099249   0.000000
     9  H    5.384199   1.095749   1.789744   0.000000
    10  H    4.993709   1.097874   1.792204   1.798449   0.000000
    11  N    3.326246   1.446857   2.106035   2.063229   2.088685
    12  O    2.817777   2.891200   3.012456   3.934054   2.853457
    13  O    4.507265   2.905169   3.483912   2.508062   3.789122
    14  C    3.395044   5.712353   6.547369   5.920676   5.900093
    15  H    3.984087   6.717016   7.515082   6.889191   6.963433
    16  C    2.849964   5.573660   6.357494   6.011893   5.573673
    17  H    3.148532   6.506791   7.220730   7.021874   6.474371
    18  C    3.707583   4.865411   5.746412   4.872762   5.183674
    19  H    3.878393   4.044569   5.017760   4.025046   4.250334
    20  C    4.840286   5.632030   6.468199   5.389285   6.115059
    21  H    4.886143   5.255424   5.982886   4.927333   5.907055
    22  H    5.111207   6.594767   7.380975   6.413814   7.093625
    23  H    5.762809   5.965753   6.882603   5.577516   6.358677
    24  C    2.575389   4.504083   5.270974   5.079337   4.363664
    25  H    3.163584   3.727722   4.624794   4.184469   3.544261
    26  C    3.030018   4.982710   5.587478   5.763813   4.621333
    27  H    3.963541   5.918278   6.578389   6.643751   5.452727
    28  H    3.536149   4.388728   4.945542   5.236260   3.859562
    29  C    3.231926   5.883216   6.066654   6.877843   5.644963
    30  C    4.444132   5.935732   6.081549   6.965789   5.456867
    31  H    5.044206   6.557862   6.833288   7.530538   5.968849
    32  H    5.140129   6.583716   6.567411   7.652369   6.136693
    33  H    4.408029   5.015414   5.163831   6.044866   4.455873
    34  O    2.485531   5.551268   5.946353   6.430490   5.361804
    35  O    3.393597   6.538305   6.580711   7.542766   6.449493
    36  H    4.936140   4.673055   5.039968   4.338896   5.618710
    37  H    5.919892   4.045100   4.227522   4.891431   3.097781
    38  H    2.364056   6.668691   6.820786   7.522896   6.826841
    39  H    5.139840   7.547415   7.367926   8.619705   7.386876
    40  O    2.209823   6.792279   6.980284   7.550899   7.073804
    41  H    2.498569   6.808233   6.860812   7.565819   7.197195
    42  O    5.997158   7.969490   7.704696   9.058857   7.755297
    43  H    5.912213   7.473962   7.099229   8.561123   7.314504
    44  O    5.127699   3.496212   3.868746   4.350983   2.573047
    45  H    4.460529   3.002310   3.227251   3.994426   2.301347
    46  O    5.064637   5.519321   5.838635   5.267069   6.459617
    47  H    5.930179   6.189231   6.557660   5.802256   7.115236
                   11         12         13         14         15
    11  N    0.000000
    12  O    2.301585   0.000000
    13  O    2.300817   4.529833   0.000000
    14  C    4.445378   5.138255   4.525173   0.000000
    15  H    5.410070   6.074279   5.253045   1.093628   0.000000
    16  C    4.338879   4.401920   5.099184   1.404186   2.149895
    17  H    5.253183   4.960862   6.097598   2.155077   2.447499
    18  C    3.701030   4.989791   3.311468   1.384776   2.132853
    19  H    3.062160   4.488498   2.951889   2.130664   3.079029
    20  C    4.582361   6.210730   3.373338   2.527773   2.726494
    21  H    4.269832   6.110171   2.637116   3.312759   3.574871
    22  H    5.445180   6.885111   4.278059   2.648747   2.386406
    23  H    5.109431   6.852278   3.809657   3.171322   3.390018
    24  C    3.408667   3.215229   4.703366   2.433486   3.398001
    25  H    2.797330   3.154759   4.038529   2.705045   3.786170
    26  C    4.104426   2.998091   5.853571   3.828851   4.675565
    27  H    5.104256   4.054858   6.748562   4.166309   4.908194
    28  H    3.791648   2.496928   5.785961   4.577504   5.524584
    29  C    5.067950   3.061567   7.044946   5.592135   6.256606
    30  C    5.451877   3.303209   7.631398   6.534268   7.316375
    31  H    6.076874   4.109494   8.200903   6.636648   7.391994
    32  H    6.185956   3.921878   8.396419   7.518873   8.267581
    33  H    4.715814   2.627970   6.968125   6.401485   7.293356
    34  O    4.544480   3.024396   6.306864   4.305524   4.970120
    35  O    5.656514   3.665115   7.515589   6.157647   6.692960
    36  H    3.861606   5.789739   1.907032   4.845189   5.217728
    37  H    4.514736   3.359977   6.659824   7.263503   8.315886
    38  H    5.474784   4.126744   6.844573   5.054843   5.359098
    39  H    6.930551   4.722516   8.934255   8.046184   8.611104
    40  O    5.493529   4.525098   6.553814   4.681192   4.844412
    41  H    5.552451   4.628104   6.537059   5.286091   5.457504
    42  O    7.500836   5.244749   9.573197   8.917431   9.522646
    43  H    7.104418   4.891821   9.169354   8.978096   9.633790
    44  O    3.762670   2.733942   5.901679   6.304614   7.361431
    45  H    3.150781   1.848219   5.403110   6.069794   7.106412
    46  O    4.586458   6.314511   2.828898   4.970572   5.152486
    47  H    5.342550   7.185660   3.355761   5.411666   5.494261
                   16         17         18         19         20
    16  C    0.000000
    17  H    1.094042   0.000000
    18  C    2.446738   3.411996   0.000000
    19  H    2.714372   3.795611   1.094141   0.000000
    20  C    3.828376   4.673574   1.498136   2.203728   0.000000
    21  H    4.494797   5.371226   2.149376   2.627899   1.097626
    22  H    4.040626   4.682876   2.150723   3.098876   1.098427
    23  H    4.425695   5.301827   2.145892   2.501193   1.100512
    24  C    1.382333   2.134367   2.877150   2.632318   4.372703
    25  H    2.135197   3.086092   2.628861   1.989465   4.063326
    26  C    2.534367   2.739158   4.382933   4.068956   5.876801
    27  H    2.812309   2.763062   4.901444   4.626183   6.387290
    28  H    3.419172   3.790379   4.863879   4.327764   6.332964
    29  C    4.351049   4.197067   6.181011   6.012423   7.583754
    30  C    5.254024   5.215616   7.000012   6.621676   8.448732
    31  H    5.282650   5.148274   7.215584   6.830308   8.702849
    32  H    6.255228   6.163127   7.975139   7.615063   9.397275
    33  H    5.219467   5.405904   6.661783   6.140052   8.085984
    34  O    3.030640   2.896726   4.991602   4.898594   6.416785
    35  O    5.017838   4.750207   6.780217   6.746545   8.091531
    36  H    5.708668   6.562168   3.753833   3.941122   3.233854
    37  H    6.365519   6.912853   7.078088   6.219381   8.353442
    38  H    4.176476   3.816134   5.782772   6.046190   6.923212
    39  H    6.891316   6.636176   8.588229   8.458786   9.894158
    40  O    4.036927   3.695260   5.406877   5.824060   6.405098
    41  H    4.775141   4.559339   5.836854   6.241479   6.721811
    42  O    7.749787   7.530494   9.406013   9.208931  10.720273
    43  H    7.887018   7.789351   9.331776   9.087641  10.599072
    44  O    5.433985   6.029019   6.124702   5.278089   7.419227
    45  H    5.236845   5.835105   5.863438   5.095590   7.132559
    46  O    5.904453   6.648604   4.049542   4.463740   3.396995
    47  H    6.484709   7.238359   4.435476   4.884353   3.476626
                   21         22         23         24         25
    21  H    0.000000
    22  H    1.776918   0.000000
    23  H    1.776216   1.787330   0.000000
    24  C    4.840349   4.863252   4.908475   0.000000
    25  H    4.455775   4.769365   4.444318   1.093435   0.000000
    26  C    6.303428   6.339439   6.402482   1.506775   2.197942
    27  H    6.956594   6.781553   6.815329   2.153790   2.833423
    28  H    6.652510   6.938192   6.788042   2.144677   2.351365
    29  C    7.807642   7.933643   8.309855   3.577552   4.300204
    30  C    8.673703   8.929065   9.053473   4.237979   4.723218
    31  H    9.051270   9.160522   9.229080   4.349548   4.868734
    32  H    9.560375   9.861731  10.043144   5.272262   5.755350
    33  H    8.246554   8.683783   8.626907   4.013544   4.251443
    34  O    6.747447   6.732505   7.121714   2.379325   3.259767
    35  O    8.238971   8.340285   8.919569   4.441010   5.218676
    36  H    2.182427   3.747392   3.882511   5.708073   5.307295
    37  H    8.408471   9.200563   8.636300   4.989288   4.603508
    38  H    7.074935   6.972076   7.863349   4.084647   4.983719
    39  H    9.961263  10.192754  10.711887   6.182470   6.841365
    40  O    6.532498   6.345642   7.399066   4.193193   5.072048
    41  H    6.696596   6.677635   7.758351   4.832967   5.600891
    42  O   10.757207  11.065250  11.514638   6.956440   7.543044
    43  H   10.544013  11.000006  11.396049   7.010445   7.492294
    44  O    7.512514   8.253558   7.714699   4.056500   3.640017
    45  H    7.128443   7.938572   7.544733   3.865122   3.526585
    46  O    2.401937   3.623652   4.158093   6.084639   5.832885
    47  H    2.471541   3.614712   4.066103   6.756664   6.455065
                   26         27         28         29         30
    26  C    0.000000
    27  H    1.102320   0.000000
    28  H    1.096411   1.785440   0.000000
    29  C    2.419231   2.959385   2.582412   0.000000
    30  C    2.850706   3.195461   2.490808   1.500334   0.000000
    31  H    2.849326   2.795196   2.589532   2.136185   1.099547
    32  H    3.920787   4.254130   3.552661   2.110744   1.094644
    33  H    2.780275   3.304371   2.039610   2.149696   1.097562
    34  O    1.426286   2.060343   2.088890   1.329633   2.444404
    35  O    3.492993   4.037744   3.743417   1.213803   2.395334
    36  H    6.960396   7.842091   7.118660   7.943767   8.793996
    37  H    4.266965   4.757007   3.171173   4.698519   3.719430
    38  H    3.756528   4.361153   4.387500   2.552407   4.040405
    39  H    5.070614   5.528524   5.030826   2.663732   2.880637
    40  O    4.202598   4.825775   4.916688   3.424086   4.916602
    41  H    4.878741   5.607894   5.462151   3.888486   5.326746
    42  O    5.784200   6.214962   5.607446   3.441930   3.292063
    43  H    5.938027   6.505884   5.650572   3.686781   3.510328
    44  O    3.459027   4.020823   2.377006   4.230667   3.491360
    45  H    3.343169   4.121402   2.342885   3.790500   3.265261
    46  O    7.345426   8.205927   7.618178   8.210430   9.187420
    47  H    8.088259   8.897096   8.377749   9.086065  10.054191
                   31         32         33         34         35
    31  H    0.000000
    32  H    1.802192   0.000000
    33  H    1.772241   1.804257   0.000000
    34  O    2.727034   3.320745   2.781523   0.000000
    35  O    3.102543   2.506776   3.111671   2.169905   0.000000
    36  H    9.405240   9.513399   8.291056   7.157785   8.191095
    37  H    4.005219   4.204021   2.661185   4.932285   5.659415
    38  H    4.601894   4.408419   4.556834   2.427193   1.960009
    39  H    3.626927   2.182849   3.629291   3.928331   1.922370
    40  O    5.456889   5.343958   5.338987   3.037643   2.920530
    41  H    6.005414   5.629174   5.685059   3.709390   3.213904
    42  O    4.000737   2.348012   3.950096   4.753930   2.858965
    43  H    4.381850   2.612465   3.924095   4.971694   3.145676
    44  O    3.776254   4.182826   2.435570   4.245668   5.253401
    45  H    3.812837   3.897706   2.205205   3.877787   4.687434
    46  O    9.804798   9.883876   8.781513   7.407845   8.347383
    47  H   10.630702  10.782561   9.633582   8.226712   9.253919
                   36         37         38         39         40
    36  H    0.000000
    37  H    8.368212   0.000000
    38  H    7.116848   6.842858   0.000000
    39  H    9.680137   6.056837   3.657210   0.000000
    40  O    6.588795   7.461771   0.971800   4.574356   0.000000
    41  H    6.445877   7.728774   1.517867   4.615251   0.964089
    42  O   10.393011   6.171724   4.618919   0.971431   5.525644
    43  H   10.007929   5.887632   4.812502   1.512763   5.662766
    44  O    7.588801   0.963722   6.227032   5.948877   6.778356
    45  H    7.000889   1.535493   5.595627   5.404019   6.123515
    46  O    0.971122   9.090055   7.084496   9.868316   6.448547
    47  H    1.525607   9.840249   7.950583  10.807484   7.283446
                   41         42         43         44         45
    41  H    0.000000
    42  O    5.513241   0.000000
    43  H    5.528044   0.964038   0.000000
    44  O    7.092931   6.214145   5.975990   0.000000
    45  H    6.343893   5.709076   5.384286   0.971594   0.000000
    46  O    6.260529  10.620368  10.267581   8.293506   7.670276
    47  H    7.127840  11.567782  11.223716   9.032862   8.460092
                   46         47
    46  O    0.000000
    47  H    0.963417   0.000000
 Stoichiometry    C13H25NO8
 Framework group  C1[X(C13H25NO8)]
 Deg. of freedom   135
 Full point group                 C1      NOp   1
 Largest Abelian subgroup         C1      NOp   1
 Largest concise Abelian subgroup C1      NOp   1
                         Standard orientation:                         
 ---------------------------------------------------------------------
 Center     Atomic      Atomic             Coordinates (Angstroms)
 Number     Number       Type             X           Y           Z
 ---------------------------------------------------------------------
      1          6           0        2.363715    1.082081    0.645368
      2          6           0        1.940574   -0.347021    0.700044
      3          6           0        0.558473   -0.373783    0.557457
      4          6           0        0.090578    1.033893    0.492213
      5          1           0        2.567431   -1.071457    1.215341
      6          1           0       -0.110560   -1.175657    0.871897
      7          6           0        1.181476    3.278529    0.274265
      8          1           0        0.784987    3.742592    1.188481
      9          1           0        2.208509    3.623449    0.110254
     10          1           0        0.548429    3.557173   -0.578340
     11          7           0        1.216861    1.837667    0.400997
     12          8           0       -1.050432    1.454788    0.501400
     13          8           0        3.469755    1.560731    0.777210
     14          6           0        2.083033   -2.053571   -1.566082
     15          1           0        2.476022   -3.071465   -1.492094
     16          6           0        0.703140   -1.886442   -1.765331
     17          1           0        0.070454   -2.776395   -1.833306
     18          6           0        2.924830   -1.000484   -1.249870
     19          1           0        2.645640    0.001335   -1.589806
     20          6           0        4.377491   -1.196874   -0.940648
     21          1           0        4.661715   -0.647333   -0.034003
     22          1           0        4.603718   -2.259519   -0.778940
     23          1           0        4.999637   -0.824896   -1.768714
     24          6           0        0.095911   -0.650863   -1.640988
     25          1           0        0.687192    0.247439   -1.838574
     26          6           0       -1.392503   -0.461272   -1.779006
     27          1           0       -1.747588   -0.897442   -2.727046
     28          1           0       -1.635473    0.607864   -1.773484
     29          6           0       -3.145270   -0.687642   -0.126964
     30          6           0       -3.913196    0.421967   -0.782754
     31          1           0       -4.179992    0.128395   -1.808249
     32          1           0       -4.815476    0.601443   -0.189521
     33          1           0       -3.302437    1.331596   -0.847498
     34          8           0       -2.034573   -1.139841   -0.701239
     35          8           0       -3.503481   -1.240111    0.892732
     36          1           0        4.465867    0.371295    1.886161
     37          1           0       -2.360045    3.692091   -1.636084
     38          1           0       -2.037843   -2.464990    1.332289
     39          1           0       -5.162889   -0.585469    1.609193
     40          8           0       -1.232528   -2.925736    1.621384
     41          1           0       -1.166385   -2.691503    2.554244
     42          8           0       -5.919910   -0.004756    1.791869
     43          1           0       -5.527217    0.697981    2.322267
     44          8           0       -1.709966    2.981387   -1.668611
     45          1           0       -1.585573    2.711632   -0.743542
     46          8           0        4.675909   -0.450074    2.359778
     47          1           0        5.626142   -0.554044    2.239693
 ---------------------------------------------------------------------
 Rotational constants (GHZ):      0.3694126      0.1620537      0.1464816
 Standard basis: def2SVP (5D, 7F)
 There are   455 symmetry adapted cartesian basis functions of A   symmetry.
 There are   433 symmetry adapted basis functions of A   symmetry.
   433 basis functions,   725 primitive gaussians,   455 cartesian basis functions
    87 alpha electrons       87 beta electrons
       nuclear repulsion energy      2066.8592229336 Hartrees.
 NAtoms=   47 NActive=   47 NUniq=   47 SFac= 1.00D+00 NAtFMM=   60 NAOKFM=F Big=F
 Integral buffers will be    131072 words long.
 Raffenetti 2 integral format.
 Two-electron integral symmetry is turned on.
 Nuclear repulsion after empirical dispersion term =     2066.8551249428 Hartrees.
 Force inversion solution in PCM.
 ------------------------------------------------------------------------------
 Polarizable Continuum Model (PCM)
 =================================
 Model                : C-PCM.
 Atomic radii         : UFF (Universal Force Field).
 Polarization charges : Total charges.
 Charge compensation  : None.
 Solution method      : Matrix inversion.
 Cavity type          : Scaled VdW (van der Waals Surface) (Alpha=1.100).
 Cavity algorithm     : GePol (No added spheres)
                        Default sphere list used, NSphG=   47.
                        Lebedev-Laikov grids with approx.  5.0 points / Ang**2.
                        Smoothing algorithm: Karplus/York (Gamma=1.0000).
                        Polarization charges: spherical gaussians, with
                                              point-specific exponents (IZeta= 3).
                        Self-potential: point-specific (ISelfS= 7).
                        Self-field    : sphere-specific E.n sum rule (ISelfD= 2).
 1st derivatives      : Analytical E(r).r(x)/FMM algorithm (CHGder, D1EAlg=3).
                        Cavity 1st derivative terms included.
 2nd derivatives      : Analytical E(r).r(xy)/FMM algorithm (CHGder, D2EAlg=3).
                        Cavity 2nd derivative terms included.
 Solvent              : Water, Eps=  78.355300 Eps(inf)=   1.777849
 ------------------------------------------------------------------------------
 One-electron integrals computed using PRISM.
   1 Symmetry operations used in ECPInt.
 ECPInt:  NShTT=   21528 NPrTT=   76216 LenC2=   19204 LenP2D=   46919.
 LDataN:  DoStor=T MaxTD1= 4 Len=   56
 NBasis=   433 RedAO= T EigKep=  3.40D-04  NBF=   433
 NBsUse=   433 1.00D-06 EigRej= -1.00D+00 NBFU=   433
 ExpMin= 1.22D-01 ExpMax= 2.27D+03 ExpMxC= 3.41D+02 IAcc=1 IRadAn=         1 AccDes= 0.00D+00
 Harris functional with IExCor= 1009 and IRadAn=       1 diagonalized for initial guess.
 HarFok:  IExCor= 1009 AccDes= 0.00D+00 IRadAn=         1 IDoV= 1 UseB2=F ITyADJ=14
 ICtDFT=  3500011 ScaDFX=  1.000000  1.000000  1.000000  1.000000
 FoFCou: FMM=F IPFlag=           0 FMFlag=      100000 FMFlg1=           0
         NFxFlg=           0 DoJE=T BraDBF=F KetDBF=T FulRan=T
         wScrn=  0.000000 ICntrl=     500 IOpCl=  0 I1Cent=   200000004 NGrid=           0
         NMat0=    1 NMatS0=      1 NMatT0=    0 NMatD0=    1 NMtDS0=    0 NMtDT0=    0
 Petite list used in FoFCou.
 Requested convergence on RMS density matrix=1.00D-08 within 128 cycles.
 Requested convergence on MAX density matrix=1.00D-06.
 Requested convergence on             energy=1.00D-06.
 No special actions if energy rises.
 Inv3:  Mode=2 IEnd=    21177032.
 Iteration    1 A*A^-1 deviation from unit magnitude is 8.99D-15 for   3250.
 Iteration    1 A*A^-1 deviation from orthogonality  is 2.29D-15 for   2427    132.
 Iteration    1 A^-1*A deviation from unit magnitude is 8.99D-15 for   3250.
 Iteration    1 A^-1*A deviation from orthogonality  is 1.82D-15 for   3231   3210.
 Error on total polarization charges =  0.00845
 SCF Done:  E(RM062X) =  -1165.60698609     A.U. after   14 cycles
            NFock= 14  Conv=0.97D-08     -V/T= 2.0091
 DoSCS=F DFT=T ScalE2(SS,OS)=  1.000000  1.000000
 Range of M.O.s used for correlation:     1   433
 NBasis=   433 NAE=    87 NBE=    87 NFC=     0 NFV=     0
 NROrb=    433 NOA=    87 NOB=    87 NVA=   346 NVB=   346
 PrsmSu:  requested number of processors reduced to:   1 ShMem   1 Linda.
   1 Symmetry operations used in ECPInt.
 ECPInt:  NShTT=   21528 NPrTT=   76216 LenC2=   19204 LenP2D=   46919.
 LDataN:  DoStor=T MaxTD1= 5 Len=  102
 Number of processors reduced to   1 by ecpmxn.
 Symmetrizing basis deriv contribution to polar:
 IMax=3 JMax=2 DiffMx= 0.00D+00
 G2DrvN: will do    12 centers at a time, making    4 passes.
 Calling FoFCou, ICntrl=  3107 FMM=F I1Cent=   0 AccDes= 0.00D+00.
 Calling FoFCou, ICntrl=  3107 FMM=F I1Cent=   0 AccDes= 0.00D+00.
 Calling FoFCou, ICntrl=  3107 FMM=F I1Cent=   0 AccDes= 0.00D+00.
 Calling FoFCou, ICntrl=  3107 FMM=F I1Cent=   0 AccDes= 0.00D+00.
 NEqPCM:  Using equilibrium solvation (IEInf=0, Eps=  78.3553, EpsInf=   1.7778)
 G2PCM: DoFxE=T DoFxN=T DoGrad=T DoDP/DQ/DG/TGxP=FFFF NFrqRd=   0 IEInf=0 SqF1=F DoCFld=F IF1Alg=4.
 End of G2Drv F.D. properties file   721 does not exist.
 End of G2Drv F.D. properties file   722 does not exist.
 End of G2Drv F.D. properties file   788 does not exist.
          IDoAtm=11111111111111111111111111111111111111111111111
 NEqPCM:  Using equilibrium solvation (IEInf=0, Eps=  78.3553, EpsInf=   1.7778)
          Differentiating once with respect to nuclear coordinates.
          There are   144 degrees of freedom in the 1st order CPHF.  IDoFFX=6 NUNeed=     0.
    141 vectors produced by pass  0 Test12= 3.01D-14 1.00D-09 XBig12= 1.69D-01 1.51D-01.
 AX will form    16 AO Fock derivatives at one time.
    141 vectors produced by pass  1 Test12= 3.01D-14 1.00D-09 XBig12= 7.28D-02 7.09D-02.
    138 vectors produced by pass  2 Test12= 3.01D-14 1.00D-09 XBig12= 8.74D-04 3.55D-03.
    138 vectors produced by pass  3 Test12= 3.01D-14 1.00D-09 XBig12= 6.41D-06 2.94D-04.
    138 vectors produced by pass  4 Test12= 3.01D-14 1.00D-09 XBig12= 3.33D-08 2.11D-05.
    137 vectors produced by pass  5 Test12= 3.01D-14 1.00D-09 XBig12= 1.27D-10 9.98D-07.
     76 vectors produced by pass  6 Test12= 3.01D-14 1.00D-09 XBig12= 3.80D-13 4.90D-08.
      5 vectors produced by pass  7 Test12= 3.01D-14 1.00D-09 XBig12= 1.15D-15 2.46D-09.
      1 vectors produced by pass  8 Test12= 3.01D-14 1.00D-09 XBig12= 4.47D-16 1.55D-09.
 InvSVY:  IOpt=1 It=  1 EMax= 6.11D-16
 Solved reduced A of dimension   915 with   144 vectors.
 End of Minotr F.D. properties file   721 does not exist.
 End of Minotr F.D. properties file   722 does not exist.
 End of Minotr F.D. properties file   788 does not exist.

 **********************************************************************

            Population analysis using the SCF density.

 **********************************************************************

 Orbital symmetries:
       Occupied  (A) (A) (A) (A) (A) (A) (A) (A) (A) (A) (A) (A)
                 (A) (A) (A) (A) (A) (A) (A) (A) (A) (A) (A) (A)
                 (A) (A) (A) (A) (A) (A) (A) (A) (A) (A) (A) (A)
                 (A) (A) (A) (A) (A) (A) (A) (A) (A) (A) (A) (A)
                 (A) (A) (A) (A) (A) (A) (A) (A) (A) (A) (A) (A)
                 (A) (A) (A) (A) (A) (A) (A) (A) (A) (A) (A) (A)
                 (A) (A) (A) (A) (A) (A) (A) (A) (A) (A) (A) (A)
                 (A) (A) (A)
       Virtual   (A) (A) (A) (A) (A) (A) (A) (A) (A) (A) (A) (A)
                 (A) (A) (A) (A) (A) (A) (A) (A) (A) (A) (A) (A)
                 (A) (A) (A) (A) (A) (A) (A) (A) (A) (A) (A) (A)
                 (A) (A) (A) (A) (A) (A) (A) (A) (A) (A) (A) (A)
                 (A) (A) (A) (A) (A) (A) (A) (A) (A) (A) (A) (A)
                 (A) (A) (A) (A) (A) (A) (A) (A) (A) (A) (A) (A)
                 (A) (A) (A) (A) (A) (A) (A) (A) (A) (A) (A) (A)
                 (A) (A) (A) (A) (A) (A) (A) (A) (A) (A) (A) (A)
                 (A) (A) (A) (A) (A) (A) (A) (A) (A) (A) (A) (A)
                 (A) (A) (A) (A) (A) (A) (A) (A) (A) (A) (A) (A)
                 (A) (A) (A) (A) (A) (A) (A) (A) (A) (A) (A) (A)
                 (A) (A) (A) (A) (A) (A) (A) (A) (A) (A) (A) (A)
                 (A) (A) (A) (A) (A) (A) (A) (A) (A) (A) (A) (A)
                 (A) (A) (A) (A) (A) (A) (A) (A) (A) (A) (A) (A)
                 (A) (A) (A) (A) (A) (A) (A) (A) (A) (A) (A) (A)
                 (A) (A) (A) (A) (A) (A) (A) (A) (A) (A) (A) (A)
                 (A) (A) (A) (A) (A) (A) (A) (A) (A) (A) (A) (A)
                 (A) (A) (A) (A) (A) (A) (A) (A) (A) (A) (A) (A)
                 (A) (A) (A) (A) (A) (A) (A) (A) (A) (A) (A) (A)
                 (A) (A) (A) (A) (A) (A) (A) (A) (A) (A) (A) (A)
                 (A) (A) (A) (A) (A) (A) (A) (A) (A) (A) (A) (A)
                 (A) (A) (A) (A) (A) (A) (A) (A) (A) (A) (A) (A)
                 (A) (A) (A) (A) (A) (A) (A) (A) (A) (A) (A) (A)
                 (A) (A) (A) (A) (A) (A) (A) (A) (A) (A) (A) (A)
                 (A) (A) (A) (A) (A) (A) (A) (A) (A) (A) (A) (A)
                 (A) (A) (A) (A) (A) (A) (A) (A) (A) (A) (A) (A)
                 (A) (A) (A) (A) (A) (A) (A) (A) (A) (A) (A) (A)
                 (A) (A) (A) (A) (A) (A) (A) (A) (A) (A) (A) (A)
                 (A) (A) (A) (A) (A) (A) (A) (A) (A) (A)
 The electronic state is 1-A.
 Alpha  occ. eigenvalues --  -19.68903 -19.64617 -19.64426 -19.64185 -19.62309
 Alpha  occ. eigenvalues --  -19.61395 -19.61107 -19.60939 -14.81364 -10.70804
 Alpha  occ. eigenvalues --  -10.68946 -10.68827 -10.62466 -10.59471 -10.58969
 Alpha  occ. eigenvalues --  -10.58964 -10.58107 -10.57980 -10.56945 -10.56367
 Alpha  occ. eigenvalues --  -10.56219 -10.55106  -1.23841  -1.19699  -1.17743
 Alpha  occ. eigenvalues --   -1.14557  -1.10060  -1.09322  -1.09037  -1.08894
 Alpha  occ. eigenvalues --   -1.06990  -0.94120  -0.90865  -0.88309  -0.84267
 Alpha  occ. eigenvalues --   -0.82388  -0.79341  -0.76799  -0.74724  -0.69936
 Alpha  occ. eigenvalues --   -0.69670  -0.66080  -0.63054  -0.61714  -0.60993
 Alpha  occ. eigenvalues --   -0.60082  -0.59484  -0.59216  -0.58791  -0.57826
 Alpha  occ. eigenvalues --   -0.57678  -0.57143  -0.56891  -0.54931  -0.54728
 Alpha  occ. eigenvalues --   -0.52889  -0.52375  -0.51118  -0.50531  -0.50436
 Alpha  occ. eigenvalues --   -0.49500  -0.48409  -0.48314  -0.47624  -0.47117
 Alpha  occ. eigenvalues --   -0.46923  -0.46309  -0.45946  -0.45507  -0.45476
 Alpha  occ. eigenvalues --   -0.45025  -0.44954  -0.43506  -0.42376  -0.41824
 Alpha  occ. eigenvalues --   -0.41551  -0.38643  -0.38401  -0.38088  -0.37794
 Alpha  occ. eigenvalues --   -0.37715  -0.37460  -0.36925  -0.35268  -0.34839
 Alpha  occ. eigenvalues --   -0.30214  -0.29096
 Alpha virt. eigenvalues --   -0.04698  -0.01556   0.04193   0.07270   0.08314
 Alpha virt. eigenvalues --    0.08952   0.10148   0.10431   0.11412   0.11782
 Alpha virt. eigenvalues --    0.12799   0.12855   0.13570   0.14222   0.14659
 Alpha virt. eigenvalues --    0.16399   0.16823   0.17404   0.17554   0.18546
 Alpha virt. eigenvalues --    0.19251   0.20071   0.20272   0.20681   0.21212
 Alpha virt. eigenvalues --    0.21386   0.22329   0.22636   0.23286   0.24506
 Alpha virt. eigenvalues --    0.25039   0.25337   0.26054   0.26807   0.26885
 Alpha virt. eigenvalues --    0.27839   0.29659   0.29954   0.30718   0.33710
 Alpha virt. eigenvalues --    0.33984   0.35818   0.36901   0.38203   0.39563
 Alpha virt. eigenvalues --    0.40504   0.41794   0.43392   0.44275   0.45799
 Alpha virt. eigenvalues --    0.46565   0.47157   0.48003   0.48491   0.49364
 Alpha virt. eigenvalues --    0.50102   0.50610   0.51032   0.51924   0.52510
 Alpha virt. eigenvalues --    0.54092   0.55830   0.56809   0.57569   0.58958
 Alpha virt. eigenvalues --    0.60705   0.60963   0.61813   0.62186   0.63234
 Alpha virt. eigenvalues --    0.64052   0.64258   0.64814   0.65405   0.66234
 Alpha virt. eigenvalues --    0.66577   0.66800   0.67669   0.68259   0.68397
 Alpha virt. eigenvalues --    0.69030   0.69396   0.70001   0.70043   0.70639
 Alpha virt. eigenvalues --    0.70727   0.71134   0.71632   0.71929   0.72387
 Alpha virt. eigenvalues --    0.72826   0.73284   0.73651   0.73913   0.74197
 Alpha virt. eigenvalues --    0.74864   0.75158   0.76498   0.76753   0.77300
 Alpha virt. eigenvalues --    0.77975   0.78820   0.79234   0.80383   0.80579
 Alpha virt. eigenvalues --    0.81212   0.82036   0.83282   0.84516   0.85708
 Alpha virt. eigenvalues --    0.87888   0.89009   0.90137   0.90988   0.92073
 Alpha virt. eigenvalues --    0.93925   0.95583   0.97359   0.97896   0.99123
 Alpha virt. eigenvalues --    0.99995   1.01061   1.01622   1.02972   1.04113
 Alpha virt. eigenvalues --    1.05502   1.06387   1.07805   1.08149   1.08880
 Alpha virt. eigenvalues --    1.09401   1.10131   1.10501   1.12194   1.13702
 Alpha virt. eigenvalues --    1.14099   1.14974   1.16600   1.17522   1.19191
 Alpha virt. eigenvalues --    1.19538   1.20813   1.21572   1.22495   1.24015
 Alpha virt. eigenvalues --    1.25355   1.26817   1.27148   1.28318   1.29850
 Alpha virt. eigenvalues --    1.30579   1.31065   1.32417   1.33549   1.34152
 Alpha virt. eigenvalues --    1.36321   1.36705   1.38186   1.38870   1.39419
 Alpha virt. eigenvalues --    1.40276   1.42539   1.43681   1.44431   1.44846
 Alpha virt. eigenvalues --    1.45902   1.46545   1.46868   1.48132   1.48988
 Alpha virt. eigenvalues --    1.50049   1.50753   1.51479   1.52559   1.52984
 Alpha virt. eigenvalues --    1.53796   1.56718   1.57252   1.57634   1.58795
 Alpha virt. eigenvalues --    1.59606   1.60181   1.61102   1.61307   1.62709
 Alpha virt. eigenvalues --    1.63429   1.63522   1.64220   1.64265   1.65625
 Alpha virt. eigenvalues --    1.66577   1.67144   1.69539   1.71845   1.73895
 Alpha virt. eigenvalues --    1.74440   1.74735   1.75024   1.76391   1.78265
 Alpha virt. eigenvalues --    1.79339   1.80261   1.81086   1.81242   1.82936
 Alpha virt. eigenvalues --    1.83428   1.83945   1.84128   1.84428   1.85286
 Alpha virt. eigenvalues --    1.85448   1.86525   1.86727   1.86967   1.87274
 Alpha virt. eigenvalues --    1.87811   1.88780   1.89495   1.89856   1.90626
 Alpha virt. eigenvalues --    1.91592   1.93539   1.94824   1.95102   1.96363
 Alpha virt. eigenvalues --    1.97098   1.98025   1.98981   2.00181   2.01813
 Alpha virt. eigenvalues --    2.02438   2.03225   2.03960   2.04234   2.05475
 Alpha virt. eigenvalues --    2.07216   2.08158   2.10618   2.11019   2.11556
 Alpha virt. eigenvalues --    2.12081   2.13649   2.15567   2.16206   2.17828
 Alpha virt. eigenvalues --    2.21851   2.22245   2.23879   2.26444   2.28777
 Alpha virt. eigenvalues --    2.28996   2.29743   2.30463   2.30573   2.31284
 Alpha virt. eigenvalues --    2.32072   2.32332   2.33020   2.34038   2.35700
 Alpha virt. eigenvalues --    2.38156   2.39583   2.39811   2.40950   2.41673
 Alpha virt. eigenvalues --    2.42410   2.43928   2.46468   2.46909   2.47520
 Alpha virt. eigenvalues --    2.48476   2.48877   2.49606   2.51145   2.53212
 Alpha virt. eigenvalues --    2.56157   2.57159   2.57424   2.60935   2.64555
 Alpha virt. eigenvalues --    2.65502   2.66845   2.67380   2.70145   2.70793
 Alpha virt. eigenvalues --    2.73476   2.74166   2.76168   2.77386   2.78328
 Alpha virt. eigenvalues --    2.79453   2.79822   2.80701   2.82780   2.83586
 Alpha virt. eigenvalues --    2.83889   2.86004   2.87229   2.88300   2.89532
 Alpha virt. eigenvalues --    2.91000   2.92281   2.94305   2.95546   2.96285
 Alpha virt. eigenvalues --    2.97100   3.00412   3.02096   3.02785   3.03076
 Alpha virt. eigenvalues --    3.03587   3.04139   3.06626   3.06725   3.07129
 Alpha virt. eigenvalues --    3.07351   3.08367   3.09470   3.12410   3.17654
 Alpha virt. eigenvalues --    3.19241   3.20610   3.21522   3.24007   3.24712
 Alpha virt. eigenvalues --    3.25534   3.26054   3.26658   3.27047   3.33442
 Alpha virt. eigenvalues --    3.37801   3.44260   3.48432   3.55702   3.57559
 Alpha virt. eigenvalues --    3.58144   3.58385   3.60260   3.67660   3.70180
 Alpha virt. eigenvalues --    3.71416   3.73618   3.87833   3.87990   3.88128
 Alpha virt. eigenvalues --    3.88607
          Condensed to atoms (all electrons):
               1          2          3          4          5          6
     1  C    4.689689   0.145559   0.075101  -0.119456  -0.038963   0.010304
     2  C    0.145559   5.776911  -0.003569   0.105302   0.406197  -0.054736
     3  C    0.075101  -0.003569   5.836630   0.111578  -0.033600   0.329081
     4  C   -0.119456   0.105302   0.111578   4.741620   0.008233  -0.039010
     5  H   -0.038963   0.406197  -0.033600   0.008233   0.580074  -0.006579
     6  H    0.010304  -0.054736   0.329081  -0.039010  -0.006579   0.666812
     7  C   -0.022818   0.008768   0.009998  -0.019130  -0.000100  -0.000123
     8  H    0.000767  -0.000964   0.001162  -0.005106   0.000018   0.000030
     9  H   -0.006361   0.003943  -0.001545   0.006677  -0.000016   0.000005
    10  H    0.003847  -0.000705   0.001011  -0.002679  -0.000003  -0.000011
    11  N    0.312785  -0.150148  -0.110994   0.268227   0.004504   0.004071
    12  O    0.000428   0.006216  -0.082932   0.660066  -0.000047   0.000272
    13  O    0.667437  -0.090371   0.007068  -0.000175  -0.001569  -0.000033
    14  C   -0.004420   0.007589  -0.053947   0.004339  -0.004122  -0.006073
    15  H   -0.000106   0.001376  -0.001110   0.000076   0.000764  -0.000114
    16  C    0.004991  -0.061191  -0.014701  -0.005596  -0.002148   0.005184
    17  H    0.000038  -0.000555  -0.000497  -0.000025  -0.000014   0.002500
    18  C   -0.011982   0.142340  -0.049723   0.003062  -0.002405   0.002118
    19  H   -0.004752   0.003934  -0.027818   0.006270   0.002892  -0.000448
    20  C    0.001246  -0.029168   0.005330  -0.000314  -0.004723   0.000007
    21  H   -0.000124  -0.011324   0.003132  -0.000150   0.001677  -0.000024
    22  H    0.000168  -0.001086  -0.000332   0.000018   0.001692  -0.000010
    23  H   -0.000315   0.002787  -0.000210   0.000006   0.000071   0.000001
    24  C    0.000695  -0.049109   0.159451  -0.011753   0.001360  -0.007221
    25  H    0.007163  -0.025039  -0.000347  -0.005126  -0.000093   0.003787
    26  C   -0.000535   0.006802  -0.043723   0.009060  -0.000065  -0.009909
    27  H    0.000004  -0.000113   0.001857   0.000164   0.000000   0.000057
    28  H    0.000007   0.000312  -0.002594   0.002042  -0.000001  -0.000108
    29  C    0.000001   0.000080  -0.003756   0.001852  -0.000001   0.003110
    30  C    0.000000  -0.000001   0.000241  -0.000992   0.000000   0.000332
    31  H    0.000000   0.000000  -0.000018   0.000026   0.000000   0.000011
    32  H    0.000000   0.000000   0.000000   0.000033   0.000000  -0.000001
    33  H   -0.000004   0.000011  -0.000373  -0.000691   0.000000  -0.000024
    34  O    0.000000   0.000747   0.007105  -0.001959  -0.000004  -0.000076
    35  O    0.000000  -0.000007  -0.000321   0.000063   0.000000   0.000003
    36  H   -0.004375  -0.001554   0.000092  -0.000091  -0.007263   0.000017
    37  H    0.000000   0.000000  -0.000010  -0.000214   0.000000   0.000000
    38  H   -0.000008   0.000264   0.004749  -0.000152   0.000001  -0.011806
    39  H    0.000000   0.000000   0.000002  -0.000001   0.000000  -0.000006
    40  O    0.000008  -0.000721  -0.035970  -0.000203   0.000029   0.100038
    41  H    0.000000   0.000117   0.002079  -0.000037   0.000004  -0.003820
    42  O    0.000000   0.000000   0.000000   0.000000   0.000000   0.000000
    43  H    0.000000   0.000000   0.000000   0.000000   0.000000   0.000000
    44  O   -0.000003   0.000002  -0.000035   0.001915   0.000000   0.000001
    45  H    0.000019  -0.000126   0.001526  -0.005174   0.000001  -0.000048
    46  O   -0.003114  -0.004960   0.000461  -0.000011   0.030943  -0.000014
    47  H   -0.000100   0.000297  -0.000024   0.000001  -0.001690   0.000001
               7          8          9         10         11         12
     1  C   -0.022818   0.000767  -0.006361   0.003847   0.312785   0.000428
     2  C    0.008768  -0.000964   0.003943  -0.000705  -0.150148   0.006216
     3  C    0.009998   0.001162  -0.001545   0.001011  -0.110994  -0.082932
     4  C   -0.019130  -0.005106   0.006677  -0.002679   0.268227   0.660066
     5  H   -0.000100   0.000018  -0.000016  -0.000003   0.004504  -0.000047
     6  H   -0.000123   0.000030   0.000005  -0.000011   0.004071   0.000272
     7  C    4.532988   0.411532   0.394823   0.377551   0.241507   0.012343
     8  H    0.411532   0.582759  -0.020105  -0.023669  -0.026906   0.000737
     9  H    0.394823  -0.020105   0.569902  -0.012461  -0.024946   0.000242
    10  H    0.377551  -0.023669  -0.012461   0.590791  -0.022784  -0.003385
    11  N    0.241507  -0.026906  -0.024946  -0.022784   7.064284  -0.099761
    12  O    0.012343   0.000737   0.000242  -0.003385  -0.099761   7.776648
    13  O   -0.002509   0.000120   0.013628   0.000202  -0.088414  -0.000013
    14  C    0.000020   0.000000   0.000003  -0.000006  -0.000121   0.000026
    15  H    0.000000   0.000000   0.000000   0.000000  -0.000006   0.000000
    16  C    0.000006   0.000002  -0.000001   0.000010   0.000232   0.000014
    17  H    0.000000   0.000000   0.000000   0.000000  -0.000012  -0.000007
    18  C   -0.000051  -0.000005  -0.000069   0.000045  -0.002471   0.000002
    19  H   -0.000023   0.000012   0.000014  -0.000111   0.000459   0.000038
    20  C   -0.000002   0.000001  -0.000007  -0.000002   0.000183   0.000000
    21  H   -0.000007  -0.000002   0.000007   0.000002   0.000181   0.000000
    22  H    0.000000   0.000000   0.000000   0.000000  -0.000002   0.000000
    23  H    0.000000   0.000000   0.000000   0.000000  -0.000001   0.000000
    24  C    0.000043  -0.000031   0.000051   0.000072  -0.008690  -0.009969
    25  H   -0.001236   0.000135  -0.000101  -0.000262   0.010825  -0.002303
    26  C   -0.000014  -0.000002  -0.000001  -0.000087  -0.000013   0.009200
    27  H    0.000000   0.000000   0.000000   0.000004  -0.000025   0.000242
    28  H   -0.000048  -0.000016  -0.000001   0.000411  -0.000291   0.001868
    29  C   -0.000012  -0.000001   0.000000   0.000000   0.000158   0.015438
    30  C   -0.000019   0.000001   0.000000   0.000102  -0.000039  -0.007119
    31  H    0.000000   0.000000   0.000000   0.000000   0.000001   0.000153
    32  H    0.000000   0.000000   0.000000  -0.000001   0.000000  -0.000014
    33  H    0.000141  -0.000004  -0.000001  -0.000614   0.000148   0.006372
    34  O    0.000002   0.000000   0.000000  -0.000001  -0.000021  -0.003423
    35  O    0.000000   0.000000   0.000000   0.000000   0.000000  -0.000589
    36  H   -0.000004   0.000019  -0.000064  -0.000001   0.000635   0.000001
    37  H    0.000285  -0.000010  -0.000004  -0.000969   0.000005   0.000310
    38  H    0.000000   0.000000   0.000000   0.000000  -0.000002  -0.000071
    39  H    0.000000   0.000000   0.000000   0.000000   0.000000  -0.000007
    40  O    0.000000   0.000000   0.000000   0.000000  -0.000001  -0.000002
    41  H    0.000000   0.000000   0.000000   0.000000   0.000002   0.000001
    42  O    0.000000   0.000000   0.000000   0.000000   0.000000   0.000000
    43  H    0.000000   0.000000   0.000000   0.000000   0.000000   0.000004
    44  O   -0.009702   0.000014   0.000094   0.028740   0.000153  -0.015997
    45  H    0.004259  -0.000004  -0.000002   0.000065  -0.003801   0.037890
    46  O    0.000000   0.000000   0.000003   0.000000  -0.000012   0.000000
    47  H    0.000000   0.000000  -0.000001   0.000000  -0.000005   0.000000
              13         14         15         16         17         18
     1  C    0.667437  -0.004420  -0.000106   0.004991   0.000038  -0.011982
     2  C   -0.090371   0.007589   0.001376  -0.061191  -0.000555   0.142340
     3  C    0.007068  -0.053947  -0.001110  -0.014701  -0.000497  -0.049723
     4  C   -0.000175   0.004339   0.000076  -0.005596  -0.000025   0.003062
     5  H   -0.001569  -0.004122   0.000764  -0.002148  -0.000014  -0.002405
     6  H   -0.000033  -0.006073  -0.000114   0.005184   0.002500   0.002118
     7  C   -0.002509   0.000020   0.000000   0.000006   0.000000  -0.000051
     8  H    0.000120   0.000000   0.000000   0.000002   0.000000  -0.000005
     9  H    0.013628   0.000003   0.000000  -0.000001   0.000000  -0.000069
    10  H    0.000202  -0.000006   0.000000   0.000010   0.000000   0.000045
    11  N   -0.088414  -0.000121  -0.000006   0.000232  -0.000012  -0.002471
    12  O   -0.000013   0.000026   0.000000   0.000014  -0.000007   0.000002
    13  O    7.755201   0.000212  -0.000003   0.000015   0.000000  -0.002225
[...]
     4  C   -0.005478   0.008840   0.000181   0.001833   0.001905  -0.000929
     5  H   -0.000100  -0.000065   0.000000   0.000000  -0.000001   0.000000
     6  H    0.003853  -0.010195   0.000102   0.000008   0.003233   0.000532
     7  C   -0.001265  -0.000009   0.000000  -0.000048  -0.000012  -0.000019
     8  H    0.000136  -0.000002   0.000000  -0.000013  -0.000001   0.000001
     9  H   -0.000110  -0.000002   0.000000  -0.000001   0.000000   0.000000
    10  H   -0.000226  -0.000089   0.000003   0.000377  -0.000001   0.000100
    11  N    0.010781  -0.000007  -0.000023  -0.000261   0.000161  -0.000035
    12  O   -0.002429   0.009561   0.000235   0.001726   0.016134  -0.006715
    13  O   -0.000215   0.000001   0.000000   0.000000   0.000000   0.000000
    14  C   -0.036193   0.010670   0.000524  -0.000721   0.000020   0.000000
    15  H   -0.000244  -0.000167  -0.000006   0.000006  -0.000001   0.000000
    16  C    0.007052  -0.049312  -0.016353   0.011529  -0.000400   0.000117
    17  H    0.006634  -0.008625   0.000834   0.000518  -0.000018   0.000023
    18  C    0.019924   0.000584  -0.000075   0.000089  -0.000003   0.000000
    19  H    0.000906   0.000641  -0.000004  -0.000030   0.000000   0.000000
    20  C    0.000555  -0.000024   0.000002  -0.000001   0.000000   0.000000
    21  H   -0.000052  -0.000001   0.000000   0.000000   0.000000   0.000000
    22  H   -0.000010   0.000003   0.000000   0.000000   0.000000   0.000000
    23  H   -0.000009   0.000001   0.000000   0.000000   0.000000   0.000000
    24  C    0.351084   0.315950  -0.018358  -0.008499   0.006928  -0.001286
    25  H    0.631394  -0.031956   0.003021  -0.007947   0.000003   0.000042
    26  C   -0.031956   4.593392   0.401891   0.321734  -0.044815   0.014645
    27  H    0.003021   0.401891   0.591947  -0.027407  -0.001901   0.000127
    28  H   -0.007947   0.321734  -0.027407   0.660002  -0.010823   0.009148
    29  C    0.000003  -0.044815  -0.001901  -0.010823   4.517867   0.376549
    30  C    0.000042   0.014645   0.000127   0.009148   0.376549   4.886722
    31  H   -0.000008   0.000294   0.000201  -0.000887  -0.005672   0.366494
    32  H    0.000000   0.001190  -0.000020  -0.000527  -0.002952   0.311086
    33  H   -0.000043  -0.009882   0.000592  -0.000227   0.003353   0.303054
    34  O    0.003169   0.285974  -0.026025  -0.023697   0.334855  -0.089320
    35  O   -0.000001   0.001776  -0.000033   0.000216   0.577345  -0.072039
    36  H    0.000005   0.000000   0.000000   0.000000   0.000000   0.000000
    37  H   -0.000037   0.000865  -0.000011  -0.003789  -0.000042   0.000234
    38  H    0.000007  -0.000038  -0.000013   0.000098  -0.005119   0.001656
    39  H    0.000000  -0.000029   0.000003   0.000002  -0.004388   0.001789
    40  O   -0.000003   0.000060  -0.000002  -0.000012   0.000108  -0.000036
    41  H    0.000000   0.000000  -0.000001   0.000000   0.000339  -0.000011
    42  O    0.000000   0.000001   0.000000  -0.000001   0.001588  -0.019027
    43  H    0.000000   0.000000   0.000000   0.000001   0.000380   0.001122
    44  O    0.000713  -0.016188   0.000129   0.051712   0.000308  -0.017271
    45  H   -0.000377   0.004919  -0.000072  -0.012601  -0.000403   0.001732
    46  O    0.000000   0.000000   0.000000   0.000000   0.000000   0.000000
    47  H    0.000000   0.000000   0.000000   0.000000   0.000000   0.000000
              31         32         33         34         35         36
     1  C    0.000000   0.000000  -0.000004   0.000001   0.000000  -0.004430
     2  C    0.000000   0.000000   0.000010   0.000764  -0.000006  -0.001666
     3  C   -0.000017   0.000002  -0.000338   0.005606  -0.000209   0.000058
     4  C    0.000026   0.000029  -0.000570  -0.001791   0.000067  -0.000083
     5  H    0.000000   0.000000   0.000000  -0.000004   0.000000  -0.007068
     6  H    0.000006  -0.000003  -0.000028   0.001888  -0.000334   0.000016
     7  C    0.000000   0.000000   0.000137   0.000002   0.000000  -0.000005
     8  H    0.000000   0.000000  -0.000003   0.000000   0.000000   0.000019
     9  H    0.000000   0.000000  -0.000001   0.000000   0.000000  -0.000065
    10  H    0.000000  -0.000001  -0.000596  -0.000001   0.000000  -0.000001
    11  N    0.000001   0.000000   0.000125  -0.000022   0.000000   0.000647
    12  O    0.000131  -0.000002   0.005692  -0.003894  -0.000668   0.000001
    13  O    0.000000   0.000000   0.000000   0.000000   0.000000   0.039258
    14  C    0.000000   0.000000   0.000002  -0.000237   0.000000  -0.000072
    15  H    0.000000   0.000000   0.000000  -0.000001   0.000000   0.000004
    16  C   -0.000020   0.000001  -0.000119   0.003372  -0.000001   0.000001
    17  H    0.000003  -0.000001  -0.000003   0.002715   0.000001   0.000000
    18  C    0.000000   0.000000  -0.000001   0.000019   0.000000   0.000298
    19  H    0.000000   0.000000   0.000000  -0.000008   0.000000   0.000048
    20  C    0.000000   0.000000   0.000000   0.000000   0.000000   0.002384
    21  H    0.000000   0.000000   0.000000   0.000000   0.000000  -0.006218
    22  H    0.000000   0.000000   0.000000   0.000000   0.000000  -0.000029
    23  H    0.000000   0.000000   0.000000   0.000000   0.000000  -0.000087
    24  C    0.000953  -0.000046   0.000189  -0.085343   0.000108  -0.000008
    25  H   -0.000008   0.000000  -0.000043   0.003169  -0.000001   0.000005
    26  C    0.000294   0.001190  -0.009882   0.285974   0.001776   0.000000
    27  H    0.000201  -0.000020   0.000592  -0.026025  -0.000033   0.000000
    28  H   -0.000887  -0.000527  -0.000227  -0.023697   0.000216   0.000000
    29  C   -0.005672  -0.002952   0.003353   0.334855   0.577345   0.000000
    30  C    0.366494   0.311086   0.303054  -0.089320  -0.072039   0.000000
    31  H    0.557663  -0.010461  -0.008231   0.000431   0.001224   0.000000
    32  H   -0.010461   0.616135  -0.004727   0.003673  -0.003877   0.000000
    33  H   -0.008231  -0.004727   0.605158   0.001822   0.000776   0.000000
    34  O    0.000431   0.003673   0.001822   8.005215  -0.087860   0.000000
    35  O    0.001224  -0.003877   0.000776  -0.087860   7.871121   0.000000
    36  H    0.000000   0.000000   0.000000   0.000000   0.000000   0.481906
    37  H   -0.000008   0.000020   0.001937  -0.000006   0.000000   0.000000
    38  H   -0.000077  -0.000041  -0.000075   0.002494   0.043799   0.000000
    39  H    0.000070  -0.010424   0.000153   0.000496   0.042944   0.000000
    40  O    0.000001   0.000001   0.000003  -0.000927  -0.012356   0.000000
    41  H    0.000000   0.000000   0.000000  -0.000157   0.000672   0.000000
    42  O    0.000104   0.056412  -0.000033  -0.000003  -0.013339   0.000000
    43  H    0.000032  -0.000971  -0.000126   0.000002   0.000760   0.000000
    44  O    0.000160   0.000098   0.047443   0.000041   0.000000   0.000000
    45  H   -0.000115   0.000003  -0.000534  -0.000131   0.000007   0.000000
    46  O    0.000000   0.000000   0.000000   0.000000   0.000000   0.327317
    47  H    0.000000   0.000000   0.000000   0.000000   0.000000  -0.023812
              37         38         39         40         41         42
     1  C    0.000000  -0.000009   0.000000   0.000008  -0.000003   0.000000
     2  C    0.000000   0.000249   0.000000  -0.000678   0.000213   0.000000
     3  C   -0.000010   0.003985   0.000002  -0.030544   0.002804   0.000000
     4  C   -0.000206  -0.000080  -0.000001  -0.000388  -0.000023   0.000000
     5  H    0.000000   0.000003   0.000000  -0.000001   0.000014   0.000000
     6  H    0.000000  -0.009844  -0.000007   0.091792  -0.004536   0.000000
     7  C    0.000254   0.000000   0.000000   0.000000   0.000000   0.000000
     8  H   -0.000011   0.000000   0.000000   0.000000   0.000000   0.000000
     9  H   -0.000003   0.000000   0.000000   0.000000   0.000000   0.000000
    10  H   -0.000869   0.000000   0.000000   0.000000   0.000000   0.000000
    11  N    0.000005  -0.000002   0.000000   0.000000   0.000002   0.000000
    12  O    0.000251  -0.000070  -0.000008  -0.000004   0.000012   0.000000
    13  O    0.000000   0.000000   0.000000   0.000000   0.000000   0.000000
    14  C    0.000000  -0.000006   0.000000  -0.000023   0.000020   0.000000
    15  H    0.000000   0.000000   0.000000  -0.000002   0.000000   0.000000
    16  C    0.000001   0.000164   0.000000  -0.000092  -0.000007   0.000000
    17  H    0.000000   0.000021   0.000000   0.000274  -0.000028   0.000000
    18  C    0.000000   0.000001   0.000000   0.000005  -0.000002   0.000000
    19  H    0.000000   0.000000   0.000000   0.000000   0.000000   0.000000
    20  C    0.000000   0.000000   0.000000   0.000000   0.000000   0.000000
    21  H    0.000000   0.000000   0.000000   0.000000   0.000000   0.000000
    22  H    0.000000   0.000000   0.000000   0.000000   0.000000   0.000000
    23  H    0.000000   0.000000   0.000000   0.000000   0.000000   0.000000
    24  C   -0.000002  -0.000408   0.000003   0.000050   0.000031   0.000000
    25  H   -0.000037   0.000007   0.000000  -0.000003   0.000000   0.000000
    26  C    0.000865  -0.000038  -0.000029   0.000060   0.000000   0.000001
    27  H   -0.000011  -0.000013   0.000003  -0.000002  -0.000001   0.000000
    28  H   -0.003789   0.000098   0.000002  -0.000012   0.000000  -0.000001
    29  C   -0.000042  -0.005119  -0.004388   0.000108   0.000339   0.001588
    30  C    0.000234   0.001656   0.001789  -0.000036  -0.000011  -0.019027
    31  H   -0.000008  -0.000077   0.000070   0.000001   0.000000   0.000104
    32  H    0.000020  -0.000041  -0.010424   0.000001   0.000000   0.056412
    33  H    0.001937  -0.000075   0.000153   0.000003   0.000000  -0.000033
    34  O   -0.000006   0.002494   0.000496  -0.000927  -0.000157  -0.000003
    35  O    0.000000   0.043799   0.042944  -0.012356   0.000672  -0.013339
    36  H    0.000000   0.000000   0.000000   0.000000   0.000000   0.000000
    37  H    0.486104   0.000000   0.000000   0.000000   0.000000   0.000000
    38  H    0.000000   0.472774   0.000094   0.336552  -0.027237   0.000000
    39  H    0.000000   0.000094   0.471288   0.000003  -0.000006   0.342091
    40  O    0.000000   0.336552   0.000003   7.639755   0.329891   0.000000
    41  H    0.000000  -0.027237  -0.000006   0.329891   0.507540   0.000000
    42  O    0.000000   0.000000   0.342091   0.000000   0.000000   7.673182
    43  H    0.000000  -0.000009  -0.030621   0.000000   0.000000   0.334271
    44  O    0.329953   0.000000   0.000000   0.000000   0.000000   0.000000
    45  H   -0.012205   0.000000  -0.000001   0.000000   0.000000   0.000000
    46  O    0.000000   0.000000   0.000000   0.000000   0.000000   0.000000
    47  H    0.000000   0.000000   0.000000   0.000000   0.000000   0.000000
              43         44         45         46         47
     1  C    0.000000  -0.000001   0.000012  -0.003057  -0.000106
     2  C    0.000000   0.000001  -0.000117  -0.004451   0.000275
     3  C    0.000000  -0.000028   0.001467   0.000438  -0.000023
     4  C    0.000000   0.001854  -0.005080  -0.000010   0.000001
     5  H    0.000000   0.000000   0.000001   0.029996  -0.001632
     6  H    0.000000   0.000001  -0.000053  -0.000012   0.000001
     7  C    0.000000  -0.009131   0.003998   0.000000   0.000000
     8  H    0.000000   0.000025  -0.000075   0.000000   0.000000
     9  H    0.000000   0.000081   0.000002   0.000003  -0.000001
    10  H    0.000000   0.027785   0.000256   0.000000   0.000000
    11  N    0.000000   0.000152  -0.003646  -0.000012  -0.000005
    12  O    0.000003  -0.015042   0.037685   0.000000   0.000000
    13  O    0.000000   0.000000  -0.000001  -0.012695   0.000110
    14  C    0.000000   0.000000   0.000004   0.000060  -0.000003
    15  H    0.000000   0.000000   0.000000  -0.000005   0.000001
    16  C    0.000000   0.000000   0.000005  -0.000001   0.000000
    17  H    0.000000   0.000000  -0.000001   0.000000   0.000000
    18  C    0.000000   0.000000   0.000002  -0.000684   0.000102
    19  H    0.000000  -0.000006   0.000009  -0.000003   0.000002
    20  C    0.000000   0.000000   0.000000  -0.015858  -0.000842
    21  H    0.000000   0.000000   0.000000   0.043894   0.005951
    22  H    0.000000   0.000000   0.000000   0.000104   0.000090
    23  H    0.000000   0.000000   0.000000   0.000214  -0.000045
    24  C    0.000000   0.000433  -0.000488  -0.000001   0.000000
    25  H    0.000000   0.000713  -0.000377   0.000000   0.000000
    26  C    0.000000  -0.016188   0.004919   0.000000   0.000000
    27  H    0.000000   0.000129  -0.000072   0.000000   0.000000
    28  H    0.000001   0.051712  -0.012601   0.000000   0.000000
    29  C    0.000380   0.000308  -0.000403   0.000000   0.000000
    30  C    0.001122  -0.017271   0.001732   0.000000   0.000000
    31  H    0.000032   0.000160  -0.000115   0.000000   0.000000
    32  H   -0.000971   0.000098   0.000003   0.000000   0.000000
    33  H   -0.000126   0.047443  -0.000534   0.000000   0.000000
    34  O    0.000002   0.000041  -0.000131   0.000000   0.000000
    35  O    0.000760   0.000000   0.000007   0.000000   0.000000
    36  H    0.000000   0.000000   0.000000   0.327317  -0.023812
    37  H    0.000000   0.329953  -0.012205   0.000000   0.000000
    38  H   -0.000009   0.000000   0.000000   0.000000   0.000000
    39  H   -0.030621   0.000000  -0.000001   0.000000   0.000000
    40  O    0.000000   0.000000   0.000000   0.000000   0.000000
    41  H    0.000000   0.000000   0.000000   0.000000   0.000000
    42  O    0.334271   0.000000   0.000000   0.000000   0.000000
    43  H    0.508166   0.000000   0.000000   0.000000   0.000000
    44  O    0.000000   7.631107   0.300225   0.000000   0.000000
    45  H    0.000000   0.300225   0.485078   0.000000   0.000000
    46  O    0.000000   0.000000   0.000000   7.658542   0.334700
    47  H    0.000000   0.000000   0.000000   0.334700   0.490532
 Mulliken charges:
               1
     1  C    0.298687
     2  C   -0.130375
     3  C   -0.089402
     4  C    0.286230
     5  H    0.063084
     6  H    0.009781
     7  C    0.063371
     8  H    0.080675
     9  H    0.076839
    10  H    0.063819
    11  N   -0.367747
    12  O   -0.300070
    13  O   -0.294298
    14  C   -0.035686
    15  H    0.046060
    16  C   -0.007865
    17  H    0.050141
    18  C   -0.126271
    19  H    0.072086
    20  C    0.034511
    21  H   -0.005918
    22  H    0.054170
    23  H    0.070215
    24  C   -0.136414
    25  H    0.065569
    26  C    0.235892
    27  H    0.088872
    28  H    0.040485
    29  C    0.239409
    30  C   -0.068610
    31  H    0.097703
    32  H    0.045401
    33  H    0.055094
    34  O   -0.333113
    35  O   -0.350092
    36  H    0.191583
    37  H    0.197574
    38  H    0.181129
    39  H    0.186548
    40  O   -0.353437
    41  H    0.190472
    42  O   -0.375249
    43  H    0.186991
    44  O   -0.334556
    45  H    0.200492
    46  O   -0.358479
    47  H    0.194702
 Sum of Mulliken charges =   0.00000
 Mulliken charges with hydrogens summed into heavy atoms:
               1
     1  C    0.298687
     2  C   -0.067290
     3  C   -0.079622
     4  C    0.286230
     7  C    0.284704
    11  N   -0.367747
    12  O   -0.300070
    13  O   -0.294298
    14  C    0.010374
    16  C    0.042277
    18  C   -0.054185
    20  C    0.152977
    24  C   -0.070845
    26  C    0.365248
    29  C    0.239409
    30  C    0.129589
    34  O   -0.333113
    35  O   -0.350092
    40  O    0.018164
    42  O   -0.001710
    44  O    0.063510
    46  O    0.027806
 Electronic spatial extent (au):  <R**2>=           8224.6010
 Charge=              0.0000 electrons
 Dipole moment (field-independent basis, Debye):
    X=              3.6296    Y=              5.2070    Z=             -4.7799  Tot=              7.9457
 Quadrupole moment (field-independent basis, Debye-Ang):
   XX=           -150.1326   YY=           -128.7797   ZZ=           -133.1386
   XY=            -18.5543   XZ=              4.4077   YZ=             10.4915
 Traceless Quadrupole moment (field-independent basis, Debye-Ang):
   XX=            -12.7823   YY=              8.5706   ZZ=              4.2117
   XY=            -18.5543   XZ=              4.4077   YZ=             10.4915
 Octapole moment (field-independent basis, Debye-Ang**2):
  XXX=            260.2479  YYY=             97.5897  ZZZ=             29.0251  XYY=            -17.7577
  XXY=             41.1923  XXZ=            -82.9543  XZZ=            -43.6382  YZZ=              2.6371
  YYZ=            -12.1811  XYZ=            -14.8351
 Hexadecapole moment (field-independent basis, Debye-Ang**3):
 XXXX=          -7407.1748 YYYY=          -1990.3442 ZZZZ=          -1463.1876 XXXY=           -400.1481
 XXXZ=            457.7203 YYYX=           -167.0947 YYYZ=             28.4922 ZZZX=            -66.8177
 ZZZY=            -30.5855 XXYY=          -1343.6574 XXZZ=          -1385.9455 YYZZ=           -605.9235
 XXYZ=             70.8907 YYXZ=             29.8042 ZZXY=              1.9345
 N-N= 2.062659263645D+03 E-N=-6.849379510663D+03  KE= 1.155031930805D+03
 1\1\GINC-D8S0B2\FTS\RM062X\def2SVP\C13H25N1O8\CHMKSH\06-Sep-2020\0\\# 
 opt=(calcfc,ts,noeigentest) scrf=(cpcm,solvent=water) geom=connectivit
 y def2svp empiricaldispersion=gd3 m062x\\Title Card Required\\0,1\C,2.
 3661627766,1.0508069698,0.672877475\C,1.9475132732,-0.3798062105,0.693
 2347389\C,0.566468356,-0.406827998,0.5482310507\C,0.0958305708,1.00267
 79504,0.5070715406\H,2.5783936236,-1.1164460539,1.1850068468\H,-0.1058
 034476,-1.2067046169,0.8556002644\C,1.1817056067,3.2521578045,0.334102
 9688\H,0.7966060053,3.7026150206,1.2594978717\H,2.2043274896,3.6031816
 528,0.1579870087\H,0.5367453816,3.5391252191,-0.5062351123\N,1.2211001
 037,1.808814966,0.4392555875\O,-1.0459438182,1.4204470267,0.5161628163
 \O,3.4720224619,1.5265020397,0.8256330771\C,2.1099283765,-2.0298065634
 ,-1.6217641476\H,2.5180116777,-3.0436212716,-1.5802384251\C,0.72683866
 44,-1.8765251039,-1.8132417048\H,0.1091155629,-2.7733476053,-1.9196713
 354\C,2.938369724,-0.9730603075,-1.284022819\H,2.6422018139,0.03289441
 79,-1.5961385423\C,4.3944093925,-1.1569243392,-0.9853656732\H,4.674731
 2835,-0.6261030672,-0.06648834\H,4.6382034313,-2.2198457949,-0.8546500
 473\H,5.0070647271,-0.7507647864,-1.8042352666\C,0.1014053158,-0.65447
 83652,-1.6496009968\H,0.6799743834,0.2564178264,-1.8249878975\C,-1.389
 9429087,-0.4825159092,-1.7799334589\H,-1.7511401503,-0.9434122676,-2.7
 128962797\H,-1.6413105156,0.5843614165,-1.7913508389\C,-3.1450366364,-
 0.689519075,-0.1341558715\C,-3.9203596326,0.3901822035,-0.8272871533\H
 ,-4.153911477,0.0772343318,-1.8548716962\H,-4.8408428699,0.559583446,-
 0.2606549396\H,-3.3293558947,1.3137366847,-0.8882855935\O,-2.021998545
 1,-1.1400878349,-0.6783283176\O,-3.510639493,-1.2155306734,0.899967974
 4\H,4.4824524293,0.3138158894,1.8834877715\H,-2.3626966429,3.684951133
 7,-1.6092247512\H,-2.1037606913,-2.3598911029,1.5090877132\H,-5.154655
 8755,-0.5560531245,1.5844074047\O,-1.3396698641,-2.8470405102,1.863514
 3112\H,-1.1568634722,-2.3916867743,2.6941588854\O,-5.9622170887,-0.044
 660807,1.7619837275\H,-5.6232422651,0.7478550005,2.19516675\O,-1.72338
 44138,2.9641861135,-1.6550854223\H,-1.5915942202,2.6930267255,-0.73191
 94999\O,4.7216152683,-0.4963525748,2.3636853375\H,5.6573242233,-0.6168
 731013,2.1643560083\\Version=ES64L-G09RevD.01\State=1-A\HF=-1165.60741
 01\RMSD=7.758e-09\RMSF=2.810e-06\Dipole=1.4221026,2.0378868,-1.8965761
 \Quadrupole=-9.478253,6.457277,3.020976,-13.7558929,3.3920533,7.821442
 9\PG=C01 [X(C13H25N1O8)]\\@


 ERWIN WITH HIS PSI CAN DO
 CALCULATIONS QUITE A FEW.
 BUT ONE THING HAS NOT BEEN SEEN
 JUST WHAT DOES PSI REALLY MEAN.
 -- WALTER HUCKEL, TRANS. BY FELIX BLOCH
 Job cpu time:       0 days 14 hours 31 minutes 19.6 seconds.
 File lengths (MBytes):  RWF=   1030 Int=      0 D2E=      0 Chk=     26 Scr=      1
 Normal termination of Gaussian 09 at Sun Sep  6 22:52:15 2020.
