 Entering Gaussian System, Link 0=g09
 Input=freq_m06-2x_TS2_scan2_diene_dienophile_pm6_cpcmtoluene_2_3_gd3.com
 Output=freq_m06-2x_TS2_scan2_diene_dienophile_pm6_cpcmtoluene_2_3_gd3.log
 Initial command:
 /apps/applications/gaussian/G09.D01/2/default/g09/l1.exe "/local/725668.1.40core-192G.q/Gau-305298.inp" -scrdir="/local/725668.1.40core-192G.q/"
 Entering Link 1 = /apps/applications/gaussian/G09.D01/2/default/g09/l1.exe PID=    305299.
  
 Copyright (c) 1988,1990,1992,1993,1995,1998,2003,2009,2013,
            Gaussian, Inc.  All Rights Reserved.
  
 This is part of the Gaussian(R) 09 program.  It is based on
 the Gaussian(R) 03 system (copyright 2003, Gaussian, Inc.),
 the Gaussian(R) 98 system (copyright 1998, Gaussian, Inc.),
 the Gaussian(R) 94 system (copyright 1995, Gaussian, Inc.),
 the Gaussian 92(TM) system (copyright 1992, Gaussian, Inc.),
 the Gaussian 90(TM) system (copyright 1990, Gaussian, Inc.),
 the Gaussian 88(TM) system (copyright 1988, Gaussian, Inc.),
 the Gaussian 86(TM) system (copyright 1986, Carnegie Mellon
 University), and the Gaussian 82(TM) system (copyright 1983,
 Carnegie Mellon University). Gaussian is a federally registered
 trademark of Gaussian, Inc.
  
 This software contains proprietary and confidential information,
 including trade secrets, belonging to Gaussian, Inc.
  
 This software is provided under written license and may be
 used, copied, transmitted, or stored only in accord with that
 written license.
  
 The following legend is applicable only to US Government
 contracts under FAR:
  
                    RESTRICTED RIGHTS LEGEND
  
 Use, reproduction and disclosure by the US Government is
 subject to restrictions as set forth in subparagraphs (a)
 and (c) of the Commercial Computer Software - Restricted
 Rights clause in FAR 52.227-19.
  
 Gaussian, Inc.
 340 Quinnipiac St., Bldg. 40, Wallingford CT 06492
  
  
 ---------------------------------------------------------------
 Warning -- This program may not be used in any manner that
 competes with the business of Gaussian, Inc. or will provide
 assistance to any competitor of Gaussian, Inc.  The licensee
 of this program is prohibited from giving any competitor of
 Gaussian, Inc. access to this program.  By using this program,
 the user acknowledges that Gaussian, Inc. is engaged in the
 business of creating and licensing software in the field of
 computational chemistry and represents and warrants to the
 licensee that it is not a competitor of Gaussian, Inc. and that
 it will not use this program in any manner prohibited above.
 ---------------------------------------------------------------
  

 Cite this work as:
 Gaussian 09, Revision D.01,
 M. J. Frisch, G. W. Trucks, H. B. Schlegel, G. E. Scuseria, 
 M. A. Robb, J. R. Cheeseman, G. Scalmani, V. Barone, B. Mennucci, 
 G. A. Petersson, H. Nakatsuji, M. Caricato, X. Li, H. P. Hratchian, 
 A. F. Izmaylov, J. Bloino, G. Zheng, J. L. Sonnenberg, M. Hada, 
 M. Ehara, K. Toyota, R. Fukuda, J. Hasegawa, M. Ishida, T. Nakajima, 
 Y. Honda, O. Kitao, H. Nakai, T. Vreven, J. A. Montgomery, Jr., 
 J. E. Peralta, F. Ogliaro, M. Bearpark, J. J. Heyd, E. Brothers, 
 K. N. Kudin, V. N. Staroverov, T. Keith, R. Kobayashi, J. Normand, 
 K. Raghavachari, A. Rendell, J. C. Burant, S. S. Iyengar, J. Tomasi, 
 M. Cossi, N. Rega, J. M. Millam, M. Klene, J. E. Knox, J. B. Cross, 
 V. Bakken, C. Adamo, J. Jaramillo, R. Gomperts, R. E. Stratmann, 
 O. Yazyev, A. J. Austin, R. Cammi, C. Pomelli, J. W. Ochterski, 
 R. L. Martin, K. Morokuma, V. G. Zakrzewski, G. A. Voth, 
 P. Salvador, J. J. Dannenberg, S. Dapprich, A. D. Daniels, 
 O. Farkas, J. B. Foresman, J. V. Ortiz, J. Cioslowski, 
 and D. J. Fox, Gaussian, Inc., Wallingford CT, 2013.
 
 ******************************************
 Gaussian 09:  ES64L-G09RevD.01 24-Apr-2013
                 6-Sep-2020 
 ******************************************
 %nprocshared=4
 Will use up to    4 processors via shared memory.
 ----------------------------------------------------------------------
 # freq scrf=(cpcm,solvent=toluene) geom=connectivity def2svp empirical
 dispersion=gd3 m062x
 ----------------------------------------------------------------------
 1/10=4,30=1,38=1,57=2/1,3;
 2/12=2,17=6,18=5,40=1/2;
 3/5=43,7=101,11=2,16=1,25=1,30=1,70=2101,71=2,72=13,74=-55,124=31,140=1/1,2,3;
 4//1;
 5/5=2,38=5,53=13,98=1/2;
 8/6=4,10=90,11=11/1;
 11/6=1,8=1,9=11,15=111,16=1/1,2,10;
 10/6=1/2;
 6/7=2,8=2,9=2,10=2,18=1,28=1/1;
 7/8=1,10=1,25=1/1,2,3,16;
 1/10=4,30=1/3;
 99//99;
 -------------------
 Title Card Required
 -------------------
 Symbolic Z-matrix:
 Charge =  0 Multiplicity = 1
 C                    -2.43595   0.79345  -0.60702 
 C                    -1.47762  -0.2274   -1.12566 
 C                    -0.19779   0.20939  -0.82587 
 C                    -0.31691   1.52259  -0.12452 
 H                    -1.7665   -0.89552  -1.93236 
 H                     0.71809  -0.05347  -1.35033 
 C                    -2.23351   2.9144    0.71304 
 H                    -2.7836    2.6394    1.62306 
 H                    -1.40249   3.57983   0.97351 
 H                    -2.92024   3.42646   0.02629 
 N                    -1.674     1.7457    0.07401 
 O                     0.56453   2.27234   0.23071 
 O                    -3.63645   0.84186  -0.71311 
 C                    -0.97728  -2.63878   0.26685 
 H                    -1.07507  -3.59958  -0.24745 
 C                     0.31898  -2.17844   0.56275 
 H                     1.17318  -2.77934   0.24043 
 C                    -2.10384  -1.84901   0.39036 
 H                    -2.07997  -1.02035   1.10484 
 C                    -3.46669  -2.30543  -0.02943 
 H                    -4.03222  -1.47699  -0.47959 
 H                    -3.40428  -3.1352   -0.74633 
 H                    -4.03851  -2.64664   0.84807 
 C                     0.56334  -0.89784   1.01369 
 H                    -0.20463  -0.37344   1.58983 
 C                     1.95195  -0.36224   1.1994 
 H                     2.34912  -0.67676   2.18041 
 H                     1.91747   0.73387   1.18503 
 C                     3.77458  -0.15198  -0.39819 
 C                     3.91351   1.29415   0.00611 
 H                     4.13315   1.37917   1.07976 
 H                     4.73731   1.72339  -0.57124 
 H                     2.9828    1.84672  -0.19078 
 O                     2.79139  -0.87821   0.17907 
 O                     4.47277  -0.68957  -1.20921 
 

 GradGradGradGradGradGradGradGradGradGradGradGradGradGradGradGradGradGrad
 Berny optimization.
 Initialization pass.
 Trust Radius=3.00D-01 FncErr=1.00D-07 GrdErr=1.00D-07
 Number of steps in this run=      2 maximum allowed number of steps=      2.
 GradGradGradGradGradGradGradGradGradGradGradGradGradGradGradGradGradGrad

                          Input orientation:                          
 ---------------------------------------------------------------------
 Center     Atomic      Atomic             Coordinates (Angstroms)
 Number     Number       Type             X           Y           Z
 ---------------------------------------------------------------------
      1          6           0       -2.435953    0.793449   -0.607022
      2          6           0       -1.477622   -0.227404   -1.125661
      3          6           0       -0.197785    0.209390   -0.825865
      4          6           0       -0.316913    1.522589   -0.124520
      5          1           0       -1.766501   -0.895523   -1.932359
      6          1           0        0.718085   -0.053473   -1.350334
      7          6           0       -2.233506    2.914402    0.713043
      8          1           0       -2.783598    2.639404    1.623060
      9          1           0       -1.402494    3.579827    0.973509
     10          1           0       -2.920239    3.426464    0.026287
     11          7           0       -1.674004    1.745702    0.074014
     12          8           0        0.564525    2.272337    0.230713
     13          8           0       -3.636453    0.841860   -0.713113
     14          6           0       -0.977281   -2.638776    0.266854
     15          1           0       -1.075066   -3.599580   -0.247451
     16          6           0        0.318976   -2.178436    0.562750
     17          1           0        1.173176   -2.779344    0.240428
     18          6           0       -2.103838   -1.849014    0.390361
     19          1           0       -2.079969   -1.020346    1.104838
     20          6           0       -3.466690   -2.305427   -0.029434
     21          1           0       -4.032223   -1.476988   -0.479592
     22          1           0       -3.404278   -3.135199   -0.746331
     23          1           0       -4.038506   -2.646637    0.848074
     24          6           0        0.563342   -0.897843    1.013689
     25          1           0       -0.204627   -0.373437    1.589825
     26          6           0        1.951945   -0.362237    1.199404
     27          1           0        2.349118   -0.676762    2.180406
     28          1           0        1.917472    0.733873    1.185030
     29          6           0        3.774576   -0.151980   -0.398193
     30          6           0        3.913511    1.294149    0.006109
     31          1           0        4.133153    1.379165    1.079761
     32          1           0        4.737307    1.723389   -0.571235
     33          1           0        2.982798    1.846718   -0.190783
     34          8           0        2.791391   -0.878205    0.179065
     35          8           0        4.472767   -0.689570   -1.209205
 ---------------------------------------------------------------------
                    Distance matrix (angstroms):
                    1          2          3          4          5
     1  C    0.000000
     2  C    1.493160   0.000000
     3  C    2.323449   1.385153   0.000000
     4  C    2.292332   2.326371   1.493509   0.000000
     5  H    2.248846   1.086552   2.214956   3.349157   0.000000
     6  H    3.349290   2.214014   1.087650   2.248958   2.687186
     7  C    2.506391   3.717948   3.718802   2.512366   4.661735
     8  H    2.915763   4.180865   4.311453   3.222708   5.115779
     9  H    3.366009   4.348237   4.006110   2.572233   5.348395
    10  H    2.751069   4.093761   4.299707   3.228744   4.883337
    11  N    1.396840   2.317527   2.312847   1.389565   3.318156
    12  O    3.448446   3.501260   2.439923   1.210473   4.488641
    13  O    1.206151   2.444192   3.498167   3.439357   2.828742
    14  C    3.830346   2.829161   3.148603   4.231574   2.915191
    15  H    4.613026   3.507831   3.951258   5.179433   3.260203
    16  C    4.217831   3.144045   2.810161   3.817628   3.495804
    17  H    5.148673   3.924962   3.456739   4.567295   4.112358
    18  C    2.843885   2.306532   3.057658   3.850443   2.533371
    19  H    2.519334   2.442684   2.963525   3.329595   3.055881
    20  C    3.316483   3.078357   4.200517   4.958210   2.915407
    21  H    2.778345   2.916308   4.203176   4.788222   2.753567
    22  H    4.048621   3.508727   4.634026   5.622585   3.017470
    23  H    4.064440   4.038124   5.070513   5.672622   3.994899
    24  C    3.805646   3.031805   2.277990   2.815823   3.755978
    25  H    3.341643   3.002617   2.485014   2.558613   3.888162
    26  C    4.883895   4.145605   3.008290   3.233119   4.890723
    27  H    5.729588   5.077001   4.038520   4.154221   5.822458
    28  H    4.708217   4.217820   2.965315   2.707299   5.093594
    29  C    6.285548   5.302875   4.011626   4.429375   5.797418
    30  C    6.398619   5.714923   4.332625   4.238601   6.388651
    31  H    6.807456   6.239050   4.874096   4.612369   7.003784
    32  H    7.233376   6.537455   5.168381   5.077895   7.142190
    33  H    5.535837   5.007127   3.633219   3.316254   5.754026
    34  O    5.544140   4.511133   3.335854   3.939230   5.023225
    35  O    7.091712   5.968895   4.771701   5.386207   6.284412
                    6          7          8          9         10
     6  H    0.000000
     7  C    4.666658   0.000000
     8  H    5.324889   1.098342   0.000000
     9  H    4.806035   1.095999   1.792696   0.000000
    10  H    5.219430   1.097927   1.785446   1.795633   0.000000
    11  N    3.314798   1.444735   2.104625   2.060782   2.092926
    12  O    2.816502   2.910991   3.644626   2.475972   3.676599
    13  O    4.491066   2.880558   3.068588   3.915575   2.782059
    14  C    3.489033   5.710952   5.741190   6.273053   6.373390
    15  H    4.123908   6.685544   6.733707   7.289845   7.269449
    16  C    2.886979   5.698662   5.827676   6.024099   6.495784
    17  H    3.188731   6.651886   6.850588   6.900039   7.437335
    18  C    3.770575   4.776094   4.703989   5.504930   5.350676
    19  H    3.846013   3.957186   3.762634   4.651646   4.652252
    20  C    4.932384   5.414668   5.258204   6.316883   5.758150
    21  H    5.034880   4.893063   4.787995   5.882037   5.053342
    22  H    5.182252   6.332310   6.272583   7.215023   6.624700
    23  H    5.846593   5.848197   5.487953   6.762629   6.229640
    24  C    2.515057   4.737717   4.907694   4.890363   5.640029
    25  H    3.098114   3.961689   3.966032   4.176485   4.925287
    26  C    2.849370   5.337688   5.622695   5.181038   6.282407
    27  H    3.938894   6.004170   6.136152   5.800840   7.017323
    28  H    2.913162   4.712547   5.091461   4.377941   5.656517
    29  C    3.202876   6.836270   7.408572   6.527634   7.603025
    30  C    3.723811   6.396155   7.019652   5.866864   7.158723
    31  H    4.429504   6.559404   7.051583   5.957985   7.419675
    32  H    4.463001   7.187497   7.887840   6.597708   7.867370
    33  H    3.175564   5.400618   6.096696   4.856957   6.114619
    34  O    2.705151   6.318116   6.748274   6.172023   7.153757
    35  O    3.810797   7.852245   8.471046   7.583580   8.551299
                   11         12         13         14         15
    11  N    0.000000
    12  O    2.304975   0.000000
    13  O    2.299501   4.537101   0.000000
    14  C    4.443676   5.147573   4.488469   0.000000
    15  H    5.388331   6.115252   5.148197   1.094174   0.000000
    16  C    4.428283   4.469891   5.137649   1.407036   2.149286
    17  H    5.348847   5.088225   6.095481   2.155208   2.442418
    18  C    3.634118   4.912350   3.287456   1.381343   2.128299
    19  H    2.979669   4.312679   3.032392   2.130130   3.080741
    20  C    4.431261   6.105268   3.225159   2.529044   2.728045
    21  H    4.031551   5.974283   2.363942   3.352552   3.647474
    22  H    5.243092   6.778455   3.983969   2.676433   2.426883
    23  H    5.048037   6.765008   3.842989   3.115923   3.300038
    24  C    3.588459   3.265439   4.862786   2.441747   3.402093
    25  H    2.991238   3.072279   4.307888   2.734777   3.813299
    26  C    4.342513   3.131178   6.028081   3.825264   4.662250
    27  H    5.146915   3.960210   6.819511   4.310001   5.114918
    28  H    3.893180   2.260101   5.870323   4.538436   5.457664
    29  C    5.788886   4.071519   7.483999   5.404312   5.952117
    30  C    5.606143   3.496142   7.597618   6.281380   6.992766
    31  H    5.904994   3.775413   7.991863   6.551428   7.326318
    32  H    6.443737   4.284457   8.421228   7.237914   7.888125
    33  H    4.665418   2.491356   6.715434   6.000943   6.792027
    34  O    5.180316   3.858434   6.713552   4.160554   4.747345
    35  O    6.734983   5.110833   8.267456   5.973372   6.338105
                   16         17         18         19         20
    16  C    0.000000
    17  H    1.092996   0.000000
    18  C    2.451176   3.409812   0.000000
    19  H    2.718450   3.797925   1.094412   0.000000
    20  C    3.833807   4.671807   1.497300   2.204768   0.000000
    21  H    4.528956   5.413939   2.147997   2.555433   1.099446
    22  H    4.060999   4.696106   2.153482   3.106964   1.098343
    23  H    4.391841   5.248664   2.142112   2.558636   1.101553
    24  C    1.379485   2.123647   2.899502   2.647718   4.394378
    25  H    2.141743   3.083440   2.687572   2.042207   4.122577
    26  C    2.523984   2.714502   4.394819   4.086365   5.886224
    27  H    2.998885   3.093090   4.940370   4.570745   6.431140
    28  H    3.379936   3.713347   4.844970   4.366148   6.300910
    29  C    4.119600   3.752087   6.169076   6.106460   7.563680
    30  C    5.028855   4.915047   6.799677   6.518121   8.211308
    31  H    5.241352   5.172924   7.056661   6.660418   8.518459
    32  H    6.002650   5.799692   7.777403   7.537410   9.155898
    33  H    4.885246   4.986093   6.314272   5.960730   7.672173
    34  O    2.819690   2.497342   4.995036   4.960585   6.422150
    35  O    4.755053   4.166040   6.866925   6.957195   8.187663
                   21         22         23         24         25
    21  H    0.000000
    22  H    1.793078   0.000000
    23  H    1.769411   1.784115   0.000000
    24  C    4.866674   4.883179   4.925720   0.000000
    25  H    4.488965   4.829360   4.518436   1.093943   0.000000
    26  C    6.314425   6.337533   6.420858   1.499861   2.191656
    27  H    6.959703   6.907334   6.815956   2.144552   2.638637
    28  H    6.561840   6.857178   6.856753   2.127328   2.427612
    29  C    7.918862   7.781821   8.295827   3.586328   4.453686
    30  C    8.429104   8.586928   8.914778   4.128399   4.716785
    31  H    8.789912   8.973682   9.112451   4.234700   4.706178
    32  H    9.335709   9.482718   9.905880   5.177338   5.787017
    33  H    7.767944   8.119290   8.400486   3.851900   4.273094
    34  O    6.881430   6.658580   7.086778   2.379325   3.349800
    35  O    8.572469   8.260944   8.972418   4.502026   5.460085
                   26         27         28         29         30
    26  C    0.000000
    27  H    1.104100   0.000000
    28  H    1.096746   1.779602   0.000000
    29  C    2.432798   2.992741   2.596183   0.000000
    30  C    2.831132   3.325565   2.384939   1.507996   0.000000
    31  H    2.793647   2.936160   2.310135   2.158085   1.099181
    32  H    3.904259   4.362992   3.466277   2.115137   1.093715
    33  H    2.806200   3.520233   2.065479   2.159797   1.100148
    34  O    1.418444   2.059502   2.091529   1.351770   2.451161
    35  O    3.501869   3.999939   3.779958   1.197587   2.392676
                   31         32         33         34         35
    31  H    0.000000
    32  H    1.791446   0.000000
    33  H    1.776571   1.799515   0.000000
    34  O    2.776202   3.334341   2.756561   0.000000
    35  O    3.103928   2.509852   3.112868   2.188584   0.000000
 Stoichiometry    C13H17NO4
 Framework group  C1[X(C13H17NO4)]
 Deg. of freedom    99
 Full point group                 C1      NOp   1
 Largest Abelian subgroup         C1      NOp   1
 Largest concise Abelian subgroup C1      NOp   1
                         Standard orientation:                         
 ---------------------------------------------------------------------
 Center     Atomic      Atomic             Coordinates (Angstroms)
 Number     Number       Type             X           Y           Z
 ---------------------------------------------------------------------
      1          6           0       -2.435953    0.793449   -0.607022
      2          6           0       -1.477622   -0.227404   -1.125661
      3          6           0       -0.197785    0.209390   -0.825865
      4          6           0       -0.316913    1.522589   -0.124520
      5          1           0       -1.766501   -0.895523   -1.932359
      6          1           0        0.718085   -0.053473   -1.350334
      7          6           0       -2.233506    2.914402    0.713043
      8          1           0       -2.783598    2.639404    1.623060
      9          1           0       -1.402494    3.579827    0.973509
     10          1           0       -2.920239    3.426464    0.026287
     11          7           0       -1.674004    1.745702    0.074014
     12          8           0        0.564525    2.272337    0.230713
     13          8           0       -3.636453    0.841860   -0.713113
     14          6           0       -0.977281   -2.638776    0.266854
     15          1           0       -1.075066   -3.599580   -0.247451
     16          6           0        0.318976   -2.178436    0.562750
     17          1           0        1.173176   -2.779344    0.240428
     18          6           0       -2.103838   -1.849014    0.390361
     19          1           0       -2.079969   -1.020346    1.104838
     20          6           0       -3.466690   -2.305427   -0.029434
     21          1           0       -4.032223   -1.476988   -0.479592
     22          1           0       -3.404278   -3.135199   -0.746331
     23          1           0       -4.038506   -2.646637    0.848074
     24          6           0        0.563342   -0.897843    1.013689
     25          1           0       -0.204627   -0.373437    1.589825
     26          6           0        1.951945   -0.362237    1.199404
     27          1           0        2.349118   -0.676762    2.180406
     28          1           0        1.917472    0.733873    1.185030
     29          6           0        3.774576   -0.151980   -0.398193
     30          6           0        3.913511    1.294149    0.006109
     31          1           0        4.133153    1.379165    1.079761
     32          1           0        4.737307    1.723389   -0.571235
     33          1           0        2.982798    1.846718   -0.190783
     34          8           0        2.791391   -0.878205    0.179065
     35          8           0        4.472767   -0.689570   -1.209205
 ---------------------------------------------------------------------
 Rotational constants (GHZ):      0.6466699      0.2915911      0.2235843
 Standard basis: def2SVP (5D, 7F)
 There are   355 symmetry adapted cartesian basis functions of A   symmetry.
 There are   337 symmetry adapted basis functions of A   symmetry.
   337 basis functions,   569 primitive gaussians,   355 cartesian basis functions
    67 alpha electrons       67 beta electrons
       nuclear repulsion energy      1378.0934061683 Hartrees.
 NAtoms=   35 NActive=   35 NUniq=   35 SFac= 1.00D+00 NAtFMM=   60 NAOKFM=F Big=F
 Integral buffers will be    131072 words long.
 Raffenetti 2 integral format.
 Two-electron integral symmetry is turned on.
 Nuclear repulsion after empirical dispersion term =     1378.0911269362 Hartrees.
 Force inversion solution in PCM.
 ------------------------------------------------------------------------------
 Polarizable Continuum Model (PCM)
 =================================
 Model                : C-PCM.
 Atomic radii         : UFF (Universal Force Field).
 Polarization charges : Total charges.
 Charge compensation  : None.
 Solution method      : Matrix inversion.
 Cavity type          : Scaled VdW (van der Waals Surface) (Alpha=1.100).
 Cavity algorithm     : GePol (No added spheres)
                        Default sphere list used, NSphG=   35.
                        Lebedev-Laikov grids with approx.  5.0 points / Ang**2.
                        Smoothing algorithm: Karplus/York (Gamma=1.0000).
                        Polarization charges: spherical gaussians, with
                                              point-specific exponents (IZeta= 3).
                        Self-potential: point-specific (ISelfS= 7).
                        Self-field    : sphere-specific E.n sum rule (ISelfD= 2).
 1st derivatives      : Analytical E(r).r(x)/FMM algorithm (CHGder, D1EAlg=3).
                        Cavity 1st derivative terms included.
 2nd derivatives      : Analytical E(r).r(xy)/FMM algorithm (CHGder, D2EAlg=3).
                        Cavity 2nd derivative terms included.
 Solvent              : Toluene, Eps=   2.374100 Eps(inf)=   2.238315
 ------------------------------------------------------------------------------
 One-electron integrals computed using PRISM.
   1 Symmetry operations used in ECPInt.
 ECPInt:  NShTT=   12720 NPrTT=   45736 LenC2=   11880 LenP2D=   30590.
 LDataN:  DoStor=T MaxTD1= 4 Len=   56
 NBasis=   337 RedAO= T EigKep=  3.48D-04  NBF=   337
 NBsUse=   337 1.00D-06 EigRej= -1.00D+00 NBFU=   337
 ExpMin= 1.22D-01 ExpMax= 2.27D+03 ExpMxC= 3.41D+02 IAcc=1 IRadAn=         1 AccDes= 0.00D+00
 Harris functional with IExCor= 1009 and IRadAn=       1 diagonalized for initial guess.
 HarFok:  IExCor= 1009 AccDes= 0.00D+00 IRadAn=         1 IDoV= 1 UseB2=F ITyADJ=14
 ICtDFT=  3500011 ScaDFX=  1.000000  1.000000  1.000000  1.000000
 FoFCou: FMM=F IPFlag=           0 FMFlag=      100000 FMFlg1=           0
         NFxFlg=           0 DoJE=T BraDBF=F KetDBF=T FulRan=T
         wScrn=  0.000000 ICntrl=     500 IOpCl=  0 I1Cent=   200000004 NGrid=           0
         NMat0=    1 NMatS0=      1 NMatT0=    0 NMatD0=    1 NMtDS0=    0 NMtDT0=    0
 Petite list used in FoFCou.
 Requested convergence on RMS density matrix=1.00D-08 within 128 cycles.
 Requested convergence on MAX density matrix=1.00D-06.
 Requested convergence on             energy=1.00D-06.
 No special actions if energy rises.
 Inv3:  Mode=1 IEnd=    18287883.
 Iteration    1 A*A^-1 deviation from unit magnitude is 7.22D-15 for   2462.
 Iteration    1 A*A^-1 deviation from orthogonality  is 1.82D-15 for   2467   1146.
 Iteration    1 A^-1*A deviation from unit magnitude is 6.77D-15 for   2462.
 Iteration    1 A^-1*A deviation from orthogonality  is 2.26D-15 for   2464   1619.
 Error on total polarization charges =  0.00566
 SCF Done:  E(RM062X) =  -860.223516265     A.U. after   15 cycles
            NFock= 15  Conv=0.31D-08     -V/T= 2.0097
 DoSCS=F DFT=T ScalE2(SS,OS)=  1.000000  1.000000
 Range of M.O.s used for correlation:     1   337
 NBasis=   337 NAE=    67 NBE=    67 NFC=     0 NFV=     0
 NROrb=    337 NOA=    67 NOB=    67 NVA=   270 NVB=   270
 PrsmSu:  requested number of processors reduced to:   3 ShMem   1 Linda.
   1 Symmetry operations used in ECPInt.
 ECPInt:  NShTT=   12720 NPrTT=   45736 LenC2=   11880 LenP2D=   30590.
 LDataN:  DoStor=T MaxTD1= 5 Len=  102
 Number of processors reduced to   2 by ecpmxn.
 Symmetrizing basis deriv contribution to polar:
 IMax=3 JMax=2 DiffMx= 0.00D+00
 G2DrvN: will do    18 centers at a time, making    2 passes.
 Calling FoFCou, ICntrl=  3107 FMM=F I1Cent=   0 AccDes= 0.00D+00.
 Calling FoFCou, ICntrl=  3107 FMM=F I1Cent=   0 AccDes= 0.00D+00.
 NEqPCM:  Using equilibrium solvation (IEInf=0, Eps=   2.3741, EpsInf=   2.2383)
 G2PCM: DoFxE=T DoFxN=T DoGrad=T DoDP/DQ/DG/TGxP=FFFF NFrqRd=   0 IEInf=0 SqF1=F DoCFld=F IF1Alg=4.
 End of G2Drv F.D. properties file   721 does not exist.
 End of G2Drv F.D. properties file   722 does not exist.
 End of G2Drv F.D. properties file   788 does not exist.
          IDoAtm=11111111111111111111111111111111111
 NEqPCM:  Using equilibrium solvation (IEInf=0, Eps=   2.3741, EpsInf=   2.2383)
          Differentiating once with respect to electric field.
                with respect to dipole field.
          Differentiating once with respect to nuclear coordinates.
          There are   108 degrees of freedom in the 1st order CPHF.  IDoFFX=6 NUNeed=     3.
    108 vectors produced by pass  0 Test12= 1.81D-14 1.00D-09 XBig12= 1.35D+02 6.19D+00.
 AX will form    56 AO Fock derivatives at one time.
    108 vectors produced by pass  1 Test12= 1.81D-14 1.00D-09 XBig12= 2.08D+01 6.62D-01.
    105 vectors produced by pass  2 Test12= 1.81D-14 1.00D-09 XBig12= 2.96D-01 1.11D-01.
    105 vectors produced by pass  3 Test12= 1.81D-14 1.00D-09 XBig12= 2.37D-03 6.74D-03.
    105 vectors produced by pass  4 Test12= 1.81D-14 1.00D-09 XBig12= 1.19D-05 2.90D-04.
    105 vectors produced by pass  5 Test12= 1.81D-14 1.00D-09 XBig12= 3.87D-08 1.76D-05.
     65 vectors produced by pass  6 Test12= 1.81D-14 1.00D-09 XBig12= 1.25D-10 8.57D-07.
      6 vectors produced by pass  7 Test12= 1.81D-14 1.00D-09 XBig12= 3.36D-13 4.32D-08.
      3 vectors produced by pass  8 Test12= 1.81D-14 1.00D-09 XBig12= 1.03D-15 2.39D-09.
 InvSVY:  IOpt=1 It=  1 EMax= 1.07D-14
 Solved reduced A of dimension   710 with   108 vectors.
 Isotropic polarizability for W=    0.000000      190.19 Bohr**3.
 End of Minotr F.D. properties file   721 does not exist.
 End of Minotr F.D. properties file   722 does not exist.
 End of Minotr F.D. properties file   788 does not exist.

 **********************************************************************

            Population analysis using the SCF density.

 **********************************************************************

 Orbital symmetries:
       Occupied  (A) (A) (A) (A) (A) (A) (A) (A) (A) (A) (A) (A)
                 (A) (A) (A) (A) (A) (A) (A) (A) (A) (A) (A) (A)
                 (A) (A) (A) (A) (A) (A) (A) (A) (A) (A) (A) (A)
                 (A) (A) (A) (A) (A) (A) (A) (A) (A) (A) (A) (A)
                 (A) (A) (A) (A) (A) (A) (A) (A) (A) (A) (A) (A)
                 (A) (A) (A) (A) (A) (A) (A)
       Virtual   (A) (A) (A) (A) (A) (A) (A) (A) (A) (A) (A) (A)
                 (A) (A) (A) (A) (A) (A) (A) (A) (A) (A) (A) (A)
                 (A) (A) (A) (A) (A) (A) (A) (A) (A) (A) (A) (A)
                 (A) (A) (A) (A) (A) (A) (A) (A) (A) (A) (A) (A)
                 (A) (A) (A) (A) (A) (A) (A) (A) (A) (A) (A) (A)
                 (A) (A) (A) (A) (A) (A) (A) (A) (A) (A) (A) (A)
                 (A) (A) (A) (A) (A) (A) (A) (A) (A) (A) (A) (A)
                 (A) (A) (A) (A) (A) (A) (A) (A) (A) (A) (A) (A)
                 (A) (A) (A) (A) (A) (A) (A) (A) (A) (A) (A) (A)
                 (A) (A) (A) (A) (A) (A) (A) (A) (A) (A) (A) (A)
                 (A) (A) (A) (A) (A) (A) (A) (A) (A) (A) (A) (A)
                 (A) (A) (A) (A) (A) (A) (A) (A) (A) (A) (A) (A)
                 (A) (A) (A) (A) (A) (A) (A) (A) (A) (A) (A) (A)
                 (A) (A) (A) (A) (A) (A) (A) (A) (A) (A) (A) (A)
                 (A) (A) (A) (A) (A) (A) (A) (A) (A) (A) (A) (A)
                 (A) (A) (A) (A) (A) (A) (A) (A) (A) (A) (A) (A)
                 (A) (A) (A) (A) (A) (A) (A) (A) (A) (A) (A) (A)
                 (A) (A) (A) (A) (A) (A) (A) (A) (A) (A) (A) (A)
                 (A) (A) (A) (A) (A) (A) (A) (A) (A) (A) (A) (A)
                 (A) (A) (A) (A) (A) (A) (A) (A) (A) (A) (A) (A)
                 (A) (A) (A) (A) (A) (A) (A) (A) (A) (A) (A) (A)
                 (A) (A) (A) (A) (A) (A) (A) (A) (A) (A) (A) (A)
                 (A) (A) (A) (A) (A) (A)
 The electronic state is 1-A.
 Alpha  occ. eigenvalues --  -19.67740 -19.63778 -19.63355 -19.61713 -14.80869
 Alpha  occ. eigenvalues --  -10.68957 -10.68437 -10.68019 -10.62420 -10.59617
 Alpha  occ. eigenvalues --  -10.59143 -10.59067 -10.58675 -10.58412 -10.56836
 Alpha  occ. eigenvalues --  -10.56667 -10.56278 -10.55514  -1.22031  -1.19019
 Alpha  occ. eigenvalues --   -1.16992  -1.13168  -1.06492  -0.94134  -0.90914
 Alpha  occ. eigenvalues --   -0.88345  -0.83711  -0.82260  -0.79408  -0.76471
 Alpha  occ. eigenvalues --   -0.74568  -0.70055  -0.69278  -0.65917  -0.63188
 Alpha  occ. eigenvalues --   -0.60509  -0.58658  -0.58582  -0.57844  -0.57423
 Alpha  occ. eigenvalues --   -0.56895  -0.54562  -0.54124  -0.52446  -0.52167
 Alpha  occ. eigenvalues --   -0.51453  -0.50763  -0.50384  -0.49497  -0.48286
 Alpha  occ. eigenvalues --   -0.47979  -0.47203  -0.46795  -0.46239  -0.45849
 Alpha  occ. eigenvalues --   -0.45096  -0.43127  -0.42672  -0.41862  -0.41354
 Alpha  occ. eigenvalues --   -0.37510  -0.37123  -0.35141  -0.34637  -0.34292
 Alpha  occ. eigenvalues --   -0.30600  -0.28922
 Alpha virt. eigenvalues --   -0.04258  -0.01314   0.05786   0.07510   0.08418
 Alpha virt. eigenvalues --    0.09858   0.10186   0.10765   0.12718   0.13447
 Alpha virt. eigenvalues --    0.13908   0.14194   0.14986   0.16031   0.16380
 Alpha virt. eigenvalues --    0.16935   0.17814   0.18273   0.18871   0.19295
 Alpha virt. eigenvalues --    0.19811   0.20294   0.21233   0.21589   0.24076
 Alpha virt. eigenvalues --    0.24819   0.25296   0.26498   0.28153   0.29113
 Alpha virt. eigenvalues --    0.30221   0.32136   0.33284   0.34421   0.36047
 Alpha virt. eigenvalues --    0.36747   0.38641   0.40083   0.40859   0.43231
 Alpha virt. eigenvalues --    0.43834   0.45454   0.46654   0.46928   0.48051
 Alpha virt. eigenvalues --    0.48620   0.49220   0.49856   0.50517   0.50985
 Alpha virt. eigenvalues --    0.52084   0.52574   0.54881   0.56006   0.57690
 Alpha virt. eigenvalues --    0.58649   0.59286   0.60633   0.61957   0.63061
 Alpha virt. eigenvalues --    0.63151   0.63783   0.65731   0.66143   0.66695
 Alpha virt. eigenvalues --    0.67761   0.67896   0.68265   0.69173   0.69531
 Alpha virt. eigenvalues --    0.70025   0.70341   0.70663   0.71046   0.71301
 Alpha virt. eigenvalues --    0.71817   0.72287   0.72919   0.73222   0.73561
 Alpha virt. eigenvalues --    0.74104   0.74494   0.74968   0.75127   0.75792
 Alpha virt. eigenvalues --    0.76258   0.77043   0.77545   0.78511   0.79667
 Alpha virt. eigenvalues --    0.80160   0.81752   0.83022   0.84592   0.86487
 Alpha virt. eigenvalues --    0.87647   0.90103   0.90430   0.91777   0.93240
 Alpha virt. eigenvalues --    0.95258   0.96158   0.98521   0.99651   1.00586
 Alpha virt. eigenvalues --    1.02653   1.05177   1.07095   1.08968   1.10937
 Alpha virt. eigenvalues --    1.12679   1.13699   1.15156   1.17294   1.18016
 Alpha virt. eigenvalues --    1.20559   1.21817   1.22634   1.25695   1.25856
 Alpha virt. eigenvalues --    1.28388   1.30440   1.32520   1.33823   1.34192
 Alpha virt. eigenvalues --    1.35460   1.36265   1.37370   1.38675   1.40495
 Alpha virt. eigenvalues --    1.44151   1.44743   1.46770   1.48057   1.49151
 Alpha virt. eigenvalues --    1.50656   1.56031   1.56342   1.57139   1.58203
 Alpha virt. eigenvalues --    1.58508   1.59298   1.61212   1.61738   1.62440
 Alpha virt. eigenvalues --    1.63293   1.64456   1.66228   1.67349   1.69500
 Alpha virt. eigenvalues --    1.70471   1.72870   1.74065   1.74459   1.74898
 Alpha virt. eigenvalues --    1.75312   1.78129   1.78674   1.79792   1.80800
 Alpha virt. eigenvalues --    1.81376   1.81799   1.82389   1.83145   1.83394
 Alpha virt. eigenvalues --    1.84340   1.84422   1.86314   1.86901   1.87558
 Alpha virt. eigenvalues --    1.88238   1.89402   1.91138   1.92569   1.93254
 Alpha virt. eigenvalues --    1.93879   1.95364   1.95573   1.96392   1.97150
 Alpha virt. eigenvalues --    1.99078   1.99963   2.01463   2.01766   2.03494
 Alpha virt. eigenvalues --    2.04410   2.05612   2.05987   2.07391   2.07734
 Alpha virt. eigenvalues --    2.09914   2.11091   2.12583   2.13643   2.14313
 Alpha virt. eigenvalues --    2.15295   2.16338   2.19358   2.22277   2.24795
 Alpha virt. eigenvalues --    2.25846   2.27614   2.29765   2.31290   2.32580
 Alpha virt. eigenvalues --    2.34288   2.36021   2.39127   2.39327   2.40879
 Alpha virt. eigenvalues --    2.41992   2.43195   2.44214   2.46399   2.46715
 Alpha virt. eigenvalues --    2.47740   2.48483   2.50503   2.52803   2.54921
 Alpha virt. eigenvalues --    2.55938   2.58457   2.59996   2.63251   2.66420
 Alpha virt. eigenvalues --    2.66628   2.67697   2.68591   2.71310   2.72373
 Alpha virt. eigenvalues --    2.72961   2.75117   2.76357   2.77574   2.77955
 Alpha virt. eigenvalues --    2.78604   2.79567   2.80750   2.82513   2.83489
 Alpha virt. eigenvalues --    2.85662   2.86717   2.87766   2.88965   2.90507
 Alpha virt. eigenvalues --    2.91176   2.93284   2.95238   2.96106   2.96604
 Alpha virt. eigenvalues --    2.99232   3.02312   3.05134   3.09553   3.12971
 Alpha virt. eigenvalues --    3.17976   3.19975   3.21585   3.25196   3.25607
 Alpha virt. eigenvalues --    3.27405   3.33073   3.37294   3.44900   3.47881
 Alpha virt. eigenvalues --    3.60723   3.66888   3.69787   3.70846   3.73613
          Condensed to atoms (all electrons):
               1          2          3          4          5          6
     1  C    4.674057   0.141214   0.082169  -0.105853  -0.035385   0.007887
     2  C    0.141214   5.734352   0.016647   0.073663   0.416583  -0.033489
     3  C    0.082169   0.016647   5.759595   0.128427  -0.037357   0.416581
     4  C   -0.105853   0.073663   0.128427   4.697007   0.008325  -0.035233
     5  H   -0.035385   0.416583  -0.037357   0.008325   0.589549  -0.006702
     6  H    0.007887  -0.033489   0.416581  -0.035233  -0.006702   0.586188
     7  C   -0.017302   0.010766   0.008384  -0.023797  -0.000169  -0.000117
     8  H   -0.003019   0.000498  -0.000755   0.002840  -0.000011  -0.000003
     9  H    0.006108  -0.001503   0.004502  -0.006059   0.000018  -0.000027
    10  H   -0.004676   0.002264  -0.001098   0.002293   0.000010   0.000024
    11  N    0.264434  -0.144956  -0.138012   0.286850   0.005163   0.004176
    12  O    0.000451   0.006408  -0.091068   0.690898  -0.000055   0.001010
    13  O    0.731192  -0.090894   0.006476   0.000588   0.001502  -0.000059
    14  C   -0.004191   0.006741  -0.057329   0.003999  -0.003077  -0.003492
    15  H   -0.000075   0.000540  -0.000742   0.000057   0.001091  -0.000043
    16  C    0.004509  -0.057826  -0.008785  -0.003583  -0.003242  -0.001458
    17  H    0.000047  -0.000668   0.000481  -0.000079  -0.000042   0.001307
    18  C   -0.008910   0.134664  -0.042398   0.001883  -0.004336   0.001495
    19  H   -0.005619   0.002140  -0.026874   0.006137   0.003515  -0.000245
    20  C   -0.001716  -0.024621   0.005161  -0.000281  -0.003921  -0.000036
    21  H    0.001719  -0.014381   0.001881  -0.000106   0.001351  -0.000023
    22  H    0.000254  -0.001864  -0.000227   0.000016   0.001709  -0.000005
    23  H   -0.000230   0.002506  -0.000195   0.000007  -0.000020   0.000002
    24  C    0.002039  -0.050770   0.134643  -0.007202   0.001733  -0.014933
    25  H    0.004703  -0.021612  -0.000359  -0.002661  -0.000185   0.003954
    26  C   -0.000446   0.007213  -0.026911   0.000949  -0.000074  -0.001450
    27  H    0.000002  -0.000121   0.002173  -0.000171   0.000001   0.000454
    28  H    0.000022   0.000758  -0.008745   0.000467  -0.000015  -0.000937
    29  C    0.000004  -0.000102   0.000381   0.000049   0.000000   0.000975
    30  C    0.000000  -0.000012   0.000652  -0.000712   0.000001  -0.001149
    31  H    0.000000   0.000000  -0.000019  -0.000030   0.000000   0.000013
    32  H    0.000000   0.000001  -0.000007   0.000022   0.000000  -0.000002
    33  H   -0.000007   0.000057  -0.001525  -0.000269  -0.000001   0.000946
    34  O   -0.000004   0.000277  -0.000467  -0.000744  -0.000002   0.007915
    35  O    0.000000  -0.000001  -0.000021   0.000006   0.000000  -0.000347
               7          8          9         10         11         12
     1  C   -0.017302  -0.003019   0.006108  -0.004676   0.264434   0.000451
     2  C    0.010766   0.000498  -0.001503   0.002264  -0.144956   0.006408
     3  C    0.008384  -0.000755   0.004502  -0.001098  -0.138012  -0.091068
     4  C   -0.023797   0.002840  -0.006059   0.002293   0.286850   0.690898
     5  H   -0.000169  -0.000011   0.000018   0.000010   0.005163  -0.000055
     6  H   -0.000117  -0.000003  -0.000027   0.000024   0.004176   0.001010
     7  C    4.479250   0.409409   0.399192   0.408856   0.252036  -0.004960
     8  H    0.409409   0.592983  -0.019737  -0.025664  -0.027677   0.000175
     9  H    0.399192  -0.019737   0.571741  -0.017744  -0.027424   0.016328
    10  H    0.408856  -0.025664  -0.017744   0.586503  -0.027534   0.000115
    11  N    0.252036  -0.027677  -0.027424  -0.027534   7.127088  -0.090591
    12  O   -0.004960   0.000175   0.016328   0.000115  -0.090591   7.704325
    13  O    0.008321   0.000616   0.000252   0.003821  -0.098340  -0.000013
    14  C    0.000010  -0.000001  -0.000001   0.000001   0.000079   0.000018
    15  H    0.000000   0.000000   0.000000   0.000000  -0.000006   0.000000
    16  C    0.000027  -0.000002   0.000004  -0.000001  -0.000299   0.000123
    17  H    0.000000   0.000000   0.000000   0.000000  -0.000008  -0.000008
    18  C   -0.000052   0.000102   0.000012  -0.000028  -0.004626   0.000017
    19  H   -0.000477  -0.000272  -0.000007   0.000075   0.005237  -0.000048
    20  C    0.000012  -0.000016   0.000000   0.000006  -0.000141   0.000000
    21  H   -0.000040   0.000019   0.000001  -0.000024   0.001014   0.000000
    22  H    0.000000   0.000000   0.000000   0.000000  -0.000010   0.000000
    23  H   -0.000001   0.000002   0.000000   0.000000   0.000001   0.000000
    24  C   -0.000013   0.000129  -0.000040  -0.000013  -0.005557  -0.003723
    25  H   -0.000395  -0.000264   0.000004   0.000039   0.005262  -0.001615
    26  C   -0.000026  -0.000014  -0.000026   0.000002   0.000855  -0.008577
    27  H    0.000000   0.000001  -0.000001   0.000000  -0.000015   0.000238
    28  H    0.000047   0.000024   0.000043  -0.000006  -0.000481   0.025301
    29  C    0.000000   0.000000   0.000000   0.000000   0.000001   0.000396
    30  C    0.000001   0.000000   0.000005   0.000000  -0.000032  -0.009838
    31  H    0.000000   0.000000   0.000000   0.000000   0.000000  -0.000034
    32  H    0.000000   0.000000   0.000000   0.000000   0.000000   0.000057
    33  H   -0.000010   0.000000  -0.000033   0.000001   0.000315   0.026531
    34  O    0.000000   0.000000   0.000000   0.000000  -0.000006   0.000032
    35  O    0.000000   0.000000   0.000000   0.000000   0.000000   0.000000
              13         14         15         16         17         18
     1  C    0.731192  -0.004191  -0.000075   0.004509   0.000047  -0.008910
     2  C   -0.090894   0.006741   0.000540  -0.057826  -0.000668   0.134664
     3  C    0.006476  -0.057329  -0.000742  -0.008785   0.000481  -0.042398
     4  C    0.000588   0.003999   0.000057  -0.003583  -0.000079   0.001883
     5  H    0.001502  -0.003077   0.001091  -0.003242  -0.000042  -0.004336
     6  H   -0.000059  -0.003492  -0.000043  -0.001458   0.001307   0.001495
     7  C    0.008321   0.000010   0.000000   0.000027   0.000000  -0.000052
     8  H    0.000616  -0.000001   0.000000  -0.000002   0.000000   0.000102
     9  H    0.000252  -0.000001   0.000000   0.000004   0.000000   0.000012
    10  H    0.003821   0.000001   0.000000  -0.000001   0.000000  -0.000028
    11  N   -0.098340   0.000079  -0.000006  -0.000299  -0.000008  -0.004626
    12  O   -0.000013   0.000018   0.000000   0.000123  -0.000008   0.000017
    13  O    7.672439   0.000171  -0.000003   0.000024   0.000000  -0.001913
    14  C    0.000171   4.971131   0.440947   0.394405  -0.047153   0.439049
    15  H   -0.000003   0.440947   0.638417  -0.051658  -0.012255  -0.068776
    16  C    0.000024   0.394405  -0.051658   4.983380   0.444471  -0.008409
    17  H    0.000000  -0.047153  -0.012255   0.444471   0.618691   0.013382
    18  C   -0.001913   0.439049  -0.068776  -0.008409   0.013382   5.003004
    19  H   -0.001453  -0.002558   0.007420  -0.034498  -0.000222   0.362825
    20  C   -0.009724  -0.058841  -0.012477   0.011682  -0.000176   0.394477
    21  H    0.026121   0.006332   0.000177  -0.000358   0.000009  -0.018855
    22  H    0.000155  -0.014643   0.005687   0.000646  -0.000011  -0.021780
    23  H   -0.000020  -0.002094   0.000233  -0.000412   0.000000  -0.011843
    24  C    0.000027  -0.013428   0.014053   0.384085  -0.073502  -0.045268
    25  H   -0.000062  -0.032699  -0.000235   0.004090   0.006702   0.016085
    26  C    0.000000   0.009814  -0.000172  -0.057149  -0.016380   0.000296
    27  H    0.000000  -0.000214   0.000001  -0.012910   0.000223  -0.000083
    28  H    0.000001  -0.000178   0.000007   0.012960   0.000802   0.000194
    29  C    0.000000   0.000004  -0.000001  -0.000797   0.000540   0.000000
    30  C    0.000000   0.000004   0.000000   0.000397   0.000219   0.000001
    31  H    0.000000   0.000000   0.000000  -0.000048  -0.000006   0.000000
    32  H    0.000000   0.000000   0.000000   0.000001  -0.000004   0.000000
    33  H    0.000000   0.000000   0.000000  -0.000173  -0.000028  -0.000004
    34  O    0.000000   0.000011  -0.000014   0.006593   0.012293   0.000016
    35  O    0.000000   0.000000   0.000000  -0.000087   0.000095   0.000000
              19         20         21         22         23         24
     1  C   -0.005619  -0.001716   0.001719   0.000254  -0.000230   0.002039
     2  C    0.002140  -0.024621  -0.014381  -0.001864   0.002506  -0.050770
     3  C   -0.026874   0.005161   0.001881  -0.000227  -0.000195   0.134643
     4  C    0.006137  -0.000281  -0.000106   0.000016   0.000007  -0.007202
     5  H    0.003515  -0.003921   0.001351   0.001709  -0.000020   0.001733
     6  H   -0.000245  -0.000036  -0.000023  -0.000005   0.000002  -0.014933
     7  C   -0.000477   0.000012  -0.000040   0.000000  -0.000001  -0.000013
     8  H   -0.000272  -0.000016   0.000019   0.000000   0.000002   0.000129
     9  H   -0.000007   0.000000   0.000001   0.000000   0.000000  -0.000040
    10  H    0.000075   0.000006  -0.000024   0.000000   0.000000  -0.000013
    11  N    0.005237  -0.000141   0.001014  -0.000010   0.000001  -0.005557
    12  O   -0.000048   0.000000   0.000000   0.000000   0.000000  -0.003723
    13  O   -0.001453  -0.009724   0.026121   0.000155  -0.000020   0.000027
    14  C   -0.002558  -0.058841   0.006332  -0.014643  -0.002094  -0.013428
    15  H    0.007420  -0.012477   0.000177   0.005687   0.000233   0.014053
    16  C   -0.034498   0.011682  -0.000358   0.000646  -0.000412   0.384085
    17  H   -0.000222  -0.000176   0.000009  -0.000011   0.000000  -0.073502
    18  C    0.362825   0.394477  -0.018855  -0.021780  -0.011843  -0.045268
    19  H    0.646334  -0.037479  -0.004094   0.006286  -0.004527   0.020189
    20  C   -0.037479   4.576596   0.381776   0.398064   0.380262   0.000416
    21  H   -0.004094   0.381776   0.587134  -0.019920  -0.016541   0.000117
    22  H    0.006286   0.398064  -0.019920   0.614699  -0.019670   0.000031
    23  H   -0.004527   0.380262  -0.016541  -0.019670   0.602991  -0.000046
    24  C    0.020189   0.000416   0.000117   0.000031  -0.000046   5.262118
    25  H    0.001482   0.000376  -0.000011  -0.000009  -0.000014   0.352617
    26  C    0.000431  -0.000019  -0.000002   0.000002   0.000001   0.314261
    27  H   -0.000020   0.000001   0.000000   0.000000   0.000000  -0.014466
    28  H   -0.000058  -0.000003   0.000000   0.000000   0.000000  -0.027804
    29  C    0.000000   0.000000   0.000000   0.000000   0.000000   0.006965
    30  C    0.000000   0.000000   0.000000   0.000000   0.000000  -0.003192
    31  H    0.000000   0.000000   0.000000   0.000000   0.000000   0.001392
    32  H    0.000000   0.000000   0.000000   0.000000   0.000000  -0.000003
    33  H    0.000000   0.000000   0.000000   0.000000   0.000000  -0.000878
    34  O   -0.000007   0.000000   0.000000   0.000000   0.000000  -0.091613
    35  O    0.000000   0.000000   0.000000   0.000000   0.000000   0.000124
              25         26         27         28         29         30
     1  C    0.004703  -0.000446   0.000002   0.000022   0.000004   0.000000
     2  C   -0.021612   0.007213  -0.000121   0.000758  -0.000102  -0.000012
     3  C   -0.000359  -0.026911   0.002173  -0.008745   0.000381   0.000652
     4  C   -0.002661   0.000949  -0.000171   0.000467   0.000049  -0.000712
     5  H   -0.000185  -0.000074   0.000001  -0.000015   0.000000   0.000001
     6  H    0.003954  -0.001450   0.000454  -0.000937   0.000975  -0.001149
     7  C   -0.000395  -0.000026   0.000000   0.000047   0.000000   0.000001
     8  H   -0.000264  -0.000014   0.000001   0.000024   0.000000   0.000000
     9  H    0.000004  -0.000026  -0.000001   0.000043   0.000000   0.000005
    10  H    0.000039   0.000002   0.000000  -0.000006   0.000000   0.000000
    11  N    0.005262   0.000855  -0.000015  -0.000481   0.000001  -0.000032
    12  O   -0.001615  -0.008577   0.000238   0.025301   0.000396  -0.009838
    13  O   -0.000062   0.000000   0.000000   0.000001   0.000000   0.000000
    14  C   -0.032699   0.009814  -0.000214  -0.000178   0.000004   0.000004
    15  H   -0.000235  -0.000172   0.000001   0.000007  -0.000001   0.000000
    16  C    0.004090  -0.057149  -0.012910   0.012960  -0.000797   0.000397
    17  H    0.006702  -0.016380   0.000223   0.000802   0.000540   0.000219
    18  C    0.016085   0.000296  -0.000083   0.000194   0.000000   0.000001
    19  H    0.001482   0.000431  -0.000020  -0.000058   0.000000   0.000000
    20  C    0.000376  -0.000019   0.000001  -0.000003   0.000000   0.000000
    21  H   -0.000011  -0.000002   0.000000   0.000000   0.000000   0.000000
    22  H   -0.000009   0.000002   0.000000   0.000000   0.000000   0.000000
    23  H   -0.000014   0.000001   0.000000   0.000000   0.000000   0.000000
    24  C    0.352617   0.314261  -0.014466  -0.027804   0.006965  -0.003192
    25  H    0.626727  -0.023864   0.001375  -0.007389   0.000006   0.000036
    26  C   -0.023864   4.550056   0.386522   0.376592  -0.042203   0.010824
    27  H    0.001375   0.386522   0.612857  -0.027235   0.002046  -0.002225
    28  H   -0.007389   0.376592  -0.027235   0.616752  -0.018405   0.022092
    29  C    0.000006  -0.042203   0.002046  -0.018405   4.487837   0.331008
    30  C    0.000036   0.010824  -0.002225   0.022092   0.331008   4.938008
    31  H   -0.000017  -0.002138   0.000263  -0.000012  -0.001945   0.359798
    32  H   -0.000002   0.001191  -0.000026  -0.000633  -0.002512   0.358223
    33  H    0.000077  -0.006430   0.000852  -0.003651   0.003075   0.346002
    34  O    0.003031   0.300392  -0.027849  -0.025901   0.298612  -0.118895
    35  O    0.000002   0.001636   0.000096  -0.000032   0.744253  -0.103629
              31         32         33         34         35
     1  C    0.000000   0.000000  -0.000007  -0.000004   0.000000
     2  C    0.000000   0.000001   0.000057   0.000277  -0.000001
     3  C   -0.000019  -0.000007  -0.001525  -0.000467  -0.000021
     4  C   -0.000030   0.000022  -0.000269  -0.000744   0.000006
     5  H    0.000000   0.000000  -0.000001  -0.000002   0.000000
     6  H    0.000013  -0.000002   0.000946   0.007915  -0.000347
     7  C    0.000000   0.000000  -0.000010   0.000000   0.000000
     8  H    0.000000   0.000000   0.000000   0.000000   0.000000
     9  H    0.000000   0.000000  -0.000033   0.000000   0.000000
    10  H    0.000000   0.000000   0.000001   0.000000   0.000000
    11  N    0.000000   0.000000   0.000315  -0.000006   0.000000
    12  O   -0.000034   0.000057   0.026531   0.000032   0.000000
    13  O    0.000000   0.000000   0.000000   0.000000   0.000000
    14  C    0.000000   0.000000   0.000000   0.000011   0.000000
    15  H    0.000000   0.000000   0.000000  -0.000014   0.000000
    16  C   -0.000048   0.000001  -0.000173   0.006593  -0.000087
    17  H   -0.000006  -0.000004  -0.000028   0.012293   0.000095
    18  C    0.000000   0.000000  -0.000004   0.000016   0.000000
    19  H    0.000000   0.000000   0.000000  -0.000007   0.000000
    20  C    0.000000   0.000000   0.000000   0.000000   0.000000
    21  H    0.000000   0.000000   0.000000   0.000000   0.000000
    22  H    0.000000   0.000000   0.000000   0.000000   0.000000
    23  H    0.000000   0.000000   0.000000   0.000000   0.000000
    24  C    0.001392  -0.000003  -0.000878  -0.091613   0.000124
    25  H   -0.000017  -0.000002   0.000077   0.003031   0.000002
    26  C   -0.002138   0.001191  -0.006430   0.300392   0.001636
    27  H    0.000263  -0.000026   0.000852  -0.027849   0.000096
    28  H   -0.000012  -0.000633  -0.003651  -0.025901  -0.000032
    29  C   -0.001945  -0.002512   0.003075   0.298612   0.744253
    30  C    0.359798   0.358223   0.346002  -0.118895  -0.103629
    31  H    0.574846  -0.011626  -0.012193   0.001756   0.001837
    32  H   -0.011626   0.573732  -0.007730   0.005062   0.007731
    33  H   -0.012193  -0.007730   0.554885   0.003258   0.001671
    34  O    0.001756   0.005062   0.003258   8.068069  -0.090836
    35  O    0.001837   0.007731   0.001671  -0.090836   7.694802
 Mulliken charges:
               1
     1  C    0.266623
     2  C   -0.114470
     3  C   -0.125262
     4  C    0.282296
     5  H    0.064044
     6  H    0.066823
     7  C    0.071047
     8  H    0.070638
     9  H    0.074392
    10  H    0.072775
    11  N   -0.386799
    12  O   -0.261894
    13  O   -0.249225
    14  C   -0.032816
    15  H    0.037827
    16  C   -0.005700
    17  H    0.051279
    18  C   -0.130218
    19  H    0.056389
    20  C    0.000622
    21  H    0.066703
    22  H    0.050591
    23  H    0.069606
    24  C   -0.142487
    25  H    0.064824
    26  C    0.224844
    27  H    0.078234
    28  H    0.065421
    29  C    0.189814
    30  C   -0.127589
    31  H    0.088162
    32  H    0.076524
    33  H    0.095262
    34  O   -0.350977
    35  O   -0.257300
 Sum of Mulliken charges =   0.00000
 Mulliken charges with hydrogens summed into heavy atoms:
               1
     1  C    0.266623
     2  C   -0.050427
     3  C   -0.058438
     4  C    0.282296
     7  C    0.288852
    11  N   -0.386799
    12  O   -0.261894
    13  O   -0.249225
    14  C    0.005011
    16  C    0.045579
    18  C   -0.073830
    20  C    0.187521
    24  C   -0.077663
    26  C    0.368499
    29  C    0.189814
    30  C    0.132358
    34  O   -0.350977
    35  O   -0.257300
 APT charges:
               1
     1  C    1.363725
     2  C   -0.222197
     3  C   -0.184487
     4  C    1.404271
     5  H    0.057863
     6  H    0.065398
     7  C    0.345478
     8  H   -0.009417
     9  H    0.060226
    10  H    0.002398
    11  N   -1.062302
    12  O   -0.996953
    13  O   -0.940128
    14  C   -0.104280
    15  H    0.049802
    16  C   -0.075838
    17  H    0.089415
    18  C    0.107710
    19  H    0.012420
    20  C   -0.050719
    21  H    0.064072
    22  H    0.002223
    23  H   -0.009400
    24  C   -0.021283
    25  H    0.031595
    26  C    0.511919
    27  H   -0.058795
    28  H    0.044365
    29  C    1.522222
    30  C   -0.200763
    31  H    0.054154
    32  H    0.048659
    33  H    0.108631
    34  O   -1.094262
    35  O   -0.915722
 Sum of APT charges =   0.00000
 APT charges with hydrogens summed into heavy atoms:
               1
     1  C    1.363725
     2  C   -0.164334
     3  C   -0.119089
     4  C    1.404271
     7  C    0.398685
    11  N   -1.062302
    12  O   -0.996953
    13  O   -0.940128
    14  C   -0.054478
    16  C    0.013576
    18  C    0.120130
    20  C    0.006176
    24  C    0.010312
    26  C    0.497490
    29  C    1.522222
    30  C    0.010681
    34  O   -1.094262
    35  O   -0.915722
 Electronic spatial extent (au):  <R**2>=           4930.3310
 Charge=              0.0000 electrons
 Dipole moment (field-independent basis, Debye):
    X=             -2.2802    Y=              0.3218    Z=              3.2972  Tot=              4.0217
 Quadrupole moment (field-independent basis, Debye-Ang):
   XX=           -128.2139   YY=           -103.1687   ZZ=           -104.5206
   XY=             10.2638   XZ=              7.1608   YZ=              1.4891
 Traceless Quadrupole moment (field-independent basis, Debye-Ang):
   XX=            -16.2461   YY=              8.7990   ZZ=              7.4471
   XY=             10.2638   XZ=              7.1608   YZ=              1.4891
 Octapole moment (field-independent basis, Debye-Ang**2):
  XXX=            -10.3164  YYY=              6.1704  ZZZ=              3.2971  XYY=            -25.2627
  XXY=             33.1094  XXZ=             66.4745  XZZ=             -3.3459  YZZ=              8.7422
  YYZ=             -5.1115  XYZ=            -18.2977
 Hexadecapole moment (field-independent basis, Debye-Ang**3):
 XXXX=          -4674.6849 YYYY=          -1765.5376 ZZZZ=           -440.3409 XXXY=            240.8712
 XXXZ=            136.4939 YYYX=            -70.4925 YYYZ=             41.1657 ZZZX=             18.2755
 ZZZY=             16.0767 XXYY=           -942.5268 XXZZ=           -786.7181 YYZZ=           -385.1902
 XXYZ=            -20.6234 YYXZ=             -3.6868 ZZXY=              0.3381
 N-N= 1.378091126936D+03 E-N=-4.758860972673D+03  KE= 8.519339988527D+02
  Exact polarizability: 232.297   9.797 200.348   7.187   0.937 137.913
 Approx polarizability: 246.097   9.877 215.292  12.302  -2.240 161.991
   1 Symmetry operations used in ECPInt.
 ECPInt:  NShTT=   12720 NPrTT=   45736 LenC2=   11880 LenP2D=   30590.
 LDataN:  DoStor=T MaxTD1= 6 Len=  172
 D2PCM: C-PCM CHGder 2nd derivatives, FixD1E=F FixD2E=F DoIter=F DoCFld=F I1PDM=0
 Calling FoFJK, ICntrl=    100127 FMM=F ISym2X=0 I1Cent= 0 IOpClX= 0 NMat=1 NMatS=1 NMatT=0.
 Full mass-weighted force constant matrix:
 Low frequencies --- -428.2537   -5.5150   -0.0011   -0.0008    0.0005    9.6679
 Low frequencies ---   14.4397   37.5766   41.7374
 ******    1 imaginary frequencies (negative Signs) ****** 
 Diagonal vibrational polarizability:
       82.5287862      62.9945952     104.9668724
 Harmonic frequencies (cm**-1), IR intensities (KM/Mole), Raman scattering
 activities (A**4/AMU), depolarization ratios for plane and unpolarized
 incident light, reduced masses (AMU), force constants (mDyne/A),
 and normal coordinates:
                      1                      2                      3
                      A                      A                      A
 Frequencies --   -428.2536                37.3944                41.4099
 Red. masses --      8.5417                 7.4438                 4.7741
 Frc consts  --      0.9230                 0.0061                 0.0048
 IR Inten    --     12.9790                 4.3641                 2.3175
  Atom  AN      X      Y      Z        X      Y      Z        X      Y      Z
     1   6    -0.01  -0.05   0.03    -0.09   0.01   0.11     0.02   0.00  -0.04
     2   6    -0.08  -0.26   0.32    -0.12   0.03   0.00     0.07   0.04  -0.01
     3   6     0.08  -0.21   0.37    -0.10   0.05  -0.10     0.05   0.07   0.06
     4   6     0.02  -0.04   0.03    -0.06   0.04  -0.09    -0.03   0.04   0.10
     5   1     0.04   0.14  -0.07    -0.18   0.06   0.00     0.13   0.05  -0.04
     6   1    -0.08   0.10  -0.09    -0.14   0.05  -0.16     0.07   0.12   0.08
     7   6     0.01  -0.01  -0.02     0.00   0.01   0.10    -0.11  -0.04   0.04
     8   1     0.01  -0.02  -0.02     0.05  -0.02   0.13    -0.13  -0.07   0.02
     9   1     0.01  -0.01  -0.02     0.01   0.00   0.07    -0.15  -0.01   0.08
    10   1     0.00  -0.01  -0.01    -0.04   0.03   0.16    -0.11  -0.05   0.03
    11   7     0.01  -0.01  -0.03    -0.04   0.02   0.04    -0.04   0.00   0.04
    12   8     0.00   0.01  -0.01    -0.03   0.06  -0.18    -0.07   0.05   0.18
    13   8     0.00   0.01  -0.01    -0.10  -0.01   0.23     0.03  -0.01  -0.12
    14   6     0.07   0.01  -0.01     0.04   0.02  -0.11     0.05   0.04  -0.01
    15   1    -0.02  -0.06   0.14     0.07   0.03  -0.14     0.07   0.04  -0.02
    16   6    -0.05  -0.05  -0.03     0.03   0.06  -0.12     0.04   0.04   0.03
    17   1     0.00  -0.09   0.18     0.05   0.09  -0.13     0.04   0.05   0.03
    18   6     0.07   0.27  -0.24     0.01  -0.03  -0.05     0.04   0.03  -0.04
    19   1    -0.01  -0.04   0.12    -0.01  -0.07  -0.01     0.02   0.03  -0.03
    20   6     0.05   0.07  -0.04     0.02  -0.07  -0.05     0.05   0.02  -0.07
    21   1    -0.13   0.00   0.06    -0.04  -0.06   0.06     0.06   0.01  -0.10
    22   1     0.05   0.10  -0.08     0.05   0.00  -0.13     0.08   0.01  -0.06
    23   1     0.24  -0.04   0.04     0.08  -0.19  -0.06     0.03   0.02  -0.09
    24   6    -0.11   0.21  -0.31    -0.01   0.06  -0.10     0.03   0.04   0.04
    25   1     0.01  -0.02   0.07    -0.03   0.03  -0.11     0.03   0.03   0.05
    26   6    -0.05   0.02  -0.06    -0.03   0.09  -0.06     0.03   0.03   0.06
    27   1    -0.22  -0.14  -0.04    -0.11   0.21   0.01     0.00   0.08   0.09
    28   1     0.07   0.03   0.05    -0.04   0.09  -0.19     0.06   0.03  -0.01
    29   6     0.00   0.00   0.00     0.12  -0.08   0.09    -0.03  -0.08  -0.05
    30   6     0.00   0.00   0.00     0.03  -0.02  -0.12    -0.11  -0.01  -0.30
    31   1     0.01   0.00   0.00    -0.05   0.15  -0.12     0.01   0.18  -0.34
    32   1     0.00   0.00  -0.01     0.06  -0.07  -0.12    -0.21  -0.03  -0.46
    33   1     0.00   0.00   0.00     0.03  -0.08  -0.26    -0.17  -0.10  -0.27
    34   8     0.00   0.00   0.00     0.06  -0.02   0.07     0.06  -0.07   0.12
    35   8     0.00   0.00   0.00     0.25  -0.19   0.27    -0.04  -0.16   0.00
                      4                      5                      6
                      A                      A                      A
 Frequencies --     60.4857                82.9470                89.2108
 Red. masses --      5.6627                 3.9676                 1.0290
 Frc consts  --      0.0122                 0.0161                 0.0048
 IR Inten    --      0.5252                 6.9149                 0.1614
  Atom  AN      X      Y      Z        X      Y      Z        X      Y      Z
     1   6    -0.04  -0.01  -0.07     0.02   0.01  -0.02     0.00   0.00  -0.01
     2   6     0.00   0.01  -0.01    -0.01  -0.02  -0.02     0.01   0.00   0.00
     3   6    -0.02   0.04   0.04     0.01  -0.05  -0.02     0.01   0.00   0.00
     4   6    -0.08   0.02   0.08     0.04  -0.06   0.00     0.00   0.00   0.00
     5   1     0.05  -0.01  -0.01    -0.03  -0.01  -0.01     0.01   0.00  -0.01
     6   1     0.00   0.09   0.05     0.00  -0.06  -0.03     0.01   0.00   0.00
     7   6    -0.16  -0.04  -0.01     0.08  -0.02   0.01     0.00  -0.01   0.02
     8   1    -0.20  -0.07  -0.04    -0.01  -0.02  -0.04     0.48   0.06   0.33
     9   1    -0.19  -0.02   0.04     0.11  -0.09   0.11    -0.05   0.26  -0.49
    10   1    -0.14  -0.05  -0.04     0.17   0.07  -0.01    -0.43  -0.35   0.20
    11   7    -0.10  -0.01   0.00     0.04  -0.03   0.00     0.00   0.00   0.00
    12   8    -0.11   0.01   0.16     0.05  -0.08   0.01     0.00   0.00   0.00
    13   8    -0.03  -0.02  -0.16     0.02   0.05  -0.04     0.01   0.00  -0.02
    14   6    -0.03   0.03   0.03    -0.07  -0.02  -0.02    -0.01   0.00   0.00
    15   1    -0.09   0.01   0.06    -0.12  -0.02  -0.01    -0.01   0.00   0.00
    16   6     0.00   0.00  -0.05    -0.04  -0.07  -0.06    -0.01   0.00   0.00
    17   1    -0.03  -0.02  -0.10    -0.06  -0.09  -0.08    -0.01  -0.01   0.00
    18   6     0.00   0.06   0.08    -0.03   0.03   0.03     0.00   0.00   0.00
    19   1     0.07   0.09   0.03     0.04   0.04   0.02     0.00   0.01   0.00
    20   6    -0.05   0.08   0.20    -0.08   0.09   0.12    -0.01   0.01   0.00
    21   1    -0.03   0.05   0.12    -0.04   0.09   0.09     0.00   0.01  -0.01
    22   1    -0.13  -0.01   0.30    -0.16   0.03   0.17    -0.01   0.00   0.02
    23   1    -0.02   0.22   0.27    -0.06   0.18   0.17    -0.01   0.03   0.01
    24   6     0.04  -0.01  -0.06     0.00  -0.08  -0.04     0.00   0.00   0.00
    25   1     0.09  -0.01   0.01     0.01  -0.08  -0.03     0.00   0.00   0.00
    26   6     0.05  -0.01  -0.13     0.00  -0.09   0.00     0.00  -0.01   0.00
    27   1     0.10  -0.02  -0.16    -0.02  -0.16  -0.02     0.00  -0.01   0.00
    28   1     0.03  -0.01  -0.12     0.00  -0.09   0.07     0.00  -0.01   0.00
    29   6     0.14  -0.04  -0.02    -0.01   0.08   0.02     0.00   0.00   0.00
    30   6     0.17  -0.06   0.07    -0.24   0.14  -0.12    -0.01   0.00   0.00
    31   1     0.10  -0.13   0.09    -0.20   0.27  -0.14    -0.01   0.01   0.00
    32   1     0.24  -0.07   0.16    -0.34   0.22  -0.19    -0.01   0.01   0.00
    33   1     0.21  -0.01   0.03    -0.34  -0.02  -0.11    -0.01   0.00   0.00
    34   8     0.00   0.01  -0.19     0.04  -0.02  -0.01     0.00   0.00   0.00
    35   8     0.22  -0.05   0.06     0.15   0.10   0.13     0.01   0.00   0.01
                      7                      8                      9
                      A                      A                      A
 Frequencies --     97.7270               116.6924               154.1094
 Red. masses --      3.6844                 5.8195                 3.9971
 Frc consts  --      0.0207                 0.0467                 0.0559
 IR Inten    --      2.0990                 0.6245                 0.0565
  Atom  AN      X      Y      Z        X      Y      Z        X      Y      Z
     1   6     0.03  -0.04  -0.05     0.04   0.00   0.03     0.10  -0.05   0.02
     2   6     0.02  -0.02  -0.10     0.04   0.01   0.03     0.16   0.05  -0.03
     3   6     0.03  -0.02  -0.10     0.04  -0.02   0.07     0.13   0.06   0.07
     4   6     0.03  -0.04  -0.06     0.04   0.00   0.05     0.06   0.10   0.01
     5   1     0.02  -0.02  -0.10     0.05  -0.01   0.04     0.20   0.03  -0.03
     6   1     0.03  -0.02  -0.10     0.06  -0.06   0.13     0.15   0.12   0.06
     7   6     0.03  -0.23   0.25     0.05   0.03   0.00    -0.05  -0.01  -0.02
     8   1     0.01  -0.40   0.18     0.04   0.05   0.00    -0.10  -0.06  -0.06
     9   1     0.03  -0.28   0.39     0.05   0.03  -0.01    -0.10   0.02   0.04
    10   1     0.04  -0.08   0.34     0.06   0.02  -0.02    -0.03  -0.04  -0.06
    11   7     0.03  -0.11   0.04     0.04   0.01   0.03     0.05   0.02   0.00
    12   8     0.02  -0.02  -0.08     0.04   0.00   0.05     0.01   0.18  -0.05
    13   8     0.03  -0.02  -0.06     0.04   0.00   0.03     0.09  -0.17   0.11
    14   6    -0.04   0.06   0.07    -0.04  -0.04   0.14    -0.03  -0.03  -0.07
    15   1    -0.04   0.03   0.14     0.03  -0.06   0.17    -0.04  -0.04  -0.06
    16   6    -0.04   0.07   0.07    -0.06   0.00   0.19    -0.03  -0.01  -0.09
    17   1    -0.04   0.03   0.14    -0.05  -0.02   0.23    -0.02   0.02  -0.10
    18   6    -0.03   0.10  -0.02    -0.07  -0.07   0.00    -0.02  -0.04  -0.01
    19   1    -0.03   0.14  -0.06    -0.18  -0.04  -0.03     0.03  -0.02  -0.04
    20   6    -0.03   0.09  -0.01     0.01  -0.09  -0.23    -0.06  -0.01   0.09
    21   1     0.01   0.05  -0.11     0.06  -0.09  -0.29     0.08  -0.08  -0.23
    22   1    -0.03   0.01   0.09     0.16  -0.05  -0.26    -0.16  -0.28   0.41
    23   1    -0.06   0.20   0.02    -0.13  -0.15  -0.35    -0.15   0.43   0.20
    24   6    -0.03   0.10  -0.01    -0.05   0.02   0.10    -0.07   0.00  -0.08
    25   1    -0.04   0.14  -0.06    -0.03   0.07   0.08    -0.07  -0.05  -0.04
    26   6    -0.03   0.08  -0.01    -0.02   0.03  -0.08    -0.08  -0.01  -0.03
    27   1    -0.05   0.09   0.01     0.16  -0.04  -0.18    -0.10  -0.03  -0.03
    28   1    -0.01   0.08  -0.03    -0.03   0.03   0.00    -0.07  -0.01  -0.01
    29   6    -0.01   0.01   0.01    -0.01   0.02  -0.07    -0.05  -0.02   0.01
    30   6     0.04   0.00   0.01    -0.03   0.03  -0.10    -0.06  -0.02   0.02
    31   1     0.02   0.00   0.01    -0.01   0.05  -0.11    -0.10  -0.02   0.03
    32   1     0.07  -0.03   0.02    -0.04   0.03  -0.12    -0.04  -0.02   0.05
    33   1     0.07   0.04  -0.02    -0.05   0.01  -0.09    -0.05  -0.01  -0.01
    34   8    -0.03   0.04   0.01    -0.21   0.11  -0.28    -0.08  -0.01  -0.02
    35   8    -0.03  -0.02   0.00     0.14  -0.05   0.12    -0.03  -0.03   0.04
                     10                     11                     12
                      A                      A                      A
 Frequencies --    163.4694               175.9928               182.4920
 Red. masses --      4.9509                 8.6765                 1.3210
 Frc consts  --      0.0779                 0.1583                 0.0259
 IR Inten    --      2.7699                 7.2955                 1.2090
  Atom  AN      X      Y      Z        X      Y      Z        X      Y      Z
     1   6     0.02   0.07  -0.05     0.00   0.02   0.06     0.02  -0.01  -0.03
     2   6    -0.01   0.03   0.00     0.01  -0.01   0.13     0.04   0.00  -0.01
     3   6     0.00  -0.03   0.05     0.00   0.02   0.11     0.03   0.01   0.00
     4   6     0.03  -0.01   0.04    -0.04   0.08   0.00     0.01   0.03  -0.02
     5   1    -0.01   0.03   0.00     0.03  -0.01   0.12     0.05  -0.01   0.00
     6   1    -0.01  -0.01   0.02     0.00   0.03   0.11     0.04   0.01   0.02
     7   6     0.09   0.02   0.08    -0.10  -0.02   0.09    -0.02  -0.03   0.02
     8   1     0.10   0.02   0.08    -0.21   0.05   0.04     0.00  -0.12   0.01
     9   1     0.13  -0.02   0.08    -0.12  -0.01   0.14    -0.05  -0.02   0.06
    10   1     0.11   0.06   0.10    -0.01  -0.05  -0.03    -0.05  -0.01   0.07
    11   7     0.04   0.01   0.05    -0.04  -0.08   0.25     0.01   0.03  -0.07
    12   8     0.04  -0.02   0.01    -0.07   0.29  -0.39     0.01   0.03   0.01
    13   8     0.04   0.17  -0.20     0.03   0.15  -0.23     0.02  -0.05   0.02
    14   6     0.08  -0.07  -0.07     0.00  -0.07   0.03    -0.01   0.02  -0.01
    15   1     0.12  -0.07  -0.09    -0.03  -0.03  -0.03    -0.02   0.04  -0.04
    16   6     0.04   0.03  -0.10     0.02  -0.12   0.05    -0.01   0.00   0.00
    17   1     0.09   0.12  -0.13     0.00  -0.13   0.01    -0.01   0.00  -0.01
    18   6     0.03  -0.16   0.04     0.02  -0.04   0.05     0.00   0.02   0.02
    19   1     0.05  -0.15   0.02     0.03  -0.07   0.10     0.01   0.00   0.04
    20   6     0.02  -0.23   0.18     0.03   0.05  -0.06    -0.01   0.02   0.04
    21   1    -0.10  -0.22   0.33     0.04   0.14   0.09    -0.21   0.14   0.53
    22   1    -0.03  -0.16   0.10     0.05   0.20  -0.24     0.00   0.37  -0.37
    23   1     0.17  -0.34   0.24     0.01  -0.14  -0.15     0.22  -0.51  -0.02
    24   6    -0.08   0.05  -0.06     0.06  -0.15   0.09     0.00  -0.01   0.01
    25   1    -0.11  -0.06  -0.01     0.08  -0.13   0.09     0.00   0.00   0.01
    26   6    -0.11   0.12  -0.03     0.06  -0.12   0.01     0.00  -0.02   0.01
    27   1    -0.13   0.16  -0.01     0.14  -0.07  -0.01     0.02  -0.05  -0.01
    28   1    -0.13   0.11  -0.07     0.01  -0.12  -0.01     0.01  -0.02   0.04
    29   6    -0.06   0.00   0.01     0.01  -0.02  -0.01    -0.02  -0.01   0.00
    30   6     0.01   0.00  -0.02    -0.07  -0.03   0.04    -0.03  -0.01   0.01
    31   1    -0.03   0.01  -0.01    -0.14  -0.04   0.05    -0.01  -0.02   0.01
    32   1     0.06  -0.06   0.01    -0.05   0.02   0.10    -0.04   0.00   0.00
    33   1     0.05   0.04  -0.06    -0.08  -0.06  -0.01    -0.03  -0.01   0.03
    34   8    -0.11   0.08   0.00     0.03  -0.08  -0.04    -0.03   0.00  -0.02
    35   8    -0.07  -0.07   0.05     0.04   0.04  -0.02     0.00   0.00   0.01
                     13                     14                     15
                      A                      A                      A
 Frequencies --    199.7340               211.5549               243.0021
 Red. masses --      3.8351                 4.3553                 1.4967
 Frc consts  --      0.0901                 0.1148                 0.0521
 IR Inten    --      3.0311                 1.8479                 4.6827
  Atom  AN      X      Y      Z        X      Y      Z        X      Y      Z
     1   6    -0.02   0.09  -0.08    -0.04   0.02  -0.02     0.00   0.00   0.00
     2   6    -0.02   0.01   0.05    -0.04  -0.04   0.04     0.00  -0.01   0.02
     3   6    -0.01   0.01   0.06    -0.04  -0.01  -0.01     0.00  -0.02   0.03
     4   6    -0.01   0.09  -0.07    -0.02  -0.01  -0.05     0.00   0.00   0.00
     5   1     0.00  -0.01   0.06    -0.05  -0.02   0.02     0.00  -0.01   0.01
     6   1    -0.03  -0.01   0.04    -0.03  -0.08   0.05     0.00  -0.01   0.03
     7   6    -0.01  -0.02   0.16     0.00  -0.02   0.04    -0.01  -0.01   0.00
     8   1     0.11  -0.34   0.13     0.05  -0.12   0.04    -0.02  -0.02   0.00
     9   1    -0.02  -0.06   0.28     0.01  -0.04   0.07    -0.02   0.00   0.01
    10   1    -0.11   0.16   0.40    -0.04   0.06   0.14    -0.02  -0.01   0.01
    11   7    -0.01   0.20  -0.25    -0.03   0.05  -0.11     0.00   0.00   0.00
    12   8     0.00   0.04   0.00    -0.01  -0.03  -0.04     0.01   0.01  -0.04
    13   8    -0.03   0.04  -0.02    -0.05   0.01   0.01     0.00  -0.01  -0.01
    14   6    -0.01  -0.05   0.09     0.14   0.00  -0.12    -0.03   0.02  -0.04
    15   1     0.00  -0.09   0.16     0.12   0.04  -0.19    -0.01   0.04  -0.08
    16   6    -0.01  -0.04   0.06     0.12  -0.03  -0.01    -0.03   0.03  -0.03
    17   1    -0.02  -0.08   0.10     0.15   0.04  -0.06    -0.04   0.03  -0.06
    18   6    -0.02  -0.06   0.02     0.18   0.06  -0.07    -0.06  -0.01   0.00
    19   1    -0.07  -0.03   0.00     0.26   0.01  -0.01    -0.07  -0.03   0.02
    20   6     0.01  -0.13  -0.02     0.13   0.15   0.04    -0.05  -0.04   0.01
    21   1     0.07  -0.22  -0.26     0.21   0.12  -0.12    -0.06  -0.06  -0.02
    22   1     0.07  -0.29   0.17     0.00  -0.01   0.23    -0.04  -0.06   0.03
    23   1    -0.09   0.08  -0.01     0.10   0.43   0.13    -0.05  -0.02   0.02
    24   6     0.01  -0.01  -0.03     0.04  -0.09   0.17     0.00   0.01   0.02
    25   1     0.04   0.01  -0.02    -0.01  -0.14   0.16     0.01   0.00   0.04
    26   6     0.03  -0.07  -0.01     0.00  -0.03   0.09     0.03  -0.05   0.08
    27   1     0.00  -0.09  -0.01     0.17  -0.10   0.00     0.02  -0.22   0.03
    28   1     0.07  -0.07   0.00    -0.04  -0.02   0.18     0.08  -0.04   0.24
    29   6     0.02  -0.02   0.00    -0.08  -0.01   0.01     0.02   0.03   0.00
    30   6    -0.04  -0.02   0.02    -0.04  -0.02   0.02     0.10   0.03  -0.03
    31   1    -0.05  -0.02   0.03     0.09  -0.06  -0.01     0.62  -0.03  -0.13
    32   1    -0.04   0.02   0.04    -0.12   0.00  -0.07    -0.19   0.09  -0.40
    33   1    -0.05  -0.04   0.01    -0.08  -0.03   0.15    -0.02   0.00   0.43
    34   8     0.07  -0.07   0.01    -0.18   0.06  -0.10     0.01   0.05   0.01
    35   8     0.04   0.04  -0.03    -0.04  -0.07   0.07     0.01  -0.01   0.01
                     16                     17                     18
                      A                      A                      A
 Frequencies --    258.2682               281.0663               286.8827
 Red. masses --      2.8536                 2.7605                 2.8729
 Frc consts  --      0.1121                 0.1285                 0.1393
 IR Inten    --      5.0014                 3.6148                 2.7329
  Atom  AN      X      Y      Z        X      Y      Z        X      Y      Z
     1   6    -0.01   0.01   0.00     0.01   0.04   0.00    -0.04  -0.02  -0.02
     2   6    -0.01   0.04  -0.07    -0.01   0.04  -0.06     0.02   0.02  -0.04
     3   6     0.00   0.05  -0.08     0.00   0.03  -0.07     0.01   0.04  -0.02
     4   6     0.00   0.01  -0.01     0.02   0.02  -0.01    -0.06   0.02   0.00
     5   1    -0.02   0.10  -0.11    -0.03   0.05  -0.06     0.03   0.03  -0.05
     6   1    -0.01   0.09  -0.12    -0.02   0.05  -0.11     0.02   0.07  -0.02
     7   6     0.00   0.02  -0.02    -0.13  -0.04  -0.04     0.23   0.11   0.06
     8   1    -0.02   0.10  -0.01    -0.17  -0.09  -0.08     0.28   0.25   0.13
     9   1     0.01   0.02  -0.06    -0.23   0.07   0.00     0.42  -0.09  -0.05
    10   1     0.03  -0.03  -0.08    -0.16  -0.16  -0.10     0.28   0.27   0.13
    11   7    -0.01  -0.04   0.08     0.03   0.00   0.02    -0.05  -0.01   0.01
    12   8    -0.01   0.01   0.00     0.03   0.00   0.02    -0.12   0.08   0.03
    13   8    -0.01   0.02   0.01     0.01   0.12   0.07    -0.04  -0.13  -0.05
    14   6     0.04   0.07   0.03     0.03  -0.15   0.10     0.00  -0.07   0.05
    15   1     0.05   0.01   0.15     0.00  -0.24   0.26    -0.03  -0.12   0.15
    16   6     0.01   0.09   0.05     0.02  -0.12   0.07     0.01  -0.08   0.05
    17   1     0.03   0.05   0.19     0.05  -0.17   0.25     0.01  -0.12   0.14
    18   6     0.04   0.08  -0.08     0.08  -0.05  -0.03     0.04   0.00  -0.04
    19   1     0.00   0.12  -0.13     0.15   0.00  -0.09     0.08   0.03  -0.08
    20   6     0.07  -0.13   0.06     0.04   0.07   0.01     0.01   0.05   0.00
    21   1    -0.09  -0.26   0.03     0.07   0.14   0.10    -0.01   0.07   0.09
    22   1     0.13  -0.20   0.15    -0.06   0.11  -0.05    -0.03   0.09  -0.05
    23   1     0.21  -0.13   0.16     0.06   0.05   0.01     0.07  -0.01   0.02
    24   6    -0.01   0.12  -0.04    -0.04  -0.03  -0.12    -0.02  -0.04  -0.05
    25   1     0.01   0.19  -0.07    -0.09  -0.01  -0.21    -0.04  -0.03  -0.10
    26   6     0.06  -0.10   0.03    -0.07   0.01  -0.04    -0.04   0.01  -0.03
    27   1     0.03  -0.33  -0.03    -0.13   0.01  -0.01    -0.06   0.06  -0.01
    28   1     0.23  -0.10   0.20    -0.08   0.01  -0.03    -0.08   0.01  -0.07
    29   6    -0.03  -0.05   0.00    -0.01   0.01   0.01     0.00   0.00   0.00
    30   6    -0.12  -0.06   0.08     0.03   0.01   0.00     0.02   0.00   0.01
    31   1     0.02  -0.13   0.05     0.35  -0.04  -0.06     0.27  -0.05  -0.04
    32   1    -0.23   0.05   0.01    -0.14   0.05  -0.22    -0.12   0.05  -0.16
    33   1    -0.19  -0.12   0.23    -0.03   0.01   0.29    -0.03   0.00   0.24
    34   8    -0.03  -0.09  -0.06     0.00   0.02   0.02     0.01   0.00   0.02
    35   8     0.03   0.02   0.01    -0.02  -0.01   0.02     0.00   0.00   0.00
                     19                     20                     21
                      A                      A                      A
 Frequencies --    311.9329               347.3632               368.2814
 Red. masses --      2.6132                 1.8028                 3.0532
 Frc consts  --      0.1498                 0.1282                 0.2440
 IR Inten    --      0.2598                 3.5198                 0.8685
  Atom  AN      X      Y      Z        X      Y      Z        X      Y      Z
     1   6     0.01  -0.03   0.01     0.01   0.01   0.00     0.00   0.01   0.00
     2   6     0.00  -0.03   0.06     0.01  -0.01   0.00     0.00   0.00   0.01
     3   6     0.00   0.00  -0.02     0.01  -0.02   0.03     0.01   0.04  -0.06
     4   6     0.00   0.00  -0.01     0.01  -0.02   0.01     0.01   0.01  -0.01
     5   1    -0.03  -0.13   0.15     0.02   0.02  -0.02    -0.02  -0.02   0.03
     6   1    -0.02   0.02  -0.07     0.02  -0.06   0.07     0.00   0.05  -0.08
     7   6     0.01  -0.01   0.00    -0.01  -0.02  -0.01    -0.01   0.00   0.00
     8   1     0.02  -0.01   0.00    -0.02  -0.04  -0.02    -0.01   0.01   0.00
     9   1     0.02  -0.01   0.00    -0.03   0.00   0.01    -0.01   0.01   0.00
    10   1     0.01   0.01   0.01    -0.02  -0.03  -0.01     0.00  -0.01  -0.01
    11   7     0.00   0.00  -0.01     0.02   0.00  -0.01     0.00   0.00   0.01
    12   8     0.00  -0.02   0.02     0.01   0.00   0.00     0.00   0.01   0.01
    13   8     0.01  -0.01  -0.03     0.01   0.02   0.02     0.01  -0.01  -0.01
    14   6     0.04   0.02   0.04    -0.03   0.06  -0.01    -0.08   0.08   0.11
    15   1     0.05   0.08  -0.08    -0.07   0.07  -0.02    -0.30   0.06   0.18
    16   6     0.04   0.09  -0.10     0.00  -0.03   0.00     0.02  -0.10  -0.13
    17   1     0.04   0.16  -0.20    -0.03  -0.03  -0.10    -0.07  -0.17  -0.24
    18   6     0.01  -0.07   0.23    -0.02   0.08  -0.05     0.00   0.19   0.11
    19   1    -0.01  -0.11   0.28    -0.05   0.09  -0.06    -0.09   0.22   0.07
    20   6     0.06   0.08  -0.07     0.01  -0.05   0.01     0.14  -0.08  -0.02
    21   1     0.26   0.17  -0.14    -0.10  -0.14  -0.02     0.02  -0.25  -0.18
    22   1     0.16   0.14  -0.13     0.07  -0.09   0.06     0.47  -0.11   0.03
    23   1    -0.21   0.06  -0.25     0.08  -0.06   0.05     0.07  -0.18  -0.11
    24   6    -0.01   0.09  -0.09     0.03  -0.07   0.09     0.03  -0.13  -0.08
    25   1    -0.01   0.06  -0.06     0.04  -0.10   0.13    -0.02  -0.23  -0.07
    26   6    -0.01   0.03  -0.06    -0.03   0.11  -0.10    -0.04  -0.05   0.03
    27   1    -0.07   0.03  -0.03     0.05   0.50  -0.01    -0.06  -0.13   0.01
    28   1     0.04   0.03  -0.07    -0.20   0.10  -0.43    -0.08  -0.04   0.12
[...]
 00004479,0.00002873,-0.00010098,-0.00037956,-0.00035151,-0.00016577,0.
 00002277,-0.00000220,-0.00000444,0.00001582,0.00005118,-0.00005366,-0.
 00002856,0.00005893,0.00003456,0.00000872,-0.00000851,-0.00000787,-0.0
 0001282,0.00000699,-0.00000124,0.00001434,-0.00000941,-0.00000263,0.00
 033211,0.00012223,0.00004189,0.00084568,0.00038183,0.00046861,0.000171
 33,0.00000344,0.00002608,-0.00002633,-0.00004366,-0.00002880,0.0000269
 1,0.00002044,0.00000974,0.00030782,0.00019509,0.00009134,0.00002514,-0
 .00014924,-0.00004321,0.00001538,-0.00001792,0.00004877,0.00000105,0.0
 0001887,0.00000479,0.00001948,-0.00000715,-0.00002849,0.00000534,-0.00
 000087,0.00000808,0.00000347,0.00000825,0.00000589,0.00001877,0.000010
 42,0.00000729,-0.00020736,0.00014187,-0.00024477,0.00011736,0.00002639
 ,0.00001220,0.00047716,0.00273357,0.00076484,0.00001216,0.00022102,-0.
 00001440,0.00064933,0.00126313,-0.00033037,-0.00776322,-0.02389674,-0.
 09908766,-0.04161620,-0.01964784,0.57738931,-0.00008713,-0.00000884,-0
 .00001573,0.00004477,0.00002133,0.00001636,0.00002501,-0.00000497,-0.0
 0005971,-0.00006810,-0.00001831,-0.00004847,0.00000923,-0.00000436,-0.
 00000121,0.00005782,0.00003010,0.00002143,-0.00000914,0.00001210,0.000
 00684,-0.00000162,-0.00000236,-0.00000262,-0.00000463,0.00000252,-0.00
 000536,0.00000437,-0.00000049,0.00000154,0.00007811,0.00003718,-0.0000
 0217,-0.00003027,0.00012948,0.00034219,0.00006737,-0.00000303,0.000010
 22,-0.00002976,0.00001799,0.00000797,0.00001813,0.00001280,0.00000621,
 0.00018830,0.00002734,0.00007196,0.00000254,0.00000835,0.00000026,0.00
 000437,-0.00002473,0.00002799,-0.00000501,0.00000640,0.00000076,0.0000
 1092,0.00000242,-0.00001940,0.00000155,-0.00000059,0.00000363,0.000001
 82,0.00000450,0.00000384,0.00001123,0.00000586,0.00000405,-0.00029110,
 0.00016433,0.00008346,0.00000994,-0.00000709,-0.00000139,-0.00016753,-
 0.00064751,-0.00079873,0.00001268,-0.00010739,0.00013818,-0.00138746,-
 0.00024250,-0.00050447,-0.00260875,0.00250747,-0.00185119,-0.05298762,
 -0.00851842,-0.05354389,0.05437944,-0.00001977,0.00001888,0.00001644,0
 .00001551,-0.00000523,-0.00000476,-0.00000761,0.00000521,-0.00001699,-
 0.00009892,-0.00000186,0.00000262,0.00000319,-0.00000320,-0.00000019,0
 .00002329,-0.00001069,0.00000712,-0.00000244,0.00001666,0.00000937,0.0
 0000328,-0.00000110,-0.00000175,0.00000018,0.00000061,0.00000347,0.000
 00090,-0.00000274,-0.00000149,0.00003087,-0.00001387,-0.00000373,0.000
 12089,-0.00006760,-0.00014019,0.00002122,-0.00000738,-0.00000354,0.000
 00826,-0.00000406,-0.00001575,0.00000176,0.00000170,0.00000187,0.00004
 842,0.00001869,0.00001341,0.00002233,-0.00000289,0.00000222,-0.0000004
 6,-0.00000003,0.00001287,-0.00000082,0.00000242,-0.00000043,0.00000560
 ,-0.00000005,-0.00000843,0.00000049,0.00000028,0.00000203,0.00000047,0
 .00000113,0.00000126,0.00000397,0.00000288,0.00000184,-0.00006903,-0.0
 0012466,0.00017610,0.00001255,0.00000531,-0.00000453,-0.00110055,0.000
 44542,-0.00033543,-0.00001084,-0.00016576,0.00032094,-0.00083976,-0.00
 037407,0.00009538,-0.00725740,0.00491961,-0.03453618,-0.00875282,-0.04
 544075,-0.02082929,0.00664434,0.04641982,-0.00000699,0.00002515,0.0000
 0901,0.00002175,0.00000948,0.00000572,-0.00000387,-0.00002689,-0.00003
 057,0.00003689,0.00009283,0.00002715,0.00000270,-0.00000187,-0.0000010
 5,-0.00000236,0.00001473,-0.00000287,0.00000123,-0.00000450,-0.0000022
 1,-0.00000083,0.00000010,0.00000053,-0.00000030,-0.00000089,-0.0000020
 0,-0.00000025,0.00000141,-0.00000077,-0.00002804,-0.00001151,-0.000012
 42,-0.00018159,-0.00006928,0.00004783,0.00000222,-0.00000627,-0.000000
 42,-0.00002900,0.00002504,0.00001358,0.00001133,0.00000543,0.00000276,
 0.00015395,0.00001572,0.00002951,-0.00000310,0.00000247,-0.00000914,0.
 00000683,-0.00001674,0.00000557,-0.00000161,0.00000372,-0.00000199,0.0
 0000109,-0.00000065,-0.00000210,0.00000132,0.00000040,0.00000054,0.000
 00054,0.00000074,0.00000040,0.00000261,0.00000115,0.00000081,-0.000143
 93,0.00033429,0.00011187,-0.00002263,-0.00001120,-0.00001172,0.0010506
 3,-0.00039858,0.00046898,-0.00022351,-0.00000132,-0.00020715,0.0005926
 2,0.00084945,-0.00003735,0.00126814,0.00047255,-0.00638806,-0.05516554
 ,-0.01915035,-0.31247824,0.05785897,0.02262504,0.33264088,0.00012941,0
 .00003781,0.00004986,-0.00002318,0.00003261,0.00000009,0.00003230,-0.0
 0004719,-0.00002527,0.00052249,0.00028830,0.00018502,-0.00001266,-0.00
 000400,0.00000344,0.00002723,0.00002545,0.00006149,0.00001681,-0.00005
 236,-0.00003128,-0.00000774,0.00000805,0.00000704,0.00000923,-0.000007
 40,0.00000024,-0.00001152,0.00000733,0.00000324,-0.00028604,-0.0000648
 4,-0.00002826,-0.00078629,-0.00004515,-0.00007097,-0.00012333,0.000001
 08,-0.00001987,-0.00000520,0.00000092,-0.00000065,-0.00001055,-0.00000
 668,-0.00000645,-0.00008403,-0.00000839,-0.00001863,0.00001014,0.00001
 254,0.00001148,0.00001475,-0.00001035,-0.00000947,0.00000100,-0.000002
 56,-0.00000701,-0.00001012,0.00000160,0.00001530,0.00000111,0.00000047
 ,-0.00000327,-0.00000096,-0.00000428,-0.00000258,-0.00000967,-0.000005
 98,-0.00000277,0.00011368,-0.00008412,0.00004488,-0.00002168,0.0000062
 2,-0.00002060,0.00007866,0.00012414,-0.00012735,-0.00006290,-0.0001962
 4,0.00006097,0.00010089,-0.00024303,-0.00029825,-0.00374124,0.00193401
 ,0.00143264,-0.21332208,-0.08730223,0.11641719,0.00706848,0.00428524,-
 0.00497387,0.22198462,-0.00002851,-0.00008946,-0.00005876,-0.00004001,
 0.00002062,0.00001266,0.00001994,0.00003026,0.00001416,-0.00032615,-0.
 00029442,-0.00015203,0.00000167,0.00000399,0.00000044,0.00003093,-0.00
 003046,0.00004356,-0.00000511,0.00001807,0.00001117,0.00000196,-0.0000
 0275,-0.00000172,-0.00000511,0.00000556,0.00000095,0.00000405,-0.00000
 175,-0.00000042,0.00017424,0.00007436,0.00004551,0.00054109,0.00013028
 ,0.00004271,0.00003007,0.00002101,0.00001404,0.00000129,0.00004828,0.0
 0004833,0.00000206,-0.00000181,0.00000065,0.00004849,-0.00007920,-0.00
 004674,0.00000005,0.00008625,0.00002831,-0.00002208,0.00001256,-0.0000
 1877,0.00000113,-0.00000693,0.00000548,-0.00000085,0.00000424,0.000001
 19,-0.00000312,-0.00000130,-0.00000069,-0.00000050,-0.00000052,-0.0000
 0094,-0.00000172,-0.00000082,-0.00000067,-0.00012379,0.00030746,0.0000
 7316,-0.00006183,-0.00003550,0.00000784,0.00218571,-0.00090545,-0.0020
 1229,-0.00006984,0.00008053,0.00009974,0.00016152,0.00059586,-0.000001
 51,-0.02614094,-0.01126334,0.02011808,-0.08119571,-0.08767692,0.057931
 52,0.00363227,0.00049599,-0.00184426,0.09188752,0.09522474,-0.00000563
 ,0.00003235,0.00002189,0.00001842,-0.00000022,0.00000041,-0.00000726,-
 0.00001351,-0.00003500,0.00010971,0.00011792,0.00004541,-0.00000011,-0
 .00000294,0.00000047,0.00002659,0.00000708,0.00002449,-0.00000074,-0.0
 0000107,0.00000030,-0.00000109,0.00000071,-0.00000061,0.00000115,-0.00
 000020,-0.00000138,-0.00000053,0.00000062,0.00000082,-0.00005150,-0.00
 002650,-0.00001826,-0.00024311,-0.00000521,0.00002070,-0.00000017,-0.0
 0000902,-0.00000545,-0.00002445,0.00002472,0.00000597,0.00000912,0.000
 00372,0.00000321,0.00012017,0.00000012,0.00001351,0.00000337,0.0000121
 3,0.00000782,0.00000053,-0.00001545,0.00000808,-0.00000186,0.00000289,
 -0.00000191,0.00000238,0.00000013,-0.00000468,0.00000084,0.00000096,0.
 00000119,0.00000057,0.00000048,0.00000124,0.00000282,0.00000157,0.0000
 0072,-0.00015051,0.00022747,0.00004583,-0.00001349,-0.00000625,-0.0000
 1032,0.00083671,-0.00070078,-0.00031605,-0.00008185,-0.00013625,0.0000
 5874,0.00000681,0.00062905,-0.00030550,-0.00856637,-0.00447030,0.00327
 937,0.11836036,0.06322165,-0.12917987,0.02219349,0.01152264,-0.0112288
 5,-0.12558341,-0.06311586,0.13244397,-0.00050295,-0.00064518,-0.000417
 63,-0.00024549,-0.00011648,0.00006796,0.00022527,0.00041082,0.00022298
 ,-0.00323793,-0.00231574,-0.00095831,0.00003167,0.00004397,-0.00001766
 ,-0.00001504,-0.00015510,-0.00019645,-0.00007356,0.00019954,0.00012999
 ,0.00003411,-0.00002652,-0.00002670,-0.00004553,0.00003798,0.00001724,
 0.00003726,-0.00003274,-0.00001133,0.00150572,0.00056933,0.00023638,0.
 00056592,0.00177006,0.00058902,0.00046667,0.00012136,0.00011300,0.0002
 6857,0.00001609,-0.00004541,-0.00000690,-0.00001205,0.00002452,-0.0002
 3720,-0.00014834,-0.00016429,0.00001283,0.00002181,0.00001807,-0.00014
 895,0.00020672,-0.00007852,0.00000310,-0.00002716,0.00005105,0.0000237
 2,-0.00000411,-0.00000285,-0.00001664,-0.00000546,0.00000242,-0.000001
 23,0.00001005,0.00000242,0.00000882,0.00000934,-0.00000143,0.00015208,
 -0.00011212,0.00018302,-0.00002869,-0.00003635,0.00005956,-0.00026190,
 -0.00114510,0.00060319,-0.00003331,0.00008914,0.00005894,-0.00080698,-
 0.00200425,0.00193038,0.00721087,0.00055357,0.00543905,-0.24719162,0.1
 1615670,-0.04420766,-0.00415118,0.00210396,0.00081444,-0.01360716,0.01
 064344,-0.00590106,0.26199728,-0.00014787,0.00007833,-0.00000651,0.000
 06537,-0.00014462,-0.00005372,-0.00012160,0.00021549,0.00015206,-0.001
 01646,-0.00014809,0.00012532,0.00001607,0.00000279,-0.00000366,-0.0001
 6713,-0.00025890,-0.00025265,-0.00002207,0.00007445,0.00004687,0.00001
 117,-0.00001217,-0.00000835,-0.00002082,0.00002157,0.00000568,0.000017
 41,-0.00000863,-0.00000546,0.00023782,-0.00002711,-0.00007027,0.001405
 22,-0.00107687,-0.00035478,0.00015769,-0.00003769,0.00000890,0.0000191
 8,0.00001477,-0.00000198,0.00001310,0.00000696,0.00000935,0.00013713,0
 .00002923,0.00003135,-0.00000027,-0.00000534,-0.00002016,-0.00003486,0
 .00001938,0.00001422,0.00000154,0.00000073,0.00000654,0.00001217,-0.00
 000181,-0.00002645,-0.00000086,-0.00000101,0.00000597,0.00000105,0.000
 00453,0.00000372,0.00001416,0.00000904,0.00000336,-0.00032869,0.000013
 07,0.00007754,0.00000826,-0.00001310,0.00001229,-0.00008207,-0.0006304
 9,0.00049822,0.00000630,0.00027464,-0.00000982,-0.00115937,-0.00072107
 ,0.00178171,0.03041982,-0.01051004,0.00918825,0.11759990,-0.11791152,0
 .02789558,-0.00384441,0.00177813,-0.00081878,-0.01166445,0.00763954,-0
 .00415160,-0.12541238,0.12394270,0.00020263,0.00017914,0.00016101,0.00
 000467,-0.00003964,-0.00007322,-0.00007724,0.00003501,0.00000977,0.000
 42946,0.00057051,0.00036940,-0.00001896,-0.00000811,0.00000598,-0.0000
 6525,-0.00015515,-0.00002955,0.00002978,-0.00006044,-0.00003788,-0.000
 00496,0.00001182,0.00000842,0.00001719,-0.00001050,0.00000575,-0.00001
 694,0.00000564,0.00000031,-0.00047154,-0.00027234,-0.00002920,-0.00059
 290,-0.00042815,-0.00109596,-0.00017836,-0.00003593,-0.00005374,0.0000
 0676,-0.00001175,-0.00001491,-0.00001827,-0.00001243,-0.00000833,-0.00
 014284,-0.00002088,-0.00003073,0.00000822,-0.00000232,0.00000047,0.000
 01130,-0.00000075,-0.00001088,0.00000531,-0.00000322,-0.00001136,-0.00
 001072,-0.00000211,0.00001485,0.00000112,0.00000324,-0.00000251,-0.000
 00185,-0.00000673,-0.00000288,-0.00001085,-0.00000621,-0.00000371,0.00
 022758,-0.00019735,0.00005457,-0.00001767,0.00000576,-0.00001140,-0.00
 076465,0.00129470,-0.00001805,-0.00002657,-0.00009518,0.00004165,0.001
 16498,0.00133867,-0.00136316,0.00988280,-0.00481773,0.00064276,-0.0407
 5453,0.02596174,-0.05017392,-0.02509864,0.01639660,-0.00395363,0.01276
 352,-0.01030874,0.00373905,0.04461507,-0.02736469,0.05512302,0.0021317
 5,-0.00177319,-0.00072760,-0.00189385,0.00080063,0.00065103,0.00188408
 ,0.00012010,0.00133628,0.00050252,-0.00327554,-0.00074264,-0.00017587,
 0.00010644,0.00007450,0.00067272,-0.00046648,0.00167073,0.00022410,-0.
 00065112,-0.00033352,-0.00006727,0.00008299,0.00008628,0.00004458,-0.0
 0000909,0.00004335,-0.00013236,0.00010153,0.00003181,-0.00077728,0.000
 96923,0.00059818,0.00061081,0.00227618,-0.00068948,-0.00187863,0.00064
 587,0.00003409,0.00045815,0.00123224,0.00076919,-0.00022179,-0.0002813
 1,-0.00007328,0.00047793,0.00015498,-0.00083665,-0.00178381,-0.0001128
 4,0.00050896,-0.00036811,0.00081344,-0.00062549,0.00015541,-0.00063730
 ,0.00002880,-0.00014425,-0.00000845,0.00016557,-0.00008336,-0.00000996
 ,-0.00012792,-0.00012547,-0.00011500,-0.00012887,-0.00024537,-0.000138
 93,-0.00006399,-0.03549709,0.01965885,0.03793756,-0.00676062,-0.004886
 96,-0.00044860,-0.10979535,0.03559316,0.06874627,0.00157950,-0.0007073
 3,0.00912655,-0.00680899,0.00533084,0.00853514,-0.14830979,-0.10420643
 ,0.04829393,-0.00240549,-0.01422087,0.01221591,-0.00027146,0.00160405,
 0.00003555,0.00107524,-0.00294563,-0.00031987,-0.00217356,-0.00307044,
 0.00043034,0.38064008,0.00052891,-0.00136874,-0.00079716,-0.00087771,0
 .00034144,0.00000494,0.00057565,0.00043717,0.00052335,-0.00189224,-0.0
 0315788,-0.00121905,-0.00006012,0.00006012,0.00004774,0.00031842,-0.00
 045239,0.00033584,0.00005961,-0.00017334,-0.00008100,-0.00002410,0.000
 02205,0.00001938,-0.00001431,0.00002475,0.00002420,-0.00003631,0.00003
 061,0.00001735,0.00078396,0.00089609,0.00043481,0.00240114,0.00128458,
 0.00138066,-0.00040426,0.00039577,0.00014675,-0.00000389,0.00132097,0.
 00073243,-0.00000026,-0.00006267,-0.00005119,-0.00093614,-0.00268019,-
 0.00049245,-0.00193215,0.00041937,0.00095809,-0.00042069,0.00026515,-0
 .00032721,0.00000124,-0.00029365,0.00007313,-0.00008836,0.00009760,0.0
 0009971,-0.00008092,-0.00002611,-0.00006338,-0.00003697,-0.00003819,-0
 .00004764,-0.00011601,-0.00006521,-0.00003171,-0.00425250,0.01043996,0
 .01206655,-0.00328851,-0.00067929,-0.00089637,0.02315908,-0.12461993,-
 0.04893260,-0.00609956,0.00643623,0.00343000,0.02213795,-0.00694049,-0
 .03107829,-0.07051975,-0.19261834,0.00658699,-0.03266788,-0.01849746,0
 .01402771,-0.00103509,-0.00095094,-0.00043008,-0.00045974,-0.00765894,
 -0.00306009,0.00033550,0.00119985,0.00062775,0.07382333,0.29981357,-0.
 00102582,0.00028786,-0.00003326,0.00052488,0.00071318,0.00027044,-0.00
 107630,-0.00031198,-0.00128645,-0.00130537,0.00077695,-0.00003864,0.00
 016587,-0.00011223,-0.00001537,0.00071708,-0.00062179,0.00106539,-0.00
 011116,0.00021786,0.00010582,-0.00000127,-0.00001941,-0.00002653,-0.00
 002221,0.00002390,-0.00002805,0.00005078,-0.00002791,0.00000162,0.0005
 2909,0.00017939,0.00003607,0.00049241,-0.00096343,0.00107478,0.0006960
 4,-0.00010572,0.00009606,-0.00051990,-0.00029600,-0.00023255,0.0002284
 4,0.00021145,0.00002383,-0.00006352,-0.00130607,0.00160409,-0.00064968
 ,-0.00024432,-0.00014875,0.00033128,-0.00050920,0.00039408,-0.00006071
 ,0.00030443,-0.00002812,0.00013335,0.00005664,-0.00024429,0.00005143,0
 .00001157,0.00006755,0.00006072,0.00006805,0.00006166,0.00016368,0.000
 09195,0.00007407,0.01111672,-0.00276707,-0.00474128,0.00094333,0.00106
 602,0.00012916,0.06470968,-0.06160800,-0.15389321,0.03082625,-0.017114
 01,-0.03073631,0.00642735,-0.00597405,-0.00703874,0.06286127,0.0368037
 7,-0.09007858,0.00592718,-0.00111496,0.01232156,0.00121904,0.00322255,
 0.00023003,0.00093447,-0.00096887,0.00128781,-0.00009045,-0.00209674,-
 0.00077958,-0.25853144,0.03827977,0.31541571,0.00097352,-0.00060888,-0
 .00022699,-0.00065145,0.00038759,0.00013090,0.00046958,-0.00009400,0.0
 0026718,0.00093479,-0.00096756,-0.00012512,-0.00008365,0.00003854,0.00
 003575,0.00034456,-0.00015510,0.00046117,0.00010531,-0.00028072,-0.000
 15203,-0.00003049,0.00003690,0.00004007,0.00002975,-0.00001234,0.00001
 470,-0.00005736,0.00004438,0.00001069,-0.00062453,0.00028919,0.0002251
 2,-0.00034730,0.00074015,-0.00032454,-0.00086129,0.00024322,0.00000102
 ,0.00012202,0.00016759,0.00030589,-0.00012651,-0.00009814,-0.00007091,
 -0.00047800,-0.00021043,-0.00061657,0.00019494,0.00047302,0.00004353,0
 .00000409,0.00018272,-0.00027569,0.00002655,-0.00014167,0.00001133,-0.
 00010920,0.00001452,0.00017863,-0.00002486,0.00000058,-0.00005783,-0.0
 0002540,-0.00004591,-0.00004535,-0.00012632,-0.00007326,-0.00003904,0.
 00019090,0.00209820,0.00225330,-0.00107870,-0.00049338,-0.00013327,0.0
 0742260,-0.00904464,-0.00427028,-0.00281211,0.00098737,0.00310281,-0.0
 0085333,0.00031559,0.00098951,-0.31574070,0.20176989,0.28278079,0.0131
 3275,0.00504175,0.01611512,0.00010468,0.00319965,-0.00107541,0.0009403
 0,0.00160348,-0.00074001,0.00024200,-0.00304967,-0.00152798,-0.0705370
 6,0.00112275,0.07434750,0.36932984,-0.00037612,-0.00036362,-0.00023539
 ,-0.00003746,-0.00005094,-0.00001360,0.00003825,0.00027769,0.00008301,
 -0.00150981,-0.00104191,-0.00051475,0.00004362,0.00000248,-0.00000606,
 -0.00002484,-0.00008335,-0.00017462,-0.00003719,0.00006896,0.00004872,
 0.00000940,-0.00000659,-0.00001477,-0.00002916,0.00001745,0.00000706,0
 .00001195,-0.00001264,0.00000145,0.00079938,0.00032185,0.00017940,0.00
 158439,0.00069603,0.00024298,0.00034279,0.00007973,0.00007102,0.000028
 36,0.00001935,-0.00005294,0.00005641,0.00003053,0.00002309,0.00034484,
 -0.00000026,-0.00001741,0.00004047,-0.00014330,-0.00007007,-0.00004235
 ,0.00004484,0.00003827,0.00000028,0.00000963,0.00003184,0.00002797,-0.
 00000061,-0.00004548,-0.00000739,-0.00000794,0.00000812,0.00000657,0.0
 0001742,0.00001195,0.00002767,0.00001325,0.00000891,-0.00056615,0.0003
 6202,0.00041279,-0.00006566,-0.00005464,-0.00003166,-0.00364754,0.0006
 1151,0.00028337,0.00058497,-0.00017346,-0.00009109,-0.00086800,0.00017
 371,0.00070496,0.18624464,-0.27943053,-0.23731455,0.02463939,-0.023291
 81,-0.04015218,0.00120329,-0.00695588,-0.00168654,0.00155568,0.0032499
 9,-0.00009098,-0.00110027,-0.00381672,-0.00257025,-0.00579699,0.036798
 45,0.01384642,-0.20348135,0.27263929,-0.00099104,0.00030679,0.00004001
 ,0.00057007,-0.00027479,-0.00005452,-0.00031273,0.00017258,-0.00025786
 ,-0.00158079,0.00019264,-0.00022892,0.00011882,-0.00003651,-0.00003351
 ,-0.00014542,0.00006228,-0.00075876,-0.00010355,0.00025978,0.00013558,
 0.00002549,-0.00003371,-0.00003699,-0.00003827,0.00002092,-0.00001373,
 0.00005584,-0.00004104,-0.00000822,0.00091163,-0.00000057,-0.00002382,
 0.00119744,-0.00020551,0.00045376,0.00087079,-0.00014879,0.00005678,-0
 .00014307,-0.00017409,-0.00023836,0.00014352,0.00011706,0.00005941,0.0
 0056137,0.00012802,0.00060923,-0.00019701,-0.00039007,-0.00015582,0.00
 003376,-0.00018318,0.00026101,-0.00003284,0.00014608,0.00000168,0.0000
 9903,-0.00000949,-0.00016466,0.00002444,-0.00000307,0.00004832,0.00003
 150,0.00005375,0.00004285,0.00011581,0.00006729,0.00004099,0.00058711,
 -0.00235819,-0.00304166,0.00122267,0.00064171,0.00007514,-0.00171459,0
 .00564486,0.01132479,0.00101104,-0.00027708,-0.00153183,0.00055304,-0.
 00036916,-0.00086456,0.27627489,-0.25110700,-0.41513040,0.02404105,-0.
 02385189,0.00073983,-0.00006540,0.00146891,0.00077533,-0.00076093,0.00
 003277,0.00009688,-0.00305896,-0.00462131,-0.00247239,0.07232933,0.007
 69105,-0.04491000,-0.37163396,0.26707897,0.45516442\\0.00000006,0.0000
 0008,0.00000079,0.00000029,0.00000152,-0.00000050,0.00000096,0.0000014
 9,0.00000047,0.00000011,0.00000046,0.00000152,0.00000083,0.00000208,-0
 .00000235,0.00000096,0.00000233,0.00000090,-0.00000020,-0.00000181,0.0
 0000261,-0.00000131,-0.00000245,0.00000255,-0.00000104,-0.00000114,0.0
 0000428,-0.00000106,-0.00000072,0.00000295,-0.00000059,0.00000051,0.00
 000127,0.00000289,-0.00000083,0.00000252,0.00000068,0.00000036,-0.0000
 0021,0.00000038,-0.00000002,-0.00000326,0.00000074,-0.00000034,-0.0000
 0530,0.00000085,-0.00000119,-0.00000171,0.00000014,0.00000040,-0.00000
 302,0.00000190,0.00000007,-0.00000315,-0.00000017,-0.00000189,-0.00000
 175,0.00000032,-0.00000060,-0.00000378,0.00000059,-0.00000020,-0.00000
 334,0.00000042,0.00000054,-0.00000543,0.00000023,-0.00000149,-0.000004
 83,-0.00000144,-0.00000115,-0.00000137,-0.00000088,-0.00000193,-0.0000
 0040,0.00000051,-0.00000142,0.00000097,-0.00000073,-0.00000167,0.00000
 024,-0.00000061,-0.00000103,0.00000259,0.00000182,0.00000033,0.0000054
 6,0.00000059,-0.00000032,0.00000300,-0.00000031,-0.00000003,0.00000430
 ,-0.00000084,0.00000237,0.00000287,-0.00000513,0.00000125,0.00000499,-
 0.00000129,0.00000290,-0.00000348,0.00000032,0.00000357,-0.00000040\\\
 @


 ...THOSE SCIENCES ARE VAIN AND FULL OF ERRORS WHICH 
 ARE NOT BORN FROM EXPERIMENT, THE MOTHER OF CERTAINTY...

                          -- LEONARDO DA VINCI, 1452-1519
 Job cpu time:       0 days  2 hours  0 minutes 45.7 seconds.
 File lengths (MBytes):  RWF=    490 Int=      0 D2E=      0 Chk=     16 Scr=      1
 Normal termination of Gaussian 09 at Sun Sep  6 04:14:30 2020.
