 Entering Gaussian System, Link 0=g09
 Input=m06-2x_diene_pm6_cpcmtoluene_1_gd3.com
 Output=m06-2x_diene_pm6_cpcmtoluene_1_gd3.log
 Initial command:
 /apps/applications/gaussian/G09.D01/2/default/g09/l1.exe "/local/725657.1.40core-192G.q/Gau-380322.inp" -scrdir="/local/725657.1.40core-192G.q/"
 Entering Link 1 = /apps/applications/gaussian/G09.D01/2/default/g09/l1.exe PID=    380323.
  
 Copyright (c) 1988,1990,1992,1993,1995,1998,2003,2009,2013,
            Gaussian, Inc.  All Rights Reserved.
  
 This is part of the Gaussian(R) 09 program.  It is based on
 the Gaussian(R) 03 system (copyright 2003, Gaussian, Inc.),
 the Gaussian(R) 98 system (copyright 1998, Gaussian, Inc.),
 the Gaussian(R) 94 system (copyright 1995, Gaussian, Inc.),
 the Gaussian 92(TM) system (copyright 1992, Gaussian, Inc.),
 the Gaussian 90(TM) system (copyright 1990, Gaussian, Inc.),
 the Gaussian 88(TM) system (copyright 1988, Gaussian, Inc.),
 the Gaussian 86(TM) system (copyright 1986, Carnegie Mellon
 University), and the Gaussian 82(TM) system (copyright 1983,
 Carnegie Mellon University). Gaussian is a federally registered
 trademark of Gaussian, Inc.
  
 This software contains proprietary and confidential information,
 including trade secrets, belonging to Gaussian, Inc.
  
 This software is provided under written license and may be
 used, copied, transmitted, or stored only in accord with that
 written license.
  
 The following legend is applicable only to US Government
 contracts under FAR:
  
                    RESTRICTED RIGHTS LEGEND
  
 Use, reproduction and disclosure by the US Government is
 subject to restrictions as set forth in subparagraphs (a)
 and (c) of the Commercial Computer Software - Restricted
 Rights clause in FAR 52.227-19.
  
 Gaussian, Inc.
 340 Quinnipiac St., Bldg. 40, Wallingford CT 06492
  
  
 ---------------------------------------------------------------
 Warning -- This program may not be used in any manner that
 competes with the business of Gaussian, Inc. or will provide
 assistance to any competitor of Gaussian, Inc.  The licensee
 of this program is prohibited from giving any competitor of
 Gaussian, Inc. access to this program.  By using this program,
 the user acknowledges that Gaussian, Inc. is engaged in the
 business of creating and licensing software in the field of
 computational chemistry and represents and warrants to the
 licensee that it is not a competitor of Gaussian, Inc. and that
 it will not use this program in any manner prohibited above.
 ---------------------------------------------------------------
  

 Cite this work as:
 Gaussian 09, Revision D.01,
 M. J. Frisch, G. W. Trucks, H. B. Schlegel, G. E. Scuseria, 
 M. A. Robb, J. R. Cheeseman, G. Scalmani, V. Barone, B. Mennucci, 
 G. A. Petersson, H. Nakatsuji, M. Caricato, X. Li, H. P. Hratchian, 
 A. F. Izmaylov, J. Bloino, G. Zheng, J. L. Sonnenberg, M. Hada, 
 M. Ehara, K. Toyota, R. Fukuda, J. Hasegawa, M. Ishida, T. Nakajima, 
 Y. Honda, O. Kitao, H. Nakai, T. Vreven, J. A. Montgomery, Jr., 
 J. E. Peralta, F. Ogliaro, M. Bearpark, J. J. Heyd, E. Brothers, 
 K. N. Kudin, V. N. Staroverov, T. Keith, R. Kobayashi, J. Normand, 
 K. Raghavachari, A. Rendell, J. C. Burant, S. S. Iyengar, J. Tomasi, 
 M. Cossi, N. Rega, J. M. Millam, M. Klene, J. E. Knox, J. B. Cross, 
 V. Bakken, C. Adamo, J. Jaramillo, R. Gomperts, R. E. Stratmann, 
 O. Yazyev, A. J. Austin, R. Cammi, C. Pomelli, J. W. Ochterski, 
 R. L. Martin, K. Morokuma, V. G. Zakrzewski, G. A. Voth, 
 P. Salvador, J. J. Dannenberg, S. Dapprich, A. D. Daniels, 
 O. Farkas, J. B. Foresman, J. V. Ortiz, J. Cioslowski, 
 and D. J. Fox, Gaussian, Inc., Wallingford CT, 2013.
 
 ******************************************
 Gaussian 09:  ES64L-G09RevD.01 24-Apr-2013
                 6-Sep-2020 
 ******************************************
 %chk=m06-2x_diene_pm6_cpcmtoluene_1_gd3.chk
 %nprocshared=4
 Will use up to    4 processors via shared memory.
 ----------------------------------------------------------------------
 # opt freq scrf=(cpcm,solvent=toluene) geom=connectivity def2svp m062x
  empiricaldispersion=gd3
 ----------------------------------------------------------------------
 1/14=-1,18=20,19=15,26=3,38=1,57=2/1,3;
 2/9=110,12=2,17=6,18=5,40=1/2;
 3/5=43,7=101,11=2,16=1,25=1,30=1,70=2101,71=1,72=13,74=-55,124=31/1,2,3;
 4//1;
 5/5=2,38=5,53=13/2;
 6/7=2,8=2,9=2,10=2,28=1/1;
 7//1,2,3,16;
 1/14=-1,18=20,19=15,26=3/3(2);
 2/9=110/2;
 99//99;
 2/9=110/2;
 3/5=43,7=101,11=2,16=1,25=1,30=1,70=2105,71=1,72=13,74=-55,124=31/1,2,3;
 4/5=5,16=3,69=1/1;
 5/5=2,38=5,53=13/2;
 7//1,2,3,16;
 1/14=-1,18=20,19=15,26=3/3(-5);
 2/9=110/2;
 6/7=2,8=2,9=2,10=2,19=2,28=1/1;
 99/9=1/99;
 -------------------
 Title Card Required
 -------------------
 Symbolic Z-matrix:
 Charge =  0 Multiplicity = 1
 C                    -2.58914   0.64044  -0.26835 
 H                    -2.92404   1.55297  -0.77477 
 C                    -1.13419   0.43772  -0.19389 
 H                    -0.50614   1.33272  -0.1746 
 C                    -3.51381  -0.17965   0.24897 
 H                    -3.17818  -1.06223   0.8069 
 C                    -4.99237   0.02558   0.14218 
 H                    -5.45536   0.09465   1.13871 
 H                    -5.22982   0.94133  -0.41615 
 H                    -5.47145  -0.82426  -0.36882 
 C                    -0.52945  -0.75536  -0.16707 
 H                    -1.11907  -1.67531  -0.23831 
 C                     0.9488   -0.96353  -0.06241 
 H                     1.30607  -1.52483  -0.94284 
 H                     1.17483  -1.57766   0.82682 
 C                     2.94489   0.38923   0.07642 
 C                     3.74201  -0.88898  -0.00745 
 H                     3.57108  -1.3856   -0.9727 
 H                     4.80141  -0.63599   0.09081 
 H                     3.45147  -1.58995   0.7862 
 O                     1.60235   0.28881   0.02662 
 O                     3.4375    1.47638   0.17693 
 

 GradGradGradGradGradGradGradGradGradGradGradGradGradGradGradGradGradGrad
 Berny optimization.
 Initialization pass.
                           ----------------------------
                           !    Initial Parameters    !
                           ! (Angstroms and Degrees)  !
 --------------------------                            --------------------------
 ! Name  Definition              Value          Derivative Info.                !
 --------------------------------------------------------------------------------
 ! R1    R(1,2)                  1.0961         estimate D2E/DX2                !
 ! R2    R(1,3)                  1.4709         estimate D2E/DX2                !
 ! R3    R(1,5)                  1.3398         estimate D2E/DX2                !
 ! R4    R(3,4)                  1.0936         estimate D2E/DX2                !
 ! R5    R(3,11)                 1.3379         estimate D2E/DX2                !
 ! R6    R(5,6)                  1.0968         estimate D2E/DX2                !
 ! R7    R(5,7)                  1.4965         estimate D2E/DX2                !
 ! R8    R(7,8)                  1.101          estimate D2E/DX2                !
 ! R9    R(7,9)                  1.0985         estimate D2E/DX2                !
 ! R10   R(7,10)                 1.1013         estimate D2E/DX2                !
 ! R11   R(11,12)                1.095          estimate D2E/DX2                !
 ! R12   R(11,13)                1.4965         estimate D2E/DX2                !
 ! R13   R(13,14)                1.1036         estimate D2E/DX2                !
 ! R14   R(13,15)                1.1041         estimate D2E/DX2                !
 ! R15   R(13,21)                1.4154         estimate D2E/DX2                !
 ! R16   R(16,17)                1.5087         estimate D2E/DX2                !
 ! R17   R(16,21)                1.3472         estimate D2E/DX2                !
 ! R18   R(16,22)                1.1978         estimate D2E/DX2                !
 ! R19   R(17,18)                1.0989         estimate D2E/DX2                !
 ! R20   R(17,19)                1.0936         estimate D2E/DX2                !
 ! R21   R(17,20)                1.098          estimate D2E/DX2                !
 ! A1    A(2,1,3)              116.1282         estimate D2E/DX2                !
 ! A2    A(2,1,5)              118.4967         estimate D2E/DX2                !
 ! A3    A(3,1,5)              125.3629         estimate D2E/DX2                !
 ! A4    A(1,3,4)              117.1418         estimate D2E/DX2                !
 ! A5    A(1,3,11)             124.8235         estimate D2E/DX2                !
 ! A6    A(4,3,11)             118.0279         estimate D2E/DX2                !
 ! A7    A(1,5,6)              118.5397         estimate D2E/DX2                !
 ! A8    A(1,5,7)              124.7746         estimate D2E/DX2                !
 ! A9    A(6,5,7)              116.6794         estimate D2E/DX2                !
 ! A10   A(5,7,8)              111.0682         estimate D2E/DX2                !
 ! A11   A(5,7,9)              111.3554         estimate D2E/DX2                !
 ! A12   A(5,7,10)             110.9205         estimate D2E/DX2                !
 ! A13   A(8,7,9)              108.472          estimate D2E/DX2                !
 ! A14   A(8,7,10)             106.5851         estimate D2E/DX2                !
 ! A15   A(9,7,10)             108.2659         estimate D2E/DX2                !
 ! A16   A(3,11,12)            120.2984         estimate D2E/DX2                !
 ! A17   A(3,11,13)            124.8873         estimate D2E/DX2                !
 ! A18   A(12,11,13)           114.8087         estimate D2E/DX2                !
 ! A19   A(11,13,14)           109.5571         estimate D2E/DX2                !
 ! A20   A(11,13,15)           109.6293         estimate D2E/DX2                !
 ! A21   A(11,13,21)           109.7203         estimate D2E/DX2                !
 ! A22   A(14,13,15)           107.0591         estimate D2E/DX2                !
 ! A23   A(14,13,21)           110.5313         estimate D2E/DX2                !
 ! A24   A(15,13,21)           110.3022         estimate D2E/DX2                !
 ! A25   A(17,16,21)           117.4712         estimate D2E/DX2                !
 ! A26   A(17,16,22)           123.8035         estimate D2E/DX2                !
 ! A27   A(21,16,22)           118.7242         estimate D2E/DX2                !
 ! A28   A(16,17,18)           110.4588         estimate D2E/DX2                !
 ! A29   A(16,17,19)           108.1089         estimate D2E/DX2                !
 ! A30   A(16,17,20)           111.154          estimate D2E/DX2                !
 ! A31   A(18,17,19)           109.5205         estimate D2E/DX2                !
 ! A32   A(18,17,20)           107.7722         estimate D2E/DX2                !
 ! A33   A(19,17,20)           109.8197         estimate D2E/DX2                !
 ! A34   A(13,21,16)           121.898          estimate D2E/DX2                !
 ! D1    D(2,1,3,4)             29.0176         estimate D2E/DX2                !
 ! D2    D(2,1,3,11)          -150.0116         estimate D2E/DX2                !
 ! D3    D(5,1,3,4)           -149.6856         estimate D2E/DX2                !
 ! D4    D(5,1,3,11)            31.2852         estimate D2E/DX2                !
 ! D5    D(2,1,5,6)           -176.456          estimate D2E/DX2                !
 ! D6    D(2,1,5,7)              2.5895         estimate D2E/DX2                !
 ! D7    D(3,1,5,6)              2.2192         estimate D2E/DX2                !
 ! D8    D(3,1,5,7)           -178.7352         estimate D2E/DX2                !
 ! D9    D(1,3,11,12)            2.2598         estimate D2E/DX2                !
 ! D10   D(1,3,11,13)         -178.647          estimate D2E/DX2                !
 ! D11   D(4,3,11,12)         -176.7615         estimate D2E/DX2                !
 ! D12   D(4,3,11,13)            2.3317         estimate D2E/DX2                !
 ! D13   D(1,5,7,8)           -121.129          estimate D2E/DX2                !
 ! D14   D(1,5,7,9)             -0.1187         estimate D2E/DX2                !
 ! D15   D(1,5,7,10)           120.5287         estimate D2E/DX2                !
 ! D16   D(6,5,7,8)             57.9326         estimate D2E/DX2                !
 ! D17   D(6,5,7,9)            178.943          estimate D2E/DX2                !
 ! D18   D(6,5,7,10)           -60.4096         estimate D2E/DX2                !
 ! D19   D(3,11,13,14)        -120.5141         estimate D2E/DX2                !
 ! D20   D(3,11,13,15)         122.2776         estimate D2E/DX2                !
 ! D21   D(3,11,13,21)           1.0006         estimate D2E/DX2                !
 ! D22   D(12,11,13,14)         58.6234         estimate D2E/DX2                !
 ! D23   D(12,11,13,15)        -58.5849         estimate D2E/DX2                !
 ! D24   D(12,11,13,21)       -179.8619         estimate D2E/DX2                !
 ! D25   D(11,13,21,16)       -177.2799         estimate D2E/DX2                !
 ! D26   D(14,13,21,16)        -56.3516         estimate D2E/DX2                !
 ! D27   D(15,13,21,16)         61.8488         estimate D2E/DX2                !
 ! D28   D(21,16,17,18)         62.6118         estimate D2E/DX2                !
 ! D29   D(21,16,17,19)       -177.5715         estimate D2E/DX2                !
 ! D30   D(21,16,17,20)        -56.971          estimate D2E/DX2                !
 ! D31   D(22,16,17,18)       -116.9963         estimate D2E/DX2                !
 ! D32   D(22,16,17,19)          2.8203         estimate D2E/DX2                !
 ! D33   D(22,16,17,20)        123.4208         estimate D2E/DX2                !
 ! D34   D(17,16,21,13)          1.77           estimate D2E/DX2                !
 ! D35   D(22,16,21,13)       -178.6012         estimate D2E/DX2                !
 --------------------------------------------------------------------------------
 Trust Radius=3.00D-01 FncErr=1.00D-07 GrdErr=1.00D-06
 Number of steps in this run=    100 maximum allowed number of steps=    132.
 GradGradGradGradGradGradGradGradGradGradGradGradGradGradGradGradGradGrad

                          Input orientation:                          
 ---------------------------------------------------------------------
 Center     Atomic      Atomic             Coordinates (Angstroms)
 Number     Number       Type             X           Y           Z
 ---------------------------------------------------------------------
      1          6           0       -2.589135    0.640437   -0.268348
      2          1           0       -2.924044    1.552968   -0.774774
      3          6           0       -1.134193    0.437715   -0.193889
      4          1           0       -0.506139    1.332718   -0.174595
      5          6           0       -3.513811   -0.179654    0.248965
      6          1           0       -3.178182   -1.062233    0.806900
      7          6           0       -4.992366    0.025580    0.142176
      8          1           0       -5.455356    0.094647    1.138708
      9          1           0       -5.229818    0.941328   -0.416150
     10          1           0       -5.471450   -0.824257   -0.368815
     11          6           0       -0.529445   -0.755361   -0.167073
     12          1           0       -1.119070   -1.675305   -0.238313
     13          6           0        0.948800   -0.963526   -0.062405
     14          1           0        1.306073   -1.524829   -0.942837
     15          1           0        1.174827   -1.577656    0.826815
     16          6           0        2.944891    0.389225    0.076423
     17          6           0        3.742005   -0.888980   -0.007451
     18          1           0        3.571081   -1.385601   -0.972700
     19          1           0        4.801406   -0.635987    0.090805
     20          1           0        3.451474   -1.589949    0.786199
     21          8           0        1.602345    0.288808    0.026620
     22          8           0        3.437495    1.476384    0.176926
 ---------------------------------------------------------------------
                    Distance matrix (angstroms):
                    1          2          3          4          5
     1  C    0.000000
     2  H    1.096058   0.000000
     3  C    1.470883   2.187415   0.000000
     4  H    2.197024   2.500998   1.093551   0.000000
     5  C    1.339846   2.097104   2.497968   3.393046   0.000000
     6  H    2.098147   3.066848   2.725677   3.720072   1.096761
     7  C    2.514378   2.729774   3.894649   4.683502   1.496546
     8  H    3.239277   3.492228   4.534971   5.268048   2.153249
     9  H    2.661877   2.412324   4.132453   4.746017   2.154915
    10  H    3.234681   3.507888   4.520506   5.417063   2.151631
    11  C    2.490147   3.381093   1.337860   2.088223   3.067730
    12  H    2.743110   3.737308   2.113541   3.070496   2.865169
    13  C    3.889999   4.673236   2.513886   2.720693   4.541619
    14  H    4.507323   5.234020   3.219845   3.469853   5.144042
    15  H    4.504079   5.400615   3.230345   3.506957   4.926626
    16  C    5.550443   6.043445   4.088318   3.586474   6.486002
    17  C    6.518475   7.140595   5.056895   4.796937   7.294913
    18  H    6.522975   7.131691   5.105941   4.964872   7.289888
    19  H    7.508551   8.076096   6.038644   5.667122   8.329231
    20  H    6.525002   7.277485   5.108849   5.012765   7.126903
    21  O    4.216533   4.767445   2.749443   2.361343   5.142368
    22  O    6.100602   6.432789   4.702836   3.961875   7.146209
                    6          7          8          9         10
     6  H    0.000000
     7  C    2.217309   0.000000
     8  H    2.575653   1.101002   0.000000
     9  H    3.117582   1.098502   1.784746   0.000000
    10  H    2.588053   1.101298   1.765579   1.782671   0.000000
    11  C    2.838768   4.541274   5.166447   5.003429   4.946601
    12  H    2.389199   4.247376   4.881833   4.876130   4.436725
    13  C    4.218698   6.026412   6.601183   6.475255   6.429066
    14  H    4.835713   6.576576   7.257579   7.005512   6.837772
    15  H    4.383463   6.408851   6.844940   6.993548   6.794861
    16  C    6.335010   7.945855   8.472271   8.208125   8.515020
    17  C    6.970091   8.783396   9.320550   9.165733   9.220766
    18  H    6.987424   8.750257   9.387531   9.120316   9.080041
    19  H    8.022986   9.816225  10.336010  10.167123  10.284856
    20  H    6.650658   8.621087   9.071590   9.122381   9.029890
    21  O    5.028676   6.600974   7.147418   6.877520   7.171740
    22  O    7.113974   8.553864   9.050802   8.704042   9.217379
                   11         12         13         14         15
    11  C    0.000000
    12  H    1.095002   0.000000
    13  C    1.496495   2.194005   0.000000
    14  H    2.136122   2.529885   1.103569   0.000000
    15  H    2.137411   2.531007   1.104063   1.775298   0.000000
    16  C    3.666112   4.569149   2.415282   2.718128   2.750425
    17  C    4.276519   4.929671   2.794740   2.685706   2.785799
    18  H    4.226174   4.756130   2.807693   2.269480   3.002861
    19  H    5.338420   6.020011   3.869538   3.751774   3.818446
    20  H    4.177676   4.684739   2.715863   2.756184   2.277042
    21  O    2.381666   3.366605   1.415411   2.077716   2.075276
    22  O    4.564607   5.555884   3.493429   3.847611   3.856058
                   16         17         18         19         20
    16  C    0.000000
    17  C    1.508719   0.000000
    18  H    2.154711   1.098887   0.000000
    19  H    2.120829   1.093613   1.790716   0.000000
    20  H    2.162762   1.098019   1.774765   1.793302   0.000000
    21  O    1.347217   2.442640   2.770958   3.330669   2.743349
    22  O    1.197779   2.392001   3.087142   2.515906   3.126309
                   21         22
    21  O    0.000000
    22  O    2.191051   0.000000
 Stoichiometry    C8H12O2
 Framework group  C1[X(C8H12O2)]
 Deg. of freedom    60
 Full point group                 C1      NOp   1
 Largest Abelian subgroup         C1      NOp   1
 Largest concise Abelian subgroup C1      NOp   1
                         Standard orientation:                         
 ---------------------------------------------------------------------
 Center     Atomic      Atomic             Coordinates (Angstroms)
 Number     Number       Type             X           Y           Z
 ---------------------------------------------------------------------
      1          6           0       -2.589135    0.640437   -0.268348
      2          1           0       -2.924044    1.552968   -0.774774
      3          6           0       -1.134193    0.437715   -0.193889
      4          1           0       -0.506139    1.332718   -0.174595
      5          6           0       -3.513811   -0.179654    0.248965
      6          1           0       -3.178182   -1.062233    0.806900
      7          6           0       -4.992366    0.025580    0.142176
      8          1           0       -5.455356    0.094647    1.138708
      9          1           0       -5.229818    0.941328   -0.416150
     10          1           0       -5.471450   -0.824257   -0.368815
     11          6           0       -0.529445   -0.755361   -0.167073
     12          1           0       -1.119070   -1.675305   -0.238313
     13          6           0        0.948800   -0.963526   -0.062405
     14          1           0        1.306073   -1.524829   -0.942837
     15          1           0        1.174827   -1.577656    0.826815
     16          6           0        2.944891    0.389225    0.076423
     17          6           0        3.742005   -0.888980   -0.007451
     18          1           0        3.571081   -1.385601   -0.972700
     19          1           0        4.801406   -0.635987    0.090805
     20          1           0        3.451474   -1.589949    0.786199
     21          8           0        1.602345    0.288808    0.026620
     22          8           0        3.437495    1.476384    0.176926
 ---------------------------------------------------------------------
 Rotational constants (GHZ):      4.9812028      0.4116413      0.3856549
 Standard basis: def2SVP (5D, 7F)
 There are   210 symmetry adapted cartesian basis functions of A   symmetry.
 There are   200 symmetry adapted basis functions of A   symmetry.
   200 basis functions,   334 primitive gaussians,   210 cartesian basis functions
    38 alpha electrons       38 beta electrons
       nuclear repulsion energy       486.7048248431 Hartrees.
 NAtoms=   22 NActive=   22 NUniq=   22 SFac= 1.00D+00 NAtFMM=   60 NAOKFM=F Big=F
 Integral buffers will be    131072 words long.
 Raffenetti 2 integral format.
 Two-electron integral symmetry is turned on.
 Nuclear repulsion after empirical dispersion term =      486.7041690310 Hartrees.
 ------------------------------------------------------------------------------
 Polarizable Continuum Model (PCM)
 =================================
 Model                : C-PCM.
 Atomic radii         : UFF (Universal Force Field).
 Polarization charges : Total charges.
 Charge compensation  : None.
 Solution method      : On-the-fly selection.
 Cavity type          : Scaled VdW (van der Waals Surface) (Alpha=1.100).
 Cavity algorithm     : GePol (No added spheres)
                        Default sphere list used, NSphG=   22.
                        Lebedev-Laikov grids with approx.  5.0 points / Ang**2.
                        Smoothing algorithm: Karplus/York (Gamma=1.0000).
                        Polarization charges: spherical gaussians, with
                                              point-specific exponents (IZeta= 3).
                        Self-potential: point-specific (ISelfS= 7).
                        Self-field    : sphere-specific E.n sum rule (ISelfD= 2).
 1st derivatives      : Analytical E(r).r(x)/FMM algorithm (CHGder, D1EAlg=3).
                        Cavity 1st derivative terms included.
 Solvent              : Toluene, Eps=   2.374100 Eps(inf)=   2.238315
 ------------------------------------------------------------------------------
 One-electron integrals computed using PRISM.
   1 Symmetry operations used in ECPInt.
 ECPInt:  NShTT=    4656 NPrTT=   16456 LenC2=    4285 LenP2D=   11455.
 LDataN:  DoStor=T MaxTD1= 4 Len=   56
 NBasis=   200 RedAO= T EigKep=  1.17D-03  NBF=   200
 NBsUse=   200 1.00D-06 EigRej= -1.00D+00 NBFU=   200
 ExpMin= 1.22D-01 ExpMax= 2.27D+03 ExpMxC= 3.41D+02 IAcc=1 IRadAn=         1 AccDes= 0.00D+00
 Harris functional with IExCor= 1009 and IRadAn=       1 diagonalized for initial guess.
 HarFok:  IExCor= 1009 AccDes= 0.00D+00 IRadAn=         1 IDoV= 1 UseB2=F ITyADJ=14
 ICtDFT=  3500011 ScaDFX=  1.000000  1.000000  1.000000  1.000000
 FoFCou: FMM=F IPFlag=           0 FMFlag=      100000 FMFlg1=           0
         NFxFlg=           0 DoJE=T BraDBF=F KetDBF=T FulRan=T
         wScrn=  0.000000 ICntrl=     500 IOpCl=  0 I1Cent=   200000004 NGrid=           0
         NMat0=    1 NMatS0=      1 NMatT0=    0 NMatD0=    1 NMtDS0=    0 NMtDT0=    0
 Petite list used in FoFCou.
 Requested convergence on RMS density matrix=1.00D-08 within 128 cycles.
 Requested convergence on MAX density matrix=1.00D-06.
 Requested convergence on             energy=1.00D-06.
 No special actions if energy rises.
 Inv3:  Mode=1 IEnd=     9698412.
 Iteration    1 A*A^-1 deviation from unit magnitude is 6.44D-15 for   1792.
 Iteration    1 A*A^-1 deviation from orthogonality  is 4.11D-15 for   1792   1317.
 Iteration    1 A^-1*A deviation from unit magnitude is 6.66D-15 for   1792.
 Iteration    1 A^-1*A deviation from orthogonality  is 2.10D-15 for    566    223.
 Error on total polarization charges =  0.00579
 SCF Done:  E(RM062X) =  -461.936795535     A.U. after   13 cycles
            NFock= 13  Conv=0.39D-08     -V/T= 2.0100

 **********************************************************************

            Population analysis using the SCF density.

 **********************************************************************

 Orbital symmetries:
       Occupied  (A) (A) (A) (A) (A) (A) (A) (A) (A) (A) (A) (A)
                 (A) (A) (A) (A) (A) (A) (A) (A) (A) (A) (A) (A)
                 (A) (A) (A) (A) (A) (A) (A) (A) (A) (A) (A) (A)
                 (A) (A)
       Virtual   (A) (A) (A) (A) (A) (A) (A) (A) (A) (A) (A) (A)
                 (A) (A) (A) (A) (A) (A) (A) (A) (A) (A) (A) (A)
                 (A) (A) (A) (A) (A) (A) (A) (A) (A) (A) (A) (A)
                 (A) (A) (A) (A) (A) (A) (A) (A) (A) (A) (A) (A)
                 (A) (A) (A) (A) (A) (A) (A) (A) (A) (A) (A) (A)
                 (A) (A) (A) (A) (A) (A) (A) (A) (A) (A) (A) (A)
                 (A) (A) (A) (A) (A) (A) (A) (A) (A) (A) (A) (A)
                 (A) (A) (A) (A) (A) (A) (A) (A) (A) (A) (A) (A)
                 (A) (A) (A) (A) (A) (A) (A) (A) (A) (A) (A) (A)
                 (A) (A) (A) (A) (A) (A) (A) (A) (A) (A) (A) (A)
                 (A) (A) (A) (A) (A) (A) (A) (A) (A) (A) (A) (A)
                 (A) (A) (A) (A) (A) (A) (A) (A) (A) (A) (A) (A)
                 (A) (A) (A) (A) (A) (A) (A) (A) (A) (A) (A) (A)
                 (A) (A) (A) (A) (A) (A)
 The electronic state is 1-A.
 Alpha  occ. eigenvalues --  -19.67606 -19.61712 -10.68970 -10.62559 -10.56886
 Alpha  occ. eigenvalues --  -10.56165 -10.55768 -10.55652 -10.55279 -10.55038
 Alpha  occ. eigenvalues --   -1.22130  -1.13212  -0.91126  -0.87202  -0.83986
 Alpha  occ. eigenvalues --   -0.81098  -0.74369  -0.68492  -0.64878  -0.59702
 Alpha  occ. eigenvalues --   -0.58362  -0.58100  -0.56339  -0.53369  -0.50903
 Alpha  occ. eigenvalues --   -0.50735  -0.48224  -0.47775  -0.47162  -0.45843
 Alpha  occ. eigenvalues --   -0.45406  -0.42466  -0.41436  -0.40513  -0.37583
 Alpha  occ. eigenvalues --   -0.35901  -0.35113  -0.27928
 Alpha virt. eigenvalues --    0.01010   0.05726   0.08687   0.10807   0.11778
 Alpha virt. eigenvalues --    0.12294   0.13862   0.14634   0.15194   0.16623
 Alpha virt. eigenvalues --    0.17829   0.18023   0.19177   0.20338   0.21420
 Alpha virt. eigenvalues --    0.23618   0.24495   0.28823   0.30086   0.31485
 Alpha virt. eigenvalues --    0.36198   0.36665   0.39905   0.41621   0.43207
 Alpha virt. eigenvalues --    0.45311   0.46612   0.48027   0.48422   0.49227
 Alpha virt. eigenvalues --    0.50675   0.52450   0.54854   0.55973   0.56876
 Alpha virt. eigenvalues --    0.58848   0.60842   0.62982   0.64037   0.64702
 Alpha virt. eigenvalues --    0.65810   0.66128   0.67441   0.68545   0.69111
 Alpha virt. eigenvalues --    0.70198   0.71223   0.71492   0.71735   0.72984
 Alpha virt. eigenvalues --    0.73388   0.73475   0.74206   0.74468   0.74959
 Alpha virt. eigenvalues --    0.76388   0.76516   0.77690   0.79296   0.84123
 Alpha virt. eigenvalues --    0.89223   0.90799   0.92141   0.96108   0.96506
 Alpha virt. eigenvalues --    1.03384   1.08171   1.11162   1.12223   1.12746
 Alpha virt. eigenvalues --    1.16469   1.21506   1.23984   1.26043   1.32222
 Alpha virt. eigenvalues --    1.33326   1.33570   1.36639   1.37680   1.39627
 Alpha virt. eigenvalues --    1.45024   1.48241   1.55305   1.57752   1.58712
 Alpha virt. eigenvalues --    1.59657   1.59743   1.60409   1.63145   1.65338
 Alpha virt. eigenvalues --    1.70592   1.72452   1.72950   1.74740   1.76570
 Alpha virt. eigenvalues --    1.78500   1.79831   1.81938   1.82287   1.82524
 Alpha virt. eigenvalues --    1.83488   1.84331   1.84840   1.86661   1.86972
 Alpha virt. eigenvalues --    1.89660   1.90806   1.91628   1.93470   1.95674
 Alpha virt. eigenvalues --    1.95923   1.99366   1.99847   2.05873   2.08050
 Alpha virt. eigenvalues --    2.09546   2.10288   2.11910   2.15504   2.17321
 Alpha virt. eigenvalues --    2.19682   2.21846   2.27860   2.30192   2.31094
 Alpha virt. eigenvalues --    2.33381   2.34494   2.39192   2.40520   2.45411
 Alpha virt. eigenvalues --    2.46952   2.47657   2.52889   2.54345   2.55373
 Alpha virt. eigenvalues --    2.58039   2.62628   2.68448   2.70550   2.71331
 Alpha virt. eigenvalues --    2.72392   2.75641   2.77301   2.80058   2.85194
 Alpha virt. eigenvalues --    2.85395   2.90226   2.91397   2.93304   2.93551
 Alpha virt. eigenvalues --    2.95038   2.99522   3.06495   3.11157   3.12614
 Alpha virt. eigenvalues --    3.16913   3.25227   3.27528   3.37216   3.47821
 Alpha virt. eigenvalues --    3.67495   3.71265
          Condensed to atoms (all electrons):
               1          2          3          4          5          6
     1  C    4.867869   0.407886   0.327747  -0.042145   0.636537  -0.033693
     2  H    0.407886   0.646523  -0.043624  -0.006732  -0.047229   0.008620
     3  C    0.327747  -0.043624   4.827664   0.408430  -0.045157  -0.020518
     4  H   -0.042145  -0.006732   0.408430   0.620863   0.008832   0.000078
     5  C    0.636537  -0.047229  -0.045157   0.008832   4.873423   0.400258
     6  H   -0.033693   0.008620  -0.020518   0.000078   0.400258   0.642840
     7  C   -0.053673  -0.015004   0.010170  -0.000248   0.389025  -0.044989
     8  H    0.001174   0.000279  -0.000511   0.000017  -0.019938  -0.003380
     9  H   -0.012406   0.007221   0.000576   0.000002  -0.025453   0.006583
    10  H    0.001337   0.000151  -0.000192  -0.000001  -0.018660  -0.003397
    11  C   -0.050984   0.009490   0.621887  -0.042958  -0.019926   0.008973
    12  H   -0.019599   0.000100  -0.022384   0.008259   0.008720   0.002246
    13  C    0.010486  -0.000299  -0.061314  -0.022832   0.000226  -0.000121
    14  H   -0.000278   0.000014   0.001679   0.000855   0.000075   0.000026
    15  H    0.000156  -0.000002   0.001151   0.000682  -0.000085  -0.000030
    16  C   -0.000001   0.000000  -0.001200   0.001092   0.000000   0.000000
    17  C    0.000003   0.000000  -0.000002   0.000330   0.000000   0.000000
    18  H    0.000000   0.000000  -0.000011  -0.000018   0.000000   0.000000
    19  H    0.000000   0.000000   0.000003  -0.000006   0.000000   0.000000
    20  H    0.000000   0.000000  -0.000015  -0.000014   0.000000   0.000000
    21  O    0.000519  -0.000014   0.008004   0.015544   0.000006   0.000000
    22  O   -0.000001   0.000000  -0.000185   0.000281   0.000000   0.000000
               7          8          9         10         11         12
     1  C   -0.053673   0.001174  -0.012406   0.001337  -0.050984  -0.019599
     2  H   -0.015004   0.000279   0.007221   0.000151   0.009490   0.000100
     3  C    0.010170  -0.000511   0.000576  -0.000192   0.621887  -0.022384
     4  H   -0.000248   0.000017   0.000002  -0.000001  -0.042958   0.008259
     5  C    0.389025  -0.019938  -0.025453  -0.018660  -0.019926   0.008720
     6  H   -0.044989  -0.003380   0.006583  -0.003397   0.008973   0.002246
     7  C    4.576992   0.387086   0.400717   0.384536   0.000238  -0.000175
     8  H    0.387086   0.620837  -0.021802  -0.022895   0.000065   0.000028
     9  H    0.400717  -0.021802   0.618506  -0.021651   0.000009   0.000006
    10  H    0.384536  -0.022895  -0.021651   0.621253  -0.000035  -0.000043
    11  C    0.000238   0.000065   0.000009  -0.000035   5.037848   0.393658
    12  H   -0.000175   0.000028   0.000006  -0.000043   0.393658   0.619295
    13  C    0.000004   0.000001   0.000001  -0.000003   0.328474  -0.036409
    14  H    0.000001   0.000000   0.000000   0.000000  -0.033186  -0.001445
    15  H   -0.000002   0.000000   0.000000   0.000000  -0.027760  -0.001881
    16  C    0.000000   0.000000   0.000000   0.000000   0.008110   0.000056
    17  C    0.000000   0.000000   0.000000   0.000000  -0.000414   0.000038
    18  H    0.000000   0.000000   0.000000   0.000000   0.000364  -0.000004
    19  H    0.000000   0.000000   0.000000   0.000000  -0.000007  -0.000001
    20  H    0.000000   0.000000   0.000000   0.000000   0.000806  -0.000011
    21  O    0.000000   0.000000   0.000000   0.000000  -0.072773   0.002382
    22  O    0.000000   0.000000   0.000000   0.000000   0.000207   0.000003
              13         14         15         16         17         18
     1  C    0.010486  -0.000278   0.000156  -0.000001   0.000003   0.000000
     2  H   -0.000299   0.000014  -0.000002   0.000000   0.000000   0.000000
     3  C   -0.061314   0.001679   0.001151  -0.001200  -0.000002  -0.000011
     4  H   -0.022832   0.000855   0.000682   0.001092   0.000330  -0.000018
     5  C    0.000226   0.000075  -0.000085   0.000000   0.000000   0.000000
     6  H   -0.000121   0.000026  -0.000030   0.000000   0.000000   0.000000
     7  C    0.000004   0.000001  -0.000002   0.000000   0.000000   0.000000
     8  H    0.000001   0.000000   0.000000   0.000000   0.000000   0.000000
     9  H    0.000001   0.000000   0.000000   0.000000   0.000000   0.000000
    10  H   -0.000003   0.000000   0.000000   0.000000   0.000000   0.000000
    11  C    0.328474  -0.033186  -0.027760   0.008110  -0.000414   0.000364
    12  H   -0.036409  -0.001445  -0.001881   0.000056   0.000038  -0.000004
    13  C    4.523380   0.395997   0.391699  -0.040929   0.009170  -0.001027
    14  H    0.395997   0.648774  -0.038466  -0.012579   0.010714  -0.000516
    15  H    0.391699  -0.038466   0.646027  -0.008107   0.003634  -0.000941
    16  C   -0.040929  -0.012579  -0.008107   4.480567   0.331056  -0.002269
    17  C    0.009170   0.010714   0.003634   0.331056   4.891323   0.365247
    18  H   -0.001027  -0.000516  -0.000941  -0.002269   0.365247   0.571001
    19  H    0.000592  -0.000018  -0.000027  -0.001119   0.360655  -0.010506
    20  H    0.002074  -0.002349   0.000075  -0.002628   0.362396  -0.012778
    21  O    0.298216  -0.028483  -0.028770   0.313206  -0.122508   0.002453
    22  O    0.001428  -0.000031   0.000049   0.741370  -0.103093   0.001439
              19         20         21         22
     1  C    0.000000   0.000000   0.000519  -0.000001
     2  H    0.000000   0.000000  -0.000014   0.000000
     3  C    0.000003  -0.000015   0.008004  -0.000185
     4  H   -0.000006  -0.000014   0.015544   0.000281
     5  C    0.000000   0.000000   0.000006   0.000000
     6  H    0.000000   0.000000   0.000000   0.000000
     7  C    0.000000   0.000000   0.000000   0.000000
     8  H    0.000000   0.000000   0.000000   0.000000
     9  H    0.000000   0.000000   0.000000   0.000000
    10  H    0.000000   0.000000   0.000000   0.000000
    11  C   -0.000007   0.000806  -0.072773   0.000207
    12  H   -0.000001  -0.000011   0.002382   0.000003
    13  C    0.000592   0.002074   0.298216   0.001428
    14  H   -0.000018  -0.002349  -0.028483  -0.000031
    15  H   -0.000027   0.000075  -0.028770   0.000049
    16  C   -0.001119  -0.002628   0.313206   0.741370
    17  C    0.360655   0.362396  -0.122508  -0.103093
    18  H   -0.010506  -0.012778   0.002453   0.001439
    19  H    0.568159  -0.012527   0.004968   0.008183
    20  H   -0.012527   0.579743   0.001594   0.001782
    21  O    0.004968   0.001594   8.036766  -0.090386
    22  O    0.008183   0.001782  -0.090386   7.698876
 Mulliken charges:
               1
     1  C   -0.040935
     2  H    0.032621
     3  C   -0.012199
     4  H    0.049690
     5  C   -0.140654
     6  H    0.036503
     7  C   -0.034679
     8  H    0.059039
     9  H    0.047691
    10  H    0.059601
    11  C   -0.162085
    12  H    0.047158
    13  C    0.201186
    14  H    0.059216
    15  H    0.062597
    16  C    0.193374
    17  C   -0.108550
    18  H    0.087568
    19  H    0.081651
    20  H    0.081851
    21  O   -0.340722
    22  O   -0.259922
 Sum of Mulliken charges =   0.00000
 Mulliken charges with hydrogens summed into heavy atoms:
               1
     1  C   -0.008314
     3  C    0.037491
     5  C   -0.104151
     7  C    0.131653
    11  C   -0.114927
    13  C    0.322999
    16  C    0.193374
    17  C    0.142520
    21  O   -0.340722
    22  O   -0.259922
 Electronic spatial extent (au):  <R**2>=           2817.0905
 Charge=              0.0000 electrons
 Dipole moment (field-independent basis, Debye):
    X=             -1.3622    Y=             -4.8341    Z=             -0.3064  Tot=              5.0317
 Quadrupole moment (field-independent basis, Debye-Ang):
   XX=            -57.7552   YY=            -61.0010   ZZ=            -61.0815
   XY=            -12.7644   XZ=             -1.5296   YZ=             -1.7245
 Traceless Quadrupole moment (field-independent basis, Debye-Ang):
   XX=              2.1907   YY=             -1.0551   ZZ=             -1.1356
   XY=            -12.7644   XZ=             -1.5296   YZ=             -1.7245
 Octapole moment (field-independent basis, Debye-Ang**2):
  XXX=            -16.8749  YYY=             -5.8194  ZZZ=              2.0939  XYY=             -8.9338
  XXY=            -42.6977  XXZ=             -1.4597  XZZ=             13.2417  YZZ=             -0.1486
  YYZ=             -2.0590  XYZ=              1.6921
 Hexadecapole moment (field-independent basis, Debye-Ang**3):
 XXXX=          -3206.7068 YYYY=           -313.1708 ZZZZ=            -95.1419 XXXY=           -117.3968
 XXXZ=            -22.8016 YYYX=            -13.0746 YYYZ=             -3.7555 ZZZX=             -3.6406
 ZZZY=              0.3711 XXYY=           -646.5404 XXZZ=           -566.5272 YYZZ=            -64.0821
 XXYZ=            -16.2999 YYXZ=              2.6624 ZZXY=              1.5177
 N-N= 4.867041690310D+02 E-N=-2.047837851285D+03  KE= 4.573531299516D+02
   1 Symmetry operations used in ECPInt.
 ECPInt:  NShTT=    4656 NPrTT=   16456 LenC2=    4285 LenP2D=   11455.
 LDataN:  DoStor=T MaxTD1= 5 Len=  102
 D1PCM: C-PCM CHGder 1st derivatives, ID1Alg=3 FixD1E=F DoIter=F DoCFld=F I1PDM=0.
 Calling FoFJK, ICntrl=      2127 FMM=F ISym2X=0 I1Cent= 0 IOpClX= 0 NMat=1 NMatS=1 NMatT=0.
 ***** Axes restored to original set *****
 -------------------------------------------------------------------
 Center     Atomic                   Forces (Hartrees/Bohr)
 Number     Number              X              Y              Z
 -------------------------------------------------------------------
      1        6          -0.000002962   -0.000000802   -0.000013546
      2        1           0.000012984   -0.000005550   -0.000032966
      3        6           0.000010510   -0.000003825   -0.000009302
      4        1          -0.000006144    0.000007131   -0.000029560
      5        6           0.000008548    0.000003471    0.000004536
      6        1           0.000009367    0.000008083    0.000023200
      7        6          -0.000001801    0.000003372    0.000001608
      8        1           0.000004664    0.000014496    0.000002404
      9        1           0.000002639   -0.000008452   -0.000014119
     10        1           0.000001070   -0.000012383    0.000017442
     11        6          -0.000018430   -0.000002585    0.000002431
     12        1           0.000002326   -0.000013133    0.000022799
     13        6          -0.000001244   -0.000010246   -0.000000642
     14        1          -0.000017040   -0.000026611    0.000020065
     15        1          -0.000009944    0.000010761    0.000031013
     16        6           0.000010463    0.000006003   -0.000014900
     17        6          -0.000004382    0.000004986    0.000001930
     18        1          -0.000001143   -0.000021323    0.000010795
     19        1           0.000010730    0.000001584   -0.000001186
     20        1          -0.000001198    0.000010105    0.000019472
     21        8          -0.000012956    0.000011786   -0.000006070
     22        8           0.000003943    0.000023131   -0.000035402
 -------------------------------------------------------------------
 Cartesian Forces:  Max     0.000035402 RMS     0.000013435

 GradGradGradGradGradGradGradGradGradGradGradGradGradGradGradGradGradGrad
 Berny optimization.
 FormGI is forming the generalized inverse of G from B-inverse, IUseBI=4.
 Internal  Forces:  Max     0.000057009 RMS     0.000013642
 Search for a local minimum.
 Step number   1 out of a maximum of  100
 All quantities printed in internal units (Hartrees-Bohrs-Radians)
 Mixed Optimization -- En-DIIS/RFO-DIIS
 Second derivative matrix not updated -- first step.
 ITU=  0
     Eigenvalues ---    0.00651   0.00812   0.00812   0.01051   0.01151
     Eigenvalues ---    0.01488   0.01658   0.01703   0.02037   0.02039
     Eigenvalues ---    0.02390   0.02884   0.02911   0.06394   0.07167
     Eigenvalues ---    0.07264   0.07311   0.07503   0.07536   0.11452
     Eigenvalues ---    0.13975   0.15998   0.15999   0.15999   0.15999
     Eigenvalues ---    0.16000   0.16000   0.16000   0.16000   0.16000
     Eigenvalues ---    0.16000   0.22000   0.22000   0.22000   0.22001
     Eigenvalues ---    0.22022   0.25000   0.25000   0.25000   0.31480
     Eigenvalues ---    0.32742   0.32748   0.33237   0.33290   0.33539
     Eigenvalues ---    0.33572   0.33805   0.33848   0.33902   0.34043
     Eigenvalues ---    0.34122   0.34241   0.34398   0.34405   0.35635
     Eigenvalues ---    0.43159   0.55618   0.57239   0.57687   1.05947
 RFO step:  Lambda=-8.77689600D-08 EMin= 6.50609250D-03
 Linear search not attempted -- first point.
 Iteration  1 RMS(Cart)=  0.00047774 RMS(Int)=  0.00000005
 Iteration  2 RMS(Cart)=  0.00000012 RMS(Int)=  0.00000000
 Variable       Old X    -DE/DX   Delta X   Delta X   Delta X     New X
                                 (Linear)    (Quad)   (Total)
    R1        2.07125   0.00000   0.00000   0.00001   0.00001   2.07126
    R2        2.77957  -0.00003   0.00000  -0.00010  -0.00010   2.77947
    R3        2.53194   0.00000   0.00000  -0.00001  -0.00001   2.53194
    R4        2.06651   0.00000   0.00000   0.00001   0.00001   2.06653
    R5        2.52819  -0.00001   0.00000  -0.00002  -0.00002   2.52817
    R6        2.07258   0.00001   0.00000   0.00003   0.00003   2.07261
    R7        2.82806  -0.00001   0.00000  -0.00002  -0.00002   2.82804
    R8        2.08059   0.00000   0.00000   0.00000   0.00000   2.08059
    R9        2.07587   0.00000   0.00000   0.00000   0.00000   2.07586
   R10        2.08115   0.00000   0.00000   0.00001   0.00001   2.08116
   R11        2.06925   0.00001   0.00000   0.00002   0.00002   2.06927
   R12        2.82797  -0.00002   0.00000  -0.00007  -0.00007   2.82789
   R13        2.08544   0.00000   0.00000   0.00000   0.00000   2.08544
   R14        2.08638   0.00001   0.00000   0.00003   0.00003   2.08640
   R15        2.67474   0.00003   0.00000   0.00006   0.00006   2.67480
   R16        2.85107   0.00001   0.00000   0.00003   0.00003   2.85109
   R17        2.54587   0.00002   0.00000   0.00003   0.00003   2.54591
   R18        2.26347   0.00002   0.00000   0.00002   0.00002   2.26349
   R19        2.07660   0.00000   0.00000   0.00001   0.00001   2.07661
   R20        2.06663   0.00001   0.00000   0.00003   0.00003   2.06666
   R21        2.07496   0.00001   0.00000   0.00002   0.00002   2.07497
    A1        2.02682   0.00001   0.00000   0.00002   0.00002   2.02684
    A2        2.06816   0.00005   0.00000   0.00024   0.00024   2.06840
    A3        2.18799  -0.00006   0.00000  -0.00026  -0.00026   2.18774
    A4        2.04451   0.00001   0.00000   0.00003   0.00003   2.04454
    A5        2.17858  -0.00004   0.00000  -0.00020  -0.00020   2.17838
    A6        2.05998   0.00003   0.00000   0.00017   0.00017   2.06014
    A7        2.06891  -0.00001   0.00000  -0.00008  -0.00008   2.06883
    A8        2.17773   0.00002   0.00000   0.00009   0.00009   2.17781
    A9        2.03644   0.00000   0.00000  -0.00001  -0.00001   2.03643
   A10        1.93850   0.00000   0.00000  -0.00003  -0.00003   1.93848
   A11        1.94352   0.00000   0.00000   0.00000   0.00000   1.94352
   A12        1.93593   0.00000   0.00000  -0.00003  -0.00003   1.93589
   A13        1.89319   0.00001   0.00000   0.00004   0.00004   1.89324
   A14        1.86026   0.00000   0.00000  -0.00001  -0.00001   1.86025
   A15        1.88960   0.00000   0.00000   0.00003   0.00003   1.88963
   A16        2.09960   0.00001   0.00000   0.00007   0.00007   2.09967
   A17        2.17969  -0.00001   0.00000  -0.00005  -0.00005   2.17965
   A18        2.00379   0.00000   0.00000  -0.00002  -0.00002   2.00377
   A19        1.91213  -0.00001   0.00000  -0.00008  -0.00008   1.91205
   A20        1.91339  -0.00001   0.00000  -0.00010  -0.00010   1.91329
   A21        1.91498  -0.00003   0.00000  -0.00012  -0.00012   1.91486
   A22        1.86853   0.00000   0.00000   0.00004   0.00004   1.86858
   A23        1.92914   0.00002   0.00000   0.00020   0.00020   1.92933
   A24        1.92514   0.00001   0.00000   0.00006   0.00006   1.92520
   A25        2.05026   0.00000   0.00000  -0.00002  -0.00002   2.05024
   A26        2.16078   0.00001   0.00000   0.00003   0.00003   2.16081
   A27        2.07213   0.00000   0.00000  -0.00001  -0.00001   2.07212
   A28        1.92787   0.00000   0.00000   0.00002   0.00002   1.92789
   A29        1.88686   0.00001   0.00000   0.00004   0.00004   1.88690
   A30        1.94000   0.00000   0.00000  -0.00001  -0.00001   1.93999
   A31        1.91149   0.00000   0.00000  -0.00001  -0.00001   1.91148
   A32        1.88098   0.00000   0.00000  -0.00004  -0.00004   1.88094
   A33        1.91672   0.00000   0.00000   0.00000   0.00000   1.91671
   A34        2.12752   0.00003   0.00000   0.00013   0.00013   2.12765
    D1        0.50645   0.00000   0.00000   0.00012   0.00012   0.50657
    D2       -2.61820   0.00000   0.00000  -0.00015  -0.00015  -2.61834
    D3       -2.61251   0.00000   0.00000   0.00002   0.00002  -2.61249
    D4        0.54603   0.00000   0.00000  -0.00024  -0.00024   0.54579
    D5       -3.07974   0.00000   0.00000  -0.00003  -0.00003  -3.07977
    D6        0.04520   0.00000   0.00000   0.00007   0.00007   0.04527
    D7        0.03873   0.00000   0.00000   0.00007   0.00007   0.03880
    D8       -3.11952   0.00000   0.00000   0.00017   0.00017  -3.11935
    D9        0.03944   0.00001   0.00000   0.00021   0.00021   0.03965
   D10       -3.11798   0.00001   0.00000   0.00045   0.00045  -3.11753
   D11       -3.08507   0.00000   0.00000  -0.00005  -0.00005  -3.08512
   D12        0.04070   0.00001   0.00000   0.00018   0.00018   0.04088
   D13       -2.11410   0.00000   0.00000  -0.00016  -0.00016  -2.11426
   D14       -0.00207   0.00000   0.00000  -0.00012  -0.00012  -0.00220
   D15        2.10362   0.00000   0.00000  -0.00011  -0.00011   2.10351
   D16        1.01111   0.00000   0.00000  -0.00006  -0.00006   1.01105
   D17        3.12314   0.00000   0.00000  -0.00003  -0.00003   3.12312
   D18       -1.05435   0.00000   0.00000  -0.00001  -0.00001  -1.05436
   D19       -2.10337  -0.00001   0.00000  -0.00032  -0.00032  -2.10369
   D20        2.13415   0.00000   0.00000  -0.00027  -0.00027   2.13388
   D21        0.01746   0.00000   0.00000  -0.00021  -0.00021   0.01726
   D22        1.02317   0.00000   0.00000  -0.00010  -0.00010   1.02308
   D23       -1.02250   0.00000   0.00000  -0.00004  -0.00004  -1.02254
   D24       -3.13918   0.00000   0.00000   0.00002   0.00002  -3.13916
   D25       -3.09412   0.00000   0.00000   0.00010   0.00010  -3.09402
   D26       -0.98352  -0.00001   0.00000   0.00005   0.00005  -0.98347
   D27        1.07947   0.00002   0.00000   0.00027   0.00027   1.07973
   D28        1.09278   0.00000   0.00000  -0.00002  -0.00002   1.09276
   D29       -3.09921   0.00000   0.00000   0.00000   0.00000  -3.09921
   D30       -0.99433   0.00000   0.00000   0.00002   0.00002  -0.99431
   D31       -2.04197   0.00000   0.00000   0.00006   0.00006  -2.04191
   D32        0.04922   0.00000   0.00000   0.00008   0.00008   0.04931
   D33        2.15410   0.00000   0.00000   0.00010   0.00010   2.15420
   D34        0.03089   0.00000   0.00000   0.00012   0.00012   0.03101
   D35       -3.11718   0.00000   0.00000   0.00004   0.00004  -3.11714
         Item               Value     Threshold  Converged?
 Maximum Force            0.000057     0.000450     YES
 RMS     Force            0.000014     0.000300     YES
 Maximum Displacement     0.001535     0.001800     YES
 RMS     Displacement     0.000478     0.001200     YES
 Predicted change in Energy=-4.388448D-08
 Optimization completed.
    -- Stationary point found.
                           ----------------------------
                           !   Optimized Parameters   !
                           ! (Angstroms and Degrees)  !
 --------------------------                            --------------------------
 ! Name  Definition              Value          Derivative Info.                !
 --------------------------------------------------------------------------------
 ! R1    R(1,2)                  1.0961         -DE/DX =    0.0                 !
 ! R2    R(1,3)                  1.4709         -DE/DX =    0.0                 !
 ! R3    R(1,5)                  1.3398         -DE/DX =    0.0                 !
 ! R4    R(3,4)                  1.0936         -DE/DX =    0.0                 !
 ! R5    R(3,11)                 1.3379         -DE/DX =    0.0                 !
 ! R6    R(5,6)                  1.0968         -DE/DX =    0.0                 !
 ! R7    R(5,7)                  1.4965         -DE/DX =    0.0                 !
 ! R8    R(7,8)                  1.101          -DE/DX =    0.0                 !
 ! R9    R(7,9)                  1.0985         -DE/DX =    0.0                 !
 ! R10   R(7,10)                 1.1013         -DE/DX =    0.0                 !
 ! R11   R(11,12)                1.095          -DE/DX =    0.0                 !
 ! R12   R(11,13)                1.4965         -DE/DX =    0.0                 !
 ! R13   R(13,14)                1.1036         -DE/DX =    0.0                 !
 ! R14   R(13,15)                1.1041         -DE/DX =    0.0                 !
 ! R15   R(13,21)                1.4154         -DE/DX =    0.0                 !
 ! R16   R(16,17)                1.5087         -DE/DX =    0.0                 !
 ! R17   R(16,21)                1.3472         -DE/DX =    0.0                 !
 ! R18   R(16,22)                1.1978         -DE/DX =    0.0                 !
 ! R19   R(17,18)                1.0989         -DE/DX =    0.0                 !
 ! R20   R(17,19)                1.0936         -DE/DX =    0.0                 !
 ! R21   R(17,20)                1.098          -DE/DX =    0.0                 !
 ! A1    A(2,1,3)              116.1282         -DE/DX =    0.0                 !
 ! A2    A(2,1,5)              118.4967         -DE/DX =    0.0                 !
 ! A3    A(3,1,5)              125.3629         -DE/DX =   -0.0001              !
 ! A4    A(1,3,4)              117.1418         -DE/DX =    0.0                 !
 ! A5    A(1,3,11)             124.8235         -DE/DX =    0.0                 !
 ! A6    A(4,3,11)             118.0279         -DE/DX =    0.0                 !
 ! A7    A(1,5,6)              118.5397         -DE/DX =    0.0                 !
 ! A8    A(1,5,7)              124.7746         -DE/DX =    0.0                 !
 ! A9    A(6,5,7)              116.6794         -DE/DX =    0.0                 !
 ! A10   A(5,7,8)              111.0682         -DE/DX =    0.0                 !
 ! A11   A(5,7,9)              111.3554         -DE/DX =    0.0                 !
 ! A12   A(5,7,10)             110.9205         -DE/DX =    0.0                 !
 ! A13   A(8,7,9)              108.472          -DE/DX =    0.0                 !
 ! A14   A(8,7,10)             106.5851         -DE/DX =    0.0                 !
 ! A15   A(9,7,10)             108.2659         -DE/DX =    0.0                 !
 ! A16   A(3,11,12)            120.2984         -DE/DX =    0.0                 !
 ! A17   A(3,11,13)            124.8873         -DE/DX =    0.0                 !
 ! A18   A(12,11,13)           114.8087         -DE/DX =    0.0                 !
 ! A19   A(11,13,14)           109.5571         -DE/DX =    0.0                 !
 ! A20   A(11,13,15)           109.6293         -DE/DX =    0.0                 !
 ! A21   A(11,13,21)           109.7203         -DE/DX =    0.0                 !
 ! A22   A(14,13,15)           107.0591         -DE/DX =    0.0                 !
 ! A23   A(14,13,21)           110.5313         -DE/DX =    0.0                 !
 ! A24   A(15,13,21)           110.3022         -DE/DX =    0.0                 !
 ! A25   A(17,16,21)           117.4712         -DE/DX =    0.0                 !
 ! A26   A(17,16,22)           123.8035         -DE/DX =    0.0                 !
 ! A27   A(21,16,22)           118.7242         -DE/DX =    0.0                 !
 ! A28   A(16,17,18)           110.4588         -DE/DX =    0.0                 !
 ! A29   A(16,17,19)           108.1089         -DE/DX =    0.0                 !
 ! A30   A(16,17,20)           111.154          -DE/DX =    0.0                 !
 ! A31   A(18,17,19)           109.5205         -DE/DX =    0.0                 !
 ! A32   A(18,17,20)           107.7722         -DE/DX =    0.0                 !
 ! A33   A(19,17,20)           109.8197         -DE/DX =    0.0                 !
 ! A34   A(13,21,16)           121.898          -DE/DX =    0.0                 !
 ! D1    D(2,1,3,4)             29.0176         -DE/DX =    0.0                 !
 ! D2    D(2,1,3,11)          -150.0116         -DE/DX =    0.0                 !
 ! D3    D(5,1,3,4)           -149.6856         -DE/DX =    0.0                 !
 ! D4    D(5,1,3,11)            31.2852         -DE/DX =    0.0                 !
 ! D5    D(2,1,5,6)           -176.456          -DE/DX =    0.0                 !
 ! D6    D(2,1,5,7)              2.5895         -DE/DX =    0.0                 !
 ! D7    D(3,1,5,6)              2.2192         -DE/DX =    0.0                 !
 ! D8    D(3,1,5,7)           -178.7352         -DE/DX =    0.0                 !
 ! D9    D(1,3,11,12)            2.2598         -DE/DX =    0.0                 !
 ! D10   D(1,3,11,13)         -178.647          -DE/DX =    0.0                 !
 ! D11   D(4,3,11,12)         -176.7615         -DE/DX =    0.0                 !
 ! D12   D(4,3,11,13)            2.3317         -DE/DX =    0.0                 !
 ! D13   D(1,5,7,8)           -121.129          -DE/DX =    0.0                 !
 ! D14   D(1,5,7,9)             -0.1187         -DE/DX =    0.0                 !
 ! D15   D(1,5,7,10)           120.5287         -DE/DX =    0.0                 !
 ! D16   D(6,5,7,8)             57.9326         -DE/DX =    0.0                 !
 ! D17   D(6,5,7,9)            178.943          -DE/DX =    0.0                 !
 ! D18   D(6,5,7,10)           -60.4096         -DE/DX =    0.0                 !
 ! D19   D(3,11,13,14)        -120.5141         -DE/DX =    0.0                 !
 ! D20   D(3,11,13,15)         122.2776         -DE/DX =    0.0                 !
 ! D21   D(3,11,13,21)           1.0006         -DE/DX =    0.0                 !
 ! D22   D(12,11,13,14)         58.6234         -DE/DX =    0.0                 !
 ! D23   D(12,11,13,15)        -58.5849         -DE/DX =    0.0                 !
 ! D24   D(12,11,13,21)       -179.8619         -DE/DX =    0.0                 !
 ! D25   D(11,13,21,16)       -177.2799         -DE/DX =    0.0                 !
 ! D26   D(14,13,21,16)        -56.3516         -DE/DX =    0.0                 !
 ! D27   D(15,13,21,16)         61.8488         -DE/DX =    0.0                 !
 ! D28   D(21,16,17,18)         62.6118         -DE/DX =    0.0                 !
 ! D29   D(21,16,17,19)       -177.5715         -DE/DX =    0.0                 !
 ! D30   D(21,16,17,20)        -56.971          -DE/DX =    0.0                 !
 ! D31   D(22,16,17,18)       -116.9963         -DE/DX =    0.0                 !
 ! D32   D(22,16,17,19)          2.8203         -DE/DX =    0.0                 !
 ! D33   D(22,16,17,20)        123.4208         -DE/DX =    0.0                 !
 ! D34   D(17,16,21,13)          1.77           -DE/DX =    0.0                 !
 ! D35   D(22,16,21,13)       -178.6012         -DE/DX =    0.0                 !
 --------------------------------------------------------------------------------
 GradGradGradGradGradGradGradGradGradGradGradGradGradGradGradGradGradGrad

                          Input orientation:                          
 ---------------------------------------------------------------------
 Center     Atomic      Atomic             Coordinates (Angstroms)
 Number     Number       Type             X           Y           Z
 ---------------------------------------------------------------------
      1          6           0       -2.589135    0.640437   -0.268348
      2          1           0       -2.924044    1.552968   -0.774774
      3          6           0       -1.134193    0.437715   -0.193889
      4          1           0       -0.506139    1.332718   -0.174595
      5          6           0       -3.513811   -0.179654    0.248965
      6          1           0       -3.178182   -1.062233    0.806900
      7          6           0       -4.992366    0.025580    0.142176
      8          1           0       -5.455356    0.094647    1.138708
      9          1           0       -5.229818    0.941328   -0.416150
     10          1           0       -5.471450   -0.824257   -0.368815
     11          6           0       -0.529445   -0.755361   -0.167073
     12          1           0       -1.119070   -1.675305   -0.238313
     13          6           0        0.948800   -0.963526   -0.062405
     14          1           0        1.306073   -1.524829   -0.942837
     15          1           0        1.174827   -1.577656    0.826815
     16          6           0        2.944891    0.389225    0.076423
     17          6           0        3.742005   -0.888980   -0.007451
     18          1           0        3.571081   -1.385601   -0.972700
     19          1           0        4.801406   -0.635987    0.090805
     20          1           0        3.451474   -1.589949    0.786199
     21          8           0        1.602345    0.288808    0.026620
     22          8           0        3.437495    1.476384    0.176926
 ---------------------------------------------------------------------
                    Distance matrix (angstroms):
                    1          2          3          4          5
     1  C    0.000000
     2  H    1.096058   0.000000
     3  C    1.470883   2.187415   0.000000
     4  H    2.197024   2.500998   1.093551   0.000000
     5  C    1.339846   2.097104   2.497968   3.393046   0.000000
     6  H    2.098147   3.066848   2.725677   3.720072   1.096761
     7  C    2.514378   2.729774   3.894649   4.683502   1.496546
     8  H    3.239277   3.492228   4.534971   5.268048   2.153249
     9  H    2.661877   2.412324   4.132453   4.746017   2.154915
    10  H    3.234681   3.507888   4.520506   5.417063   2.151631
    11  C    2.490147   3.381093   1.337860   2.088223   3.067730
    12  H    2.743110   3.737308   2.113541   3.070496   2.865169
    13  C    3.889999   4.673236   2.513886   2.720693   4.541619
    14  H    4.507323   5.234020   3.219845   3.469853   5.144042
    15  H    4.504079   5.400615   3.230345   3.506957   4.926626
    16  C    5.550443   6.043445   4.088318   3.586474   6.486002
    17  C    6.518475   7.140595   5.056895   4.796937   7.294913
    18  H    6.522975   7.131691   5.105941   4.964872   7.289888
    19  H    7.508551   8.076096   6.038644   5.667122   8.329231
    20  H    6.525002   7.277485   5.108849   5.012765   7.126903
    21  O    4.216533   4.767445   2.749443   2.361343   5.142368
    22  O    6.100602   6.432789   4.702836   3.961875   7.146209
                    6          7          8          9         10
     6  H    0.000000
     7  C    2.217309   0.000000
     8  H    2.575653   1.101002   0.000000
     9  H    3.117582   1.098502   1.784746   0.000000
    10  H    2.588053   1.101298   1.765579   1.782671   0.000000
    11  C    2.838768   4.541274   5.166447   5.003429   4.946601
    12  H    2.389199   4.247376   4.881833   4.876130   4.436725
    13  C    4.218698   6.026412   6.601183   6.475255   6.429066
    14  H    4.835713   6.576576   7.257579   7.005512   6.837772
    15  H    4.383463   6.408851   6.844940   6.993548   6.794861
    16  C    6.335010   7.945855   8.472271   8.208125   8.515020
    17  C    6.970091   8.783396   9.320550   9.165733   9.220766
    18  H    6.987424   8.750257   9.387531   9.120316   9.080041
    19  H    8.022986   9.816225  10.336010  10.167123  10.284856
    20  H    6.650658   8.621087   9.071590   9.122381   9.029890
    21  O    5.028676   6.600974   7.147418   6.877520   7.171740
    22  O    7.113974   8.553864   9.050802   8.704042   9.217379
                   11         12         13         14         15
    11  C    0.000000
    12  H    1.095002   0.000000
    13  C    1.496495   2.194005   0.000000
    14  H    2.136122   2.529885   1.103569   0.000000
    15  H    2.137411   2.531007   1.104063   1.775298   0.000000
    16  C    3.666112   4.569149   2.415282   2.718128   2.750425
    17  C    4.276519   4.929671   2.794740   2.685706   2.785799
    18  H    4.226174   4.756130   2.807693   2.269480   3.002861
    19  H    5.338420   6.020011   3.869538   3.751774   3.818446
    20  H    4.177676   4.684739   2.715863   2.756184   2.277042
    21  O    2.381666   3.366605   1.415411   2.077716   2.075276
    22  O    4.564607   5.555884   3.493429   3.847611   3.856058
                   16         17         18         19         20
    16  C    0.000000
    17  C    1.508719   0.000000
    18  H    2.154711   1.098887   0.000000
    19  H    2.120829   1.093613   1.790716   0.000000
    20  H    2.162762   1.098019   1.774765   1.793302   0.000000
    21  O    1.347217   2.442640   2.770958   3.330669   2.743349
    22  O    1.197779   2.392001   3.087142   2.515906   3.126309
                   21         22
    21  O    0.000000
    22  O    2.191051   0.000000
 Stoichiometry    C8H12O2
 Framework group  C1[X(C8H12O2)]
 Deg. of freedom    60
 Full point group                 C1      NOp   1
 Largest Abelian subgroup         C1      NOp   1
 Largest concise Abelian subgroup C1      NOp   1
                         Standard orientation:                         
 ---------------------------------------------------------------------
 Center     Atomic      Atomic             Coordinates (Angstroms)
 Number     Number       Type             X           Y           Z
 ---------------------------------------------------------------------
      1          6           0       -2.589135    0.640437   -0.268348
      2          1           0       -2.924044    1.552968   -0.774774
      3          6           0       -1.134193    0.437715   -0.193889
      4          1           0       -0.506139    1.332718   -0.174595
      5          6           0       -3.513811   -0.179654    0.248965
      6          1           0       -3.178182   -1.062233    0.806900
      7          6           0       -4.992366    0.025580    0.142176
      8          1           0       -5.455356    0.094647    1.138708
      9          1           0       -5.229818    0.941328   -0.416150
     10          1           0       -5.471450   -0.824257   -0.368815
     11          6           0       -0.529445   -0.755361   -0.167073
     12          1           0       -1.119070   -1.675305   -0.238313
     13          6           0        0.948800   -0.963526   -0.062405
     14          1           0        1.306073   -1.524829   -0.942837
     15          1           0        1.174827   -1.577656    0.826815
     16          6           0        2.944891    0.389225    0.076423
     17          6           0        3.742005   -0.888980   -0.007451
     18          1           0        3.571081   -1.385601   -0.972700
     19          1           0        4.801406   -0.635987    0.090805
     20          1           0        3.451474   -1.589949    0.786199
     21          8           0        1.602345    0.288808    0.026620
     22          8           0        3.437495    1.476384    0.176926
 ---------------------------------------------------------------------
 Rotational constants (GHZ):      4.9812028      0.4116413      0.3856549
 1\1\GINC-D10S1B2\FOpt\RM062X\def2SVP\C8H12O2\CHMKSH\06-Sep-2020\0\\# o
 pt freq scrf=(cpcm,solvent=toluene) geom=connectivity def2svp m062x em
 piricaldispersion=gd3\\Title Card Required\\0,1\C,-2.589135,0.640437,-
 0.268348\H,-2.924044,1.552968,-0.774774\C,-1.134193,0.437715,-0.193889
 \H,-0.506139,1.332718,-0.174595\C,-3.513811,-0.179654,0.248965\H,-3.17
 8182,-1.062233,0.8069\C,-4.992366,0.02558,0.142176\H,-5.455356,0.09464
 7,1.138708\H,-5.229818,0.941328,-0.41615\H,-5.47145,-0.824257,-0.36881
 5\C,-0.529445,-0.755361,-0.167073\H,-1.11907,-1.675305,-0.238313\C,0.9
 488,-0.963526,-0.062405\H,1.306073,-1.524829,-0.942837\H,1.174827,-1.5
 77656,0.826815\C,2.944891,0.389225,0.076423\C,3.742005,-0.88898,-0.007
 451\H,3.571081,-1.385601,-0.9727\H,4.801406,-0.635987,0.090805\H,3.451
 474,-1.589949,0.786199\O,1.602345,0.288808,0.02662\O,3.437495,1.476384
 ,0.176926\\Version=ES64L-G09RevD.01\State=1-A\HF=-461.9367955\RMSD=3.9
 28e-09\RMSF=1.344e-05\Dipole=-0.5359277,-1.9018707,-0.1205583\Quadrupo
 le=1.62874,-0.7844499,-0.84429,-9.4900074,-1.13725,-1.2821159\PG=C01 [
 X(C8H12O2)]\\@


 ALTHOUGH J.J. COULD DIAGNOSE THE FAULTS OF AN
 APPARATUS WITH UNCANNY ACCURACY, IT WAS JUST AS
 WELL NOT TO LET HIM HANDLE IT.
   -- GEORGE THOMPSON, ABOUT HIS FATHER
 Job cpu time:       0 days  0 hours  3 minutes 23.4 seconds.
 File lengths (MBytes):  RWF=     51 Int=      0 D2E=      0 Chk=      5 Scr=      1
 Normal termination of Gaussian 09 at Sun Sep  6 02:54:50 2020.
 Link1:  Proceeding to internal job step number  2.
 -------------------------------------------------------------------
 #N Geom=AllCheck Guess=TCheck SCRF=Check GenChk RM062X/def2SVP Freq
 -------------------------------------------------------------------
 1/10=4,29=7,30=1,38=1,40=1/1,3;
 2/12=2,40=1/2;
 3/5=43,7=101,11=2,14=-4,16=1,25=1,30=1,70=2,71=2,72=13,74=-55,116=1,124=31,140=1/1,2,3;
 4/5=101/1;
 5/5=2,53=13,98=1/2;
 8/6=4,10=90,11=11/1;
 11/6=1,8=1,9=11,15=111,16=1/1,2,10;
 10/6=1/2;
 6/7=2,8=2,9=2,10=2,18=1,28=1/1;
 7/8=1,10=1,25=1/1,2,3,16;
 1/10=4,30=1/3;
 99//99;
 Structure from the checkpoint file:  "m06-2x_diene_pm6_cpcmtoluene_1_gd3.chk"
 -------------------
 Title Card Required
 -------------------
 Charge =  0 Multiplicity = 1
 Redundant internal coordinates found in file.
 C,0,-2.589135,0.640437,-0.268348
 H,0,-2.924044,1.552968,-0.774774
 C,0,-1.134193,0.437715,-0.193889
 H,0,-0.506139,1.332718,-0.174595
 C,0,-3.513811,-0.179654,0.248965
 H,0,-3.178182,-1.062233,0.8069
 C,0,-4.992366,0.02558,0.142176
 H,0,-5.455356,0.094647,1.138708
 H,0,-5.229818,0.941328,-0.41615
 H,0,-5.47145,-0.824257,-0.368815
 C,0,-0.529445,-0.755361,-0.167073
 H,0,-1.11907,-1.675305,-0.238313
 C,0,0.9488,-0.963526,-0.062405
 H,0,1.306073,-1.524829,-0.942837
 H,0,1.174827,-1.577656,0.826815
 C,0,2.944891,0.389225,0.076423
 C,0,3.742005,-0.88898,-0.007451
 H,0,3.571081,-1.385601,-0.9727
 H,0,4.801406,-0.635987,0.090805
 H,0,3.451474,-1.589949,0.786199
 O,0,1.602345,0.288808,0.02662
 O,0,3.437495,1.476384,0.176926
 Recover connectivity data from disk.

 GradGradGradGradGradGradGradGradGradGradGradGradGradGradGradGradGradGrad
 Berny optimization.
 Initialization pass.
                           ----------------------------
                           !    Initial Parameters    !
                           ! (Angstroms and Degrees)  !
 --------------------------                            --------------------------
 ! Name  Definition              Value          Derivative Info.                !
 --------------------------------------------------------------------------------
 ! R1    R(1,2)                  1.0961         calculate D2E/DX2 analytically  !
 ! R2    R(1,3)                  1.4709         calculate D2E/DX2 analytically  !
 ! R3    R(1,5)                  1.3398         calculate D2E/DX2 analytically  !
 ! R4    R(3,4)                  1.0936         calculate D2E/DX2 analytically  !
 ! R5    R(3,11)                 1.3379         calculate D2E/DX2 analytically  !
 ! R6    R(5,6)                  1.0968         calculate D2E/DX2 analytically  !
 ! R7    R(5,7)                  1.4965         calculate D2E/DX2 analytically  !
 ! R8    R(7,8)                  1.101          calculate D2E/DX2 analytically  !
 ! R9    R(7,9)                  1.0985         calculate D2E/DX2 analytically  !
 ! R10   R(7,10)                 1.1013         calculate D2E/DX2 analytically  !
 ! R11   R(11,12)                1.095          calculate D2E/DX2 analytically  !
 ! R12   R(11,13)                1.4965         calculate D2E/DX2 analytically  !
 ! R13   R(13,14)                1.1036         calculate D2E/DX2 analytically  !
 ! R14   R(13,15)                1.1041         calculate D2E/DX2 analytically  !
 ! R15   R(13,21)                1.4154         calculate D2E/DX2 analytically  !
 ! R16   R(16,17)                1.5087         calculate D2E/DX2 analytically  !
 ! R17   R(16,21)                1.3472         calculate D2E/DX2 analytically  !
 ! R18   R(16,22)                1.1978         calculate D2E/DX2 analytically  !
 ! R19   R(17,18)                1.0989         calculate D2E/DX2 analytically  !
 ! R20   R(17,19)                1.0936         calculate D2E/DX2 analytically  !
 ! R21   R(17,20)                1.098          calculate D2E/DX2 analytically  !
 ! A1    A(2,1,3)              116.1282         calculate D2E/DX2 analytically  !
 ! A2    A(2,1,5)              118.4967         calculate D2E/DX2 analytically  !
 ! A3    A(3,1,5)              125.3629         calculate D2E/DX2 analytically  !
 ! A4    A(1,3,4)              117.1418         calculate D2E/DX2 analytically  !
 ! A5    A(1,3,11)             124.8235         calculate D2E/DX2 analytically  !
 ! A6    A(4,3,11)             118.0279         calculate D2E/DX2 analytically  !
 ! A7    A(1,5,6)              118.5397         calculate D2E/DX2 analytically  !
 ! A8    A(1,5,7)              124.7746         calculate D2E/DX2 analytically  !
 ! A9    A(6,5,7)              116.6794         calculate D2E/DX2 analytically  !
 ! A10   A(5,7,8)              111.0682         calculate D2E/DX2 analytically  !
 ! A11   A(5,7,9)              111.3554         calculate D2E/DX2 analytically  !
 ! A12   A(5,7,10)             110.9205         calculate D2E/DX2 analytically  !
 ! A13   A(8,7,9)              108.472          calculate D2E/DX2 analytically  !
 ! A14   A(8,7,10)             106.5851         calculate D2E/DX2 analytically  !
 ! A15   A(9,7,10)             108.2659         calculate D2E/DX2 analytically  !
 ! A16   A(3,11,12)            120.2984         calculate D2E/DX2 analytically  !
 ! A17   A(3,11,13)            124.8873         calculate D2E/DX2 analytically  !
 ! A18   A(12,11,13)           114.8087         calculate D2E/DX2 analytically  !
 ! A19   A(11,13,14)           109.5571         calculate D2E/DX2 analytically  !
 ! A20   A(11,13,15)           109.6293         calculate D2E/DX2 analytically  !
 ! A21   A(11,13,21)           109.7203         calculate D2E/DX2 analytically  !
 ! A22   A(14,13,15)           107.0591         calculate D2E/DX2 analytically  !
 ! A23   A(14,13,21)           110.5313         calculate D2E/DX2 analytically  !
 ! A24   A(15,13,21)           110.3022         calculate D2E/DX2 analytically  !
 ! A25   A(17,16,21)           117.4712         calculate D2E/DX2 analytically  !
 ! A26   A(17,16,22)           123.8035         calculate D2E/DX2 analytically  !
 ! A27   A(21,16,22)           118.7242         calculate D2E/DX2 analytically  !
 ! A28   A(16,17,18)           110.4588         calculate D2E/DX2 analytically  !
 ! A29   A(16,17,19)           108.1089         calculate D2E/DX2 analytically  !
 ! A30   A(16,17,20)           111.154          calculate D2E/DX2 analytically  !
 ! A31   A(18,17,19)           109.5205         calculate D2E/DX2 analytically  !
 ! A32   A(18,17,20)           107.7722         calculate D2E/DX2 analytically  !
 ! A33   A(19,17,20)           109.8197         calculate D2E/DX2 analytically  !
 ! A34   A(13,21,16)           121.898          calculate D2E/DX2 analytically  !
 ! D1    D(2,1,3,4)             29.0176         calculate D2E/DX2 analytically  !
 ! D2    D(2,1,3,11)          -150.0116         calculate D2E/DX2 analytically  !
 ! D3    D(5,1,3,4)           -149.6856         calculate D2E/DX2 analytically  !
 ! D4    D(5,1,3,11)            31.2852         calculate D2E/DX2 analytically  !
 ! D5    D(2,1,5,6)           -176.456          calculate D2E/DX2 analytically  !
 ! D6    D(2,1,5,7)              2.5895         calculate D2E/DX2 analytically  !
 ! D7    D(3,1,5,6)              2.2192         calculate D2E/DX2 analytically  !
 ! D8    D(3,1,5,7)           -178.7352         calculate D2E/DX2 analytically  !
 ! D9    D(1,3,11,12)            2.2598         calculate D2E/DX2 analytically  !
 ! D10   D(1,3,11,13)         -178.647          calculate D2E/DX2 analytically  !
 ! D11   D(4,3,11,12)         -176.7615         calculate D2E/DX2 analytically  !
 ! D12   D(4,3,11,13)            2.3317         calculate D2E/DX2 analytically  !
 ! D13   D(1,5,7,8)           -121.129          calculate D2E/DX2 analytically  !
 ! D14   D(1,5,7,9)             -0.1187         calculate D2E/DX2 analytically  !
 ! D15   D(1,5,7,10)           120.5287         calculate D2E/DX2 analytically  !
 ! D16   D(6,5,7,8)             57.9326         calculate D2E/DX2 analytically  !
 ! D17   D(6,5,7,9)            178.943          calculate D2E/DX2 analytically  !
 ! D18   D(6,5,7,10)           -60.4096         calculate D2E/DX2 analytically  !
 ! D19   D(3,11,13,14)        -120.5141         calculate D2E/DX2 analytically  !
 ! D20   D(3,11,13,15)         122.2776         calculate D2E/DX2 analytically  !
 ! D21   D(3,11,13,21)           1.0006         calculate D2E/DX2 analytically  !
 ! D22   D(12,11,13,14)         58.6234         calculate D2E/DX2 analytically  !
 ! D23   D(12,11,13,15)        -58.5849         calculate D2E/DX2 analytically  !
 ! D24   D(12,11,13,21)       -179.8619         calculate D2E/DX2 analytically  !
 ! D25   D(11,13,21,16)       -177.2799         calculate D2E/DX2 analytically  !
 ! D26   D(14,13,21,16)        -56.3516         calculate D2E/DX2 analytically  !
 ! D27   D(15,13,21,16)         61.8488         calculate D2E/DX2 analytically  !
 ! D28   D(21,16,17,18)         62.6118         calculate D2E/DX2 analytically  !
 ! D29   D(21,16,17,19)       -177.5715         calculate D2E/DX2 analytically  !
 ! D30   D(21,16,17,20)        -56.971          calculate D2E/DX2 analytically  !
 ! D31   D(22,16,17,18)       -116.9963         calculate D2E/DX2 analytically  !
 ! D32   D(22,16,17,19)          2.8203         calculate D2E/DX2 analytically  !
 ! D33   D(22,16,17,20)        123.4208         calculate D2E/DX2 analytically  !
 ! D34   D(17,16,21,13)          1.77           calculate D2E/DX2 analytically  !
 ! D35   D(22,16,21,13)       -178.6012         calculate D2E/DX2 analytically  !
 --------------------------------------------------------------------------------
 Trust Radius=3.00D-01 FncErr=1.00D-07 GrdErr=1.00D-07
 Number of steps in this run=      2 maximum allowed number of steps=      2.
 GradGradGradGradGradGradGradGradGradGradGradGradGradGradGradGradGradGrad

                          Input orientation:                          
 ---------------------------------------------------------------------
 Center     Atomic      Atomic             Coordinates (Angstroms)
 Number     Number       Type             X           Y           Z
 ---------------------------------------------------------------------
      1          6           0       -2.589135    0.640437   -0.268348
      2          1           0       -2.924044    1.552968   -0.774774
      3          6           0       -1.134193    0.437715   -0.193889
      4          1           0       -0.506139    1.332718   -0.174595
      5          6           0       -3.513811   -0.179654    0.248965
      6          1           0       -3.178182   -1.062233    0.806900
      7          6           0       -4.992366    0.025580    0.142176
      8          1           0       -5.455356    0.094647    1.138708
      9          1           0       -5.229818    0.941328   -0.416150
     10          1           0       -5.471450   -0.824257   -0.368815
     11          6           0       -0.529445   -0.755361   -0.167073
     12          1           0       -1.119070   -1.675305   -0.238313
     13          6           0        0.948800   -0.963526   -0.062405
     14          1           0        1.306073   -1.524829   -0.942837
     15          1           0        1.174827   -1.577656    0.826815
     16          6           0        2.944891    0.389225    0.076423
     17          6           0        3.742005   -0.888980   -0.007451
     18          1           0        3.571081   -1.385601   -0.972700
     19          1           0        4.801406   -0.635987    0.090805
     20          1           0        3.451474   -1.589949    0.786199
     21          8           0        1.602345    0.288808    0.026620
     22          8           0        3.437495    1.476384    0.176926
 ---------------------------------------------------------------------
                    Distance matrix (angstroms):
                    1          2          3          4          5
     1  C    0.000000
     2  H    1.096058   0.000000
     3  C    1.470883   2.187415   0.000000
     4  H    2.197024   2.500998   1.093551   0.000000
     5  C    1.339846   2.097104   2.497968   3.393046   0.000000
     6  H    2.098147   3.066848   2.725677   3.720072   1.096761
     7  C    2.514378   2.729774   3.894649   4.683502   1.496546
[...]
 -0.00014599,-0.00000015,-0.00000686,0.00001789,-0.00012567,0.00001709,
 -0.00001399,0.00002587,-0.00002671,-0.00000111,-0.12677275,-0.25198791
 ,-0.01632686,0.13676202,0.26655952,0.00336997,0.00084320,-0.00782406,-
 0.00040543,0.00026060,0.00026286,-0.00316857,0.00200716,0.00719076,-0.
 00035142,0.00061578,0.01039700,0.00012134,-0.00199685,0.00046723,0.000
 66520,0.00029677,0.00005385,0.00002871,0.00050536,0.00007086,-0.000013
 52,-0.00004363,0.00000411,-0.00009923,-0.00002496,-0.00004212,0.000120
 73,-0.00000416,-0.00000636,-0.01239049,-0.01800288,-0.03973494,0.01323
 364,0.01745306,0.02590688,0.00305439,0.00032387,-0.00145812,0.00020526
 ,0.00005462,0.00051783,-0.01805213,0.01096345,-0.00208519,-0.00054430,
 -0.00219055,0.00032524,-0.00024918,-0.00071385,-0.00008968,-0.00006170
 ,-0.00024036,0.00007941,0.00006933,0.00021349,0.00010092,0.00012118,-0
 .00006285,-0.00002187,0.00009663,-0.00007310,0.00005604,0.00019086,-0.
 00004983,0.00006340,-0.24287293,0.03608211,-0.01123139,-0.00789623,0.0
 0352919,-0.00037548,0.54182253,-0.00161336,-0.00423955,-0.00059218,0.0
 0139914,-0.00020843,0.00015617,0.03092139,0.00060296,0.00192947,0.0003
 5472,-0.00112873,0.00030609,0.00002368,-0.00030414,0.00032180,0.000131
 01,0.00009586,-0.00041262,0.00021815,0.00078369,0.00014287,0.00015410,
 -0.00008154,-0.00003382,-0.00003516,-0.00004517,0.00002032,0.00038124,
 -0.00007624,0.00007430,0.01926832,-0.09233455,0.00102175,-0.02396507,0
 .00477052,-0.00183598,-0.03619569,0.53755186,-0.00195066,-0.00183147,0
 .01285065,0.00141714,-0.00017418,-0.00024366,0.00009563,0.00129103,0.0
 0660315,0.00031798,-0.00051498,-0.00722665,-0.00063756,0.00109812,-0.0
 0066529,-0.00016711,0.00005362,0.00021798,-0.00008133,-0.00076096,-0.0
 0054503,0.00005326,0.00011721,-0.00002472,0.00000298,0.00008125,0.0000
 2992,-0.00029226,0.00001028,0.00001475,-0.01204623,0.00271661,-0.07430
 722,-0.00110033,0.00047524,0.00128950,-0.00715772,-0.00341632,0.582066
 22,-0.00009217,0.00070117,-0.00210047,-0.00061668,0.00003771,-0.000088
 31,-0.00249307,-0.00212391,-0.00013291,-0.00001378,0.00006693,0.001091
 80,0.00022085,0.00024188,-0.00000366,0.00005407,-0.00003347,-0.0000136
 1,-0.00007713,-0.00010403,0.00011877,-0.00010186,0.00001764,0.00001198
 ,-0.00001652,0.00001548,-0.00002006,-0.00010475,0.00003010,-0.00004418
 ,-0.01243088,0.01817270,0.02447763,0.00050788,-0.00061351,-0.00087202,
 -0.07559011,0.04430156,0.07712162,0.08520393,0.00028535,-0.00011955,0.
 00039685,0.00002436,0.00000531,-0.00000114,-0.00008008,0.00129033,-0.0
 0012365,-0.00031139,0.00006213,-0.00051086,-0.00012080,0.00000730,0.00
 001105,-0.00003427,-0.00002317,-0.00001136,0.00000407,-0.00005202,-0.0
 0000425,-0.00001673,0.00000835,0.00000484,0.00000004,0.00000797,-0.000
 00374,-0.00003158,0.00000641,-0.00000998,0.00581466,-0.00175107,-0.003
 69450,0.00031362,0.00012394,0.00027834,0.03745427,-0.10445335,-0.09622
 596,-0.04142639,0.12517590,0.00024194,0.00010150,-0.00048887,-0.000063
 29,0.00004664,0.00003586,-0.00087318,0.00080805,-0.00031854,-0.0000427
 3,0.00005452,0.00021055,-0.00006537,-0.00008346,0.00003803,-0.00000926
 ,-0.00000441,0.00000912,0.00000963,0.00002473,0.00000414,0.00000443,-0
 .00000836,0.00000115,0.00000421,-0.00000489,0.00000077,0.00001465,-0.0
 0000040,0.00000183,-0.00055821,0.00277198,0.00597443,0.00065351,-0.000
 27522,0.00017495,0.06989274,-0.10123276,-0.22280265,-0.07639758,0.1129
 9530,0.23196529,-0.00061931,-0.00019538,0.00278503,-0.00004325,0.00003
 045,-0.00014664,-0.00222981,-0.00161557,-0.00032916,0.00010970,-0.0000
 4702,-0.00105980,-0.00009189,0.00063693,-0.00025327,-0.00002331,0.0000
 5442,0.00013662,-0.00013506,-0.00045667,-0.00014720,-0.00008776,0.0000
 7061,0.00000745,-0.00001918,0.00003805,-0.00001346,-0.00022812,0.00004
 964,-0.00004568,-0.00827668,0.02003864,-0.02571111,0.00041909,-0.00070
 175,0.00088696,-0.05919507,0.03228218,-0.05140250,0.00325126,-0.004652
 88,0.00947401,0.06707585,0.00064052,-0.00007200,-0.00026620,-0.0000010
 5,0.00002070,0.00002868,-0.00038653,0.00160277,0.00002501,-0.00035016,
 0.00009708,0.00034075,-0.00010996,-0.00020417,0.00005138,-0.00000733,0
 .00003132,0.00002086,0.00001193,-0.00001265,-0.00001868,-0.00000442,0.
 00000013,0.00000458,-0.00000588,0.00000329,-0.00000488,-0.00001915,0.0
 0000259,-0.00000804,0.00534491,-0.00218905,0.00442945,0.00026351,0.000
 06474,-0.00025124,0.02606017,-0.11664156,0.10789133,-0.00229129,0.0093
 4934,-0.01151590,-0.02740403,0.13937236,-0.00029288,-0.00007505,-0.000
 05961,-0.00006430,0.00002017,-0.00000167,0.00060326,-0.00119963,-0.000
 32262,0.00000143,-0.00002935,0.00014646,0.00006971,0.00016340,-0.00004
 312,0.00001512,0.00002845,0.00001857,-0.00003179,-0.00005008,-0.000009
 44,-0.00001698,0.00000834,0.00000275,-0.00000603,0.00000343,-0.0000055
 8,-0.00002894,0.00001316,-0.00001036,-0.00141252,-0.00014761,0.0021813
 0,-0.00054810,0.00019245,0.00023629,-0.04499994,0.11356117,-0.22807524
 ,-0.00626299,0.01286853,-0.02019579,0.05090652,-0.12412255,0.23600254,
 -0.00067785,0.00133750,-0.00068011,0.00062853,-0.00023364,0.00020070,0
 .00049587,-0.00152625,0.00012975,-0.00168177,0.00169379,-0.00001091,0.
 00038967,-0.00063366,0.00008960,-0.00013760,-0.00011639,0.00012658,0.0
 0017003,0.00049994,-0.00012851,0.00034897,-0.00011127,-0.00006402,0.00
 009193,-0.00011919,0.00007637,0.00039746,-0.00004640,0.00012368,0.0002
 6786,0.00470651,0.00035759,0.00271864,0.00008385,0.00020939,-0.0334160
 0,-0.03780245,-0.00308107,0.00450874,0.00898551,0.00340690,0.00465934,
 0.00924502,-0.00211112,0.63613595,-0.00021266,0.00063616,-0.00024897,0
 .00026950,-0.00008690,0.00008630,0.00180885,-0.00037194,0.00022136,-0.
 00045368,0.00127834,0.00000080,0.00026067,-0.00027001,0.00003812,-0.00
 003198,-0.00002103,0.00004223,0.00006143,0.00018442,-0.00006078,0.0001
 2087,-0.00002580,-0.00001804,0.00003263,-0.00004091,0.00003311,0.00012
 409,-0.00002399,0.00003283,-0.00094456,-0.00485916,-0.00017589,-0.0004
 3908,0.00049586,-0.00002183,-0.03725473,-0.00718443,-0.00095806,-0.000
 23875,0.00057474,-0.00079748,-0.00037715,0.00027658,0.00080937,0.17512
 437,1.03535661,-0.00002845,0.00004895,0.00003010,0.00003764,-0.0000032
 7,0.00001825,0.00009199,-0.00013135,-0.00002108,-0.00009078,0.00011280
 ,-0.00006930,0.00000416,-0.00004860,-0.00000086,-0.00000613,0.00001476
 ,0.00001029,0.00001325,0.00002850,-0.00001789,0.00002620,-0.00000484,-
 0.00000514,0.00000173,-0.00000229,0.00000614,0.00001698,-0.00000619,0.
 00000871,-0.00026772,-0.00031179,-0.00053323,-0.00005085,0.00002106,0.
 00066132,-0.00297477,-0.00073163,-0.00968525,-0.00114623,-0.00094879,0
 .00055473,0.00181757,0.00180302,0.00064470,0.02305371,0.06693196,0.240
 37708,0.00004139,-0.00020048,0.00005772,-0.00009797,0.00003309,-0.0000
 2482,-0.00057658,0.00018786,-0.00007605,0.00012134,-0.00035058,0.00001
 979,-0.00006255,0.00011380,-0.00002005,0.00002090,0.00001121,-0.000015
 87,-0.00003184,-0.00007400,0.00002567,-0.00005006,0.00001618,0.0000068
 0,-0.00001057,0.00001441,-0.00000897,-0.00005613,0.00000673,-0.0000171
 5,-0.00003018,0.00075788,0.00006141,-0.00018863,-0.00003360,-0.0000333
 1,-0.00445857,0.00531343,0.00006409,-0.00087256,0.00003424,0.00116964,
 -0.00026237,-0.00006197,-0.00104668,-0.13111069,0.06100537,0.00470560,
 0.59686887,-0.00001073,-0.00000817,-0.00002108,-0.00000704,0.00000194,
 -0.00000156,-0.00014982,0.00011447,-0.00000940,-0.00003979,-0.00005607
 ,0.00000774,-0.00000767,-0.00000044,0.00000374,-0.00000117,-0.00000351
 ,-0.00000431,0.00000070,0.00000398,0.00000186,0.00000161,-0.00000339,-
 0.00000104,0.00000002,-0.00000043,-0.00000082,0.00000533,0.00000094,0.
 00000271,0.00028928,0.00010111,0.00016153,0.00002260,0.00000191,-0.000
 00131,0.00040602,-0.00092627,-0.00011913,-0.00046273,0.00051273,0.0004
 2980,-0.00050889,0.00044069,-0.00033424,0.05630042,-0.16865025,-0.0043
 6450,0.05776822,0.53155927,0.00001144,0.00001004,0.00005134,0.00000449
 ,0.00000383,0.00000132,-0.00009315,0.00003637,-0.00008206,-0.00001625,
 0.00000458,0.00006793,-0.00001131,-0.00000114,0.00000122,0.00000040,-0
 .00000060,0.00000107,-0.00000078,-0.00000182,-0.00000274,0.00000022,0.
 00000040,-0.00000040,-0.00000038,0.00000057,-0.00000002,-0.00000030,-0
 .00000042,0.00000104,0.00020033,0.00012931,-0.00067177,0.00000650,-0.0
 0000498,-0.00003460,-0.00033708,0.00003929,0.00018546,-0.00046249,-0.0
 0030449,0.00000059,0.00023819,0.00019618,-0.00021107,0.00385884,-0.003
 44081,-0.09800120,0.00777894,-0.00225318,0.55066244,0.00000026,0.00000
 208,-0.00001016,0.00002518,-0.00000550,0.00000919,0.00007747,-0.000016
 64,0.00000581,0.00001804,0.00000657,-0.00001384,-0.00000044,-0.0000306
 2,0.00000093,-0.00000286,-0.00000074,0.00000449,0.00000691,0.00001906,
 -0.00000203,0.00001061,-0.00000356,-0.00000221,0.00000275,-0.00000388,
 0.00000261,0.00001298,-0.00000238,0.00000425,-0.00019090,-0.00022341,0
 .00000700,-0.00000364,0.00000635,0.00001425,-0.00062790,0.00130506,0.0
 0105688,-0.00137318,-0.00022771,-0.00028449,0.00027618,-0.00014101,-0.
 00009096,0.00528449,0.00283880,0.01976663,-0.05321059,-0.01700092,-0.0
 3915007,0.05156067,-0.00000122,0.00000003,-0.00002866,-0.00000102,-0.0
 0000202,-0.00000155,-0.00003428,-0.00000690,-0.00000125,-0.00002646,-0
 .00000381,0.00002097,0.00000407,0.00000479,0.00000011,-0.00000050,-0.0
 0000180,0.00000068,-0.00000126,-0.00000152,0.00000291,-0.00000153,0.00
 000047,0.00000033,0.00000043,-0.00000066,-0.00000027,-0.00000133,0.000
 00083,-0.00000131,-0.00000215,0.00008299,0.00009041,0.00001184,0.00000
 121,-0.00001624,-0.00009282,0.00044032,-0.00013072,0.00001370,0.000499
 36,-0.00001412,0.00014331,0.00000898,0.00024683,-0.00906411,-0.0103085
 5,-0.02666220,-0.01797649,-0.09876279,-0.11566058,0.01990834,0.1058152
 6,0.00001249,0.00002856,-0.00002224,-0.00003069,0.00000645,-0.00000641
 ,-0.00013480,-0.00003972,-0.00000168,-0.00000358,0.00001262,0.00000566
 ,-0.00000100,0.00001940,0.00000003,0.00000364,0.00000080,-0.00000355,-
 0.00000518,-0.00001423,0.00000114,-0.00000843,0.00000223,0.00000159,-0
 .00000245,0.00000287,-0.00000206,-0.00001042,0.00000191,-0.00000306,-0
 .00001577,0.00036294,0.00026332,0.00001441,-0.00001919,-0.00001323,-0.
 00136047,-0.00010398,-0.00007842,-0.00004446,0.00011150,0.00071303,-0.
 00003307,-0.00019662,-0.00028380,-0.00021059,0.00025988,0.00171479,-0.
 03968261,-0.11246295,-0.26092701,0.04324376,0.12163324,0.27706345,0.00
 002028,-0.00004466,0.00001465,-0.00001626,0.00000582,-0.00000457,-0.00
 010216,0.00006699,-0.00001001,0.00002129,-0.00006990,0.00000283,-0.000
 01433,0.00001734,-0.00000346,0.00000327,0.00000174,-0.00000314,-0.0000
 0452,-0.00001289,0.00000491,-0.00000905,0.00000268,0.00000136,-0.00000
 191,0.00000274,-0.00000173,-0.00000987,0.00000116,-0.00000294,0.000125
 07,-0.00001704,-0.00001434,-0.00004577,0.00000086,-0.00000616,0.000974
 10,0.00114851,0.00010531,0.00009989,-0.00004385,0.00002645,0.00010477,
 -0.00003399,-0.00002996,-0.01701593,-0.00842338,-0.00188398,-0.3197125
 6,-0.06490191,-0.02568011,-0.00069034,0.00063385,0.00075187,0.33869606
 ,0.00000334,0.00006531,0.00000920,-0.00001022,-0.00000006,-0.00000147,
 -0.00007315,-0.00010014,-0.00000664,-0.00003154,0.00008171,-0.00000967
 ,0.00001376,0.00000200,0.00000106,0.00000087,0.00000120,0.00000099,-0.
 00000093,-0.00000519,-0.00000673,0.00000039,0.00000071,0.00000063,-0.0
 0000066,0.00000043,-0.00000027,-0.00000297,0.00000074,-0.00000076,0.00
 012106,0.00043877,0.00004496,0.00004837,-0.00001486,0.00000548,-0.0018
 1753,-0.00188504,-0.00021960,-0.00012821,0.00015736,0.00046691,0.00005
 718,0.00016178,-0.00040494,0.02986082,0.00822368,0.00338906,-0.0728138
 1,-0.06228746,-0.00636719,-0.01203007,-0.00315591,0.00095075,0.0697532
 5,0.06531722,0.00000336,0.00000790,-0.00006870,-0.00000778,-0.00000069
 ,-0.00000005,0.00001309,-0.00002770,0.00002226,-0.00000237,0.00001014,
 0.00004146,0.00000814,-0.00000004,0.00000223,0.00000013,-0.00000168,-0
 .00000268,0.00000014,0.00000349,0.00000575,-0.00000120,-0.00000005,-0.
 00000015,-0.00000008,0.00000013,-0.00000012,0.00000081,-0.00000009,-0.
 00000057,-0.00006338,-0.00000414,0.00034030,0.00000529,0.00000217,-0.0
 0001967,-0.00000468,-0.00009435,-0.00079542,0.00001571,0.00025126,0.00
 024635,-0.00011220,-0.00017283,0.00026578,0.00260010,0.00031267,-0.002
 39066,-0.02646501,-0.00577863,-0.04880791,-0.02619378,-0.00452888,-0.0
 0000981,0.02759146,0.00707450,0.04611629,0.00000692,0.00002201,-0.0000
 3387,0.00002133,-0.00000683,0.00000880,0.00002011,-0.00000189,0.000029
 25,0.00001639,0.00001196,0.00000484,-0.00000138,-0.00002956,0.00000412
 ,-0.00000339,-0.00000394,0.00000104,0.00000860,0.00002211,0.00000123,0
 .00001050,-0.00000385,-0.00000209,0.00000350,-0.00000414,0.00000296,0.
 00001501,-0.00000322,0.00000461,-0.00014621,-0.00012826,-0.00006094,0.
 00000403,0.00000274,-0.00001177,-0.00184304,0.00173588,-0.00127221,0.0
 0012866,-0.00016801,0.00003572,-0.00140859,-0.00014381,0.00029337,0.00
 783885,0.00682266,-0.01801973,-0.06766887,-0.04583497,0.05500702,0.000
 11089,0.00335068,-0.00395512,-0.00351068,-0.01719789,0.02219165,0.0678
 9308,-0.00000465,-0.00000311,0.00005843,-0.00000396,0.00000219,-0.0000
 0266,-0.00009328,0.00000072,-0.00001551,-0.00002420,-0.00000985,-0.000
 03157,-0.00000597,0.00001120,-0.00000443,0.00000069,0.00000412,0.00000
 447,-0.00000311,-0.00001105,-0.00000471,-0.00000164,0.00000165,0.00000
 044,-0.00000099,0.00000124,-0.00000051,-0.00000658,0.00000092,-0.00000
 134,0.00003517,0.00025459,-0.00024445,0.00001088,-0.00000791,0.0000242
 0,-0.00049862,0.00040078,0.00047223,0.00026910,-0.00003619,-0.00018628
 ,0.00013770,0.00053692,-0.00015511,-0.01270423,-0.01442860,0.02124778,
 -0.04621059,-0.15655710,0.13439194,0.00409403,0.01042025,-0.01135604,0
 .00041154,-0.00345131,0.00333698,0.05044303,0.16714188,-0.00001157,-0.
 00002622,-0.00004160,0.00002387,-0.00000686,0.00000702,0.00015525,0.00
 002375,0.00002406,0.00000780,-0.00001617,0.00000771,0.00000767,-0.0000
 2210,0.00000006,-0.00000322,-0.00000194,0.00000223,0.00000562,0.000018
 22,0.00000339,0.00000817,-0.00000268,-0.00000168,0.00000254,-0.0000030
 9,0.00000202,0.00001142,-0.00000205,0.00000290,-0.00003274,-0.00041936
 ,0.00012819,-0.00001895,0.00002334,-0.00000506,0.00145666,0.00021917,0
 .00022414,0.00002964,0.00022376,-0.00061628,-0.00010239,-0.00001020,0.
 00060138,-0.00150284,-0.00349727,0.00402683,0.05455826,0.13202208,-0.1
 8999786,0.00704537,0.01826429,-0.01720643,-0.00113680,-0.00420809,0.00
 351067,-0.05984750,-0.14124362,0.20138767,0.00056750,-0.00265825,0.000
 75491,-0.00049516,0.00023077,-0.00021231,0.00025685,0.00176501,-0.0002
 1957,-0.00223157,-0.00196275,-0.00022015,-0.00067679,0.00070239,-0.000
 00560,0.00018464,0.00016641,-0.00035904,-0.00011724,-0.00033344,0.0002
 2735,-0.00039093,0.00010894,0.00005775,-0.00013370,0.00013135,-0.00008
 499,-0.00036145,0.00003455,-0.00012065,-0.02710638,-0.05059678,-0.0037
 8325,-0.00843550,0.00250515,-0.00082120,-0.10249074,-0.05139742,-0.001
 43323,0.00120945,-0.00329957,-0.00570684,-0.00180770,-0.00807124,0.004
 45241,-0.28009700,0.05116101,-0.00258606,-0.03362254,0.00200703,-0.001
 37879,-0.00129568,0.00018017,0.00076233,-0.00232368,0.00583108,0.00041
 763,-0.00123228,0.00050897,-0.00087335,0.53548872,0.00040823,0.0009248
 3,0.00018769,-0.00027311,0.00003992,-0.00007668,0.00277662,-0.00245506
 ,0.00029853,0.00224399,0.00114744,0.00024828,0.00008410,0.00005191,0.0
 0010636,0.00003136,0.00005308,-0.00007594,-0.00000567,-0.00008744,-0.0
 0009529,-0.00003927,0.00001695,0.00001433,-0.00004094,0.00002918,-0.00
 002056,-0.00008145,0.00002241,-0.00001977,-0.00917113,-0.00218141,-0.0
 0078312,0.00066831,0.00076245,-0.00000471,-0.03974678,-0.22623135,-0.0
 1025547,-0.01543379,-0.02988640,-0.00346905,-0.01647867,-0.03138723,-0
 .00129052,0.00632941,-0.11656071,-0.00395435,0.02620215,0.00830967,0.0
 0032239,-0.00118318,-0.00022565,-0.00071063,0.00296043,-0.00501849,-0.
 00066241,-0.00188474,0.00029752,0.00067992,0.12750025,0.41832084,-0.00
 011828,-0.00013161,0.00020102,-0.00006265,0.00000715,-0.00003846,0.000
 23775,0.00009126,0.00016706,-0.00022901,-0.00018332,-0.00098008,-0.000
 08255,0.00012110,0.00000140,0.00000167,-0.00001442,-0.00005132,-0.0000
 1204,-0.00003005,-0.00000499,-0.00001949,0.00000114,0.00000794,0.00000
 139,-0.00000043,-0.00000469,-0.00001452,0.00000524,-0.00000536,-0.0023
 5235,-0.00322294,0.00243322,-0.00046590,0.00016632,0.00113227,-0.00050
 479,-0.01003748,-0.06527619,-0.01564599,-0.02588882,0.00466896,0.01382
 653,0.02279788,0.00943158,-0.00544282,-0.00255923,-0.05311561,0.000961
 75,-0.00058257,0.01859615,-0.00303834,0.00273556,-0.00034555,0.0001183
 0,-0.00065433,0.00204383,0.00253215,-0.00239110,-0.00046859,0.01945933
 ,0.02469740,0.06693786,0.00019545,-0.00036831,0.00022907,-0.00021401,0
 .00007954,-0.00006677,0.00002634,0.00038937,-0.00002938,0.00049752,-0.
 00033227,0.00002652,-0.00010389,0.00021235,-0.00002308,0.00004938,0.00
 004450,-0.00005430,-0.00005552,-0.00016731,0.00003638,-0.00011928,0.00
 003918,0.00002286,-0.00003405,0.00004212,-0.00002621,-0.00013784,0.000
 01550,-0.00004337,-0.00003411,-0.00363401,-0.00015557,-0.00130238,0.00
 026021,-0.00010160,0.00076360,0.01207077,0.00038734,-0.00140206,-0.002
 50287,-0.00093287,-0.00146809,-0.00253425,0.00060136,-0.19979949,-0.25
 125427,-0.02248076,0.01497076,0.01212443,0.00002435,0.00000910,0.00295
 678,0.00071016,0.00341233,-0.00158313,0.00000297,-0.00026343,0.0036467
 1,0.00021709,-0.07488883,-0.08486610,-0.00915015,0.25989849,0.00021279
 ,-0.00031923,0.00027776,-0.00027513,0.00008613,-0.00009008,-0.00051007
 ,0.00017609,-0.00008285,0.00029928,-0.00056344,-0.00002016,-0.00014759
 ,0.00023965,-0.00000387,0.00004786,0.00004368,-0.00006506,-0.00005336,
 -0.00017842,0.00002212,-0.00011698,0.00002957,0.00002166,-0.00004089,0
 .00004427,-0.00003326,-0.00013463,0.00002395,-0.00003743,0.00042055,-0
 .00216255,-0.00006467,-0.00096329,0.00013390,-0.00008613,0.00384951,0.
 01109436,0.00039994,-0.00101188,-0.00145940,-0.00010709,-0.00110109,-0
 .00146260,-0.00010622,-0.23180954,-0.72419413,-0.05642810,-0.01374304,
 -0.05379084,-0.00709971,0.00268933,-0.00480487,0.00151020,-0.00145929,
 0.00146752,0.00027226,0.00300004,-0.00456885,-0.00201488,-0.07451364,-
 0.01594245,-0.00492677,0.31536105,0.79610767,0.00002070,-0.00003557,0.
 00003691,-0.00001844,0.00000273,-0.00001591,-0.00003812,0.00007373,0.0
 0003039,0.00006138,-0.00005674,-0.00009967,-0.00001375,0.00003258,0.00
 000653,0.00000432,-0.00000441,-0.00000793,-0.00000856,-0.00002230,0.00
 000319,-0.00001765,0.00000303,0.00000424,-0.00000224,0.00000177,-0.000
 00459,-0.00001435,0.00000476,-0.00000576,0.00002587,-0.00020737,0.0003
 6035,-0.00008367,0.00001661,-0.00016784,0.00010894,0.00069872,0.006243
 97,0.00036781,0.00058609,-0.00017766,-0.00072239,-0.00102199,-0.000313
 02,-0.02100120,-0.05699027,-0.08421271,-0.00201914,-0.00669474,0.02916
 810,-0.00237527,0.00405044,-0.00085978,0.00016005,-0.00006385,-0.00049
 920,0.00308648,-0.00389914,-0.00159074,-0.00832671,-0.00513642,0.01466
 956,0.03080595,0.06866234,0.03743157\\0.00000291,0.00000077,0.00001357
 ,-0.00001299,0.00000558,0.00003295,-0.00001051,0.00000388,0.00000930,0
 .00000615,-0.00000712,0.00002956,-0.00000859,-0.00000351,-0.00000451,-
 0.00000938,-0.00000805,-0.00002322,0.00000184,-0.00000337,-0.00000161,
 -0.00000465,-0.00001450,-0.00000242,-0.00000264,0.00000844,0.00001412,
 -0.00000106,0.00001240,-0.00001743,0.00001845,0.00000256,-0.00000243,-
 0.00000235,0.00001310,-0.00002280,0.00000127,0.00001024,0.00000065,0.0
 0001704,0.00002661,-0.00002007,0.00000994,-0.00001076,-0.00003101,-0.0
 0001037,-0.00000600,0.00001490,0.00000436,-0.00000497,-0.00000193,0.00
 000115,0.00002133,-0.00001078,-0.00001075,-0.00000159,0.00000118,0.000
 00121,-0.00001009,-0.00001949,0.00001293,-0.00001178,0.00000607,-0.000
 00398,-0.00002316,0.00003540\\\@


 THE LENGTH OF A MEETING IS PROPORTIONAL TO THE
 SQUARE OF THE PARTICIPANTS.
 Job cpu time:       0 days  0 hours 18 minutes 27.5 seconds.
 File lengths (MBytes):  RWF=    133 Int=      0 D2E=      0 Chk=     11 Scr=      1
 Normal termination of Gaussian 09 at Sun Sep  6 02:59:28 2020.
