 Entering Gaussian System, Link 0=g09
 Input=m06-2x_TS2_scan2_diene_dienophile_pm6_cpcmtoluene_2_3_gd3.com
 Output=m06-2x_TS2_scan2_diene_dienophile_pm6_cpcmtoluene_2_3_gd3.log
 Initial command:
 /apps/applications/gaussian/G09.D01/2/default/g09/l1.exe "/local/725655.1.40core-192G.q/Gau-379470.inp" -scrdir="/local/725655.1.40core-192G.q/"
 Entering Link 1 = /apps/applications/gaussian/G09.D01/2/default/g09/l1.exe PID=    379471.
  
 Copyright (c) 1988,1990,1992,1993,1995,1998,2003,2009,2013,
            Gaussian, Inc.  All Rights Reserved.
  
 This is part of the Gaussian(R) 09 program.  It is based on
 the Gaussian(R) 03 system (copyright 2003, Gaussian, Inc.),
 the Gaussian(R) 98 system (copyright 1998, Gaussian, Inc.),
 the Gaussian(R) 94 system (copyright 1995, Gaussian, Inc.),
 the Gaussian 92(TM) system (copyright 1992, Gaussian, Inc.),
 the Gaussian 90(TM) system (copyright 1990, Gaussian, Inc.),
 the Gaussian 88(TM) system (copyright 1988, Gaussian, Inc.),
 the Gaussian 86(TM) system (copyright 1986, Carnegie Mellon
 University), and the Gaussian 82(TM) system (copyright 1983,
 Carnegie Mellon University). Gaussian is a federally registered
 trademark of Gaussian, Inc.
  
 This software contains proprietary and confidential information,
 including trade secrets, belonging to Gaussian, Inc.
  
 This software is provided under written license and may be
 used, copied, transmitted, or stored only in accord with that
 written license.
  
 The following legend is applicable only to US Government
 contracts under FAR:
  
                    RESTRICTED RIGHTS LEGEND
  
 Use, reproduction and disclosure by the US Government is
 subject to restrictions as set forth in subparagraphs (a)
 and (c) of the Commercial Computer Software - Restricted
 Rights clause in FAR 52.227-19.
  
 Gaussian, Inc.
 340 Quinnipiac St., Bldg. 40, Wallingford CT 06492
  
  
 ---------------------------------------------------------------
 Warning -- This program may not be used in any manner that
 competes with the business of Gaussian, Inc. or will provide
 assistance to any competitor of Gaussian, Inc.  The licensee
 of this program is prohibited from giving any competitor of
 Gaussian, Inc. access to this program.  By using this program,
 the user acknowledges that Gaussian, Inc. is engaged in the
 business of creating and licensing software in the field of
 computational chemistry and represents and warrants to the
 licensee that it is not a competitor of Gaussian, Inc. and that
 it will not use this program in any manner prohibited above.
 ---------------------------------------------------------------
  

 Cite this work as:
 Gaussian 09, Revision D.01,
 M. J. Frisch, G. W. Trucks, H. B. Schlegel, G. E. Scuseria, 
 M. A. Robb, J. R. Cheeseman, G. Scalmani, V. Barone, B. Mennucci, 
 G. A. Petersson, H. Nakatsuji, M. Caricato, X. Li, H. P. Hratchian, 
 A. F. Izmaylov, J. Bloino, G. Zheng, J. L. Sonnenberg, M. Hada, 
 M. Ehara, K. Toyota, R. Fukuda, J. Hasegawa, M. Ishida, T. Nakajima, 
 Y. Honda, O. Kitao, H. Nakai, T. Vreven, J. A. Montgomery, Jr., 
 J. E. Peralta, F. Ogliaro, M. Bearpark, J. J. Heyd, E. Brothers, 
 K. N. Kudin, V. N. Staroverov, T. Keith, R. Kobayashi, J. Normand, 
 K. Raghavachari, A. Rendell, J. C. Burant, S. S. Iyengar, J. Tomasi, 
 M. Cossi, N. Rega, J. M. Millam, M. Klene, J. E. Knox, J. B. Cross, 
 V. Bakken, C. Adamo, J. Jaramillo, R. Gomperts, R. E. Stratmann, 
 O. Yazyev, A. J. Austin, R. Cammi, C. Pomelli, J. W. Ochterski, 
 R. L. Martin, K. Morokuma, V. G. Zakrzewski, G. A. Voth, 
 P. Salvador, J. J. Dannenberg, S. Dapprich, A. D. Daniels, 
 O. Farkas, J. B. Foresman, J. V. Ortiz, J. Cioslowski, 
 and D. J. Fox, Gaussian, Inc., Wallingford CT, 2013.
 
 ******************************************
 Gaussian 09:  ES64L-G09RevD.01 24-Apr-2013
                 6-Sep-2020 
 ******************************************
 %nprocshared=4
 Will use up to    4 processors via shared memory.
 ----------------------------------------------------------------------
 # opt=(calcfc,ts,noeigentest) scrf=(cpcm,solvent=toluene) geom=connect
 ivity def2svp m062x empiricaldispersion=gd3
 ----------------------------------------------------------------------
 1/5=1,10=4,11=1,14=-1,18=20,26=3,38=1,57=2/1,3;
 2/9=110,12=2,17=6,18=5,40=1/2;
 3/5=43,7=101,11=2,16=1,25=1,30=1,70=2101,71=2,72=13,74=-55,124=31,140=1/1,2,3;
 4//1;
 5/5=2,38=5,53=13/2;
 8/6=4,10=90,11=11/1;
 11/6=1,8=1,9=11,15=111,16=1/1,2,10;
 10/6=1,13=1/2;
 6/7=2,8=2,9=2,10=2,28=1/1;
 7/10=1,18=20,25=1/1,2,3,16;
 1/5=1,10=4,11=1,14=-1,18=20,26=3/3(2);
 2/9=110/2;
 99//99;
 2/9=110/2;
 3/5=43,7=101,11=2,16=1,25=1,30=1,70=2105,71=1,72=13,74=-55,124=31/1,2,3;
 4/5=5,16=3,69=1/1;
 5/5=2,38=5,53=13/2;
 7//1,2,3,16;
 1/5=1,11=1,14=-1,18=20,26=3/3(-5);
 2/9=110/2;
 6/7=2,8=2,9=2,10=2,19=2,28=1/1;
 99/9=1/99;
 -------------------
 Title Card Required
 -------------------
 Symbolic Z-matrix:
 Charge =  0 Multiplicity = 1
 C                    -2.4382    0.79254  -0.6063 
 C                    -1.47968  -0.22792  -1.12526 
 C                    -0.19994   0.20964  -0.82662 
 C                    -0.31923   1.52307  -0.12571 
 H                    -1.76904  -0.897    -1.93099 
 H                     0.71596  -0.05306  -1.35111 
 C                    -2.23618   2.91503   0.71107 
 H                    -2.78604   2.64103   1.62151 
 H                    -1.4055    3.58125   0.97053 
 H                    -2.9232    3.42596   0.02374 
 N                    -1.67633   1.74574   0.07342 
 O                     0.56216   2.27322   0.22875 
 O                    -3.63884   0.84004  -0.7113 
 C                    -0.97691  -2.63869   0.26745 
 H                    -1.07464  -3.59962  -0.24664 
 C                     0.31947  -2.17754   0.56188 
 H                     1.17359  -2.77811   0.23875 
 C                    -2.10396  -1.8499    0.39187 
 H                    -2.08029  -1.02085   1.1059 
 C                    -3.46668  -2.3073   -0.02729 
 H                    -4.03287  -1.47934  -0.4775 
 H                    -3.404    -3.13717  -0.74405 
 H                    -4.03808  -2.64868   0.85041 
 C                     0.56378  -0.89677   1.01216 
 H                    -0.20388  -0.37244   1.58874 
 C                     1.95217  -0.36003   1.19601 
 H                     2.35054  -0.67302   2.17703 
 H                     1.91682   0.73604   1.18022 
 C                     3.77854  -0.15213  -0.39702 
 C                     3.92058   1.29269   0.01087 
 H                     4.13575   1.37501   1.08561 
 H                     4.74825   1.72044  -0.56204 
 H                     2.99244   1.84844  -0.18919 
 O                     2.79094  -0.8763    0.17524 
 O                     4.47774  -0.6901   -1.20688 
 
 Add virtual bond connecting atoms C18        and C2         Dist= 4.36D+00.
 Add virtual bond connecting atoms H21        and O13        Dist= 4.47D+00.
 Add virtual bond connecting atoms C24        and C3         Dist= 4.30D+00.
 Add virtual bond connecting atoms H28        and O12        Dist= 4.27D+00.

 GradGradGradGradGradGradGradGradGradGradGradGradGradGradGradGradGradGrad
 Berny optimization.
 Initialization pass.
                           ----------------------------
                           !    Initial Parameters    !
                           ! (Angstroms and Degrees)  !
 --------------------------                            --------------------------
 ! Name  Definition              Value          Derivative Info.                !
 --------------------------------------------------------------------------------
 ! R1    R(1,2)                  1.4931         calculate D2E/DX2 analytically  !
 ! R2    R(1,11)                 1.3968         calculate D2E/DX2 analytically  !
 ! R3    R(1,13)                 1.2062         calculate D2E/DX2 analytically  !
 ! R4    R(2,3)                  1.3851         calculate D2E/DX2 analytically  !
 ! R5    R(2,5)                  1.0865         calculate D2E/DX2 analytically  !
 ! R6    R(2,18)                 2.307          calculate D2E/DX2 analytically  !
 ! R7    R(3,4)                  1.4935         calculate D2E/DX2 analytically  !
 ! R8    R(3,6)                  1.0876         calculate D2E/DX2 analytically  !
 ! R9    R(3,24)                 2.2778         calculate D2E/DX2 analytically  !
 ! R10   R(4,11)                 1.3896         calculate D2E/DX2 analytically  !
 ! R11   R(4,12)                 1.2105         calculate D2E/DX2 analytically  !
 ! R12   R(7,8)                  1.0983         calculate D2E/DX2 analytically  !
 ! R13   R(7,9)                  1.096          calculate D2E/DX2 analytically  !
 ! R14   R(7,10)                 1.0979         calculate D2E/DX2 analytically  !
 ! R15   R(7,11)                 1.4447         calculate D2E/DX2 analytically  !
 ! R16   R(12,28)                2.2591         calculate D2E/DX2 analytically  !
 ! R17   R(13,21)                2.3642         calculate D2E/DX2 analytically  !
 ! R18   R(14,15)                1.0942         calculate D2E/DX2 analytically  !
 ! R19   R(14,16)                1.4071         calculate D2E/DX2 analytically  !
 ! R20   R(14,18)                1.3813         calculate D2E/DX2 analytically  !
 ! R21   R(16,17)                1.093          calculate D2E/DX2 analytically  !
 ! R22   R(16,24)                1.3794         calculate D2E/DX2 analytically  !
 ! R23   R(18,19)                1.0944         calculate D2E/DX2 analytically  !
 ! R24   R(18,20)                1.4973         calculate D2E/DX2 analytically  !
 ! R25   R(20,21)                1.0994         calculate D2E/DX2 analytically  !
 ! R26   R(20,22)                1.0983         calculate D2E/DX2 analytically  !
 ! R27   R(20,23)                1.1015         calculate D2E/DX2 analytically  !
 ! R28   R(24,25)                1.0939         calculate D2E/DX2 analytically  !
 ! R29   R(24,26)                1.4998         calculate D2E/DX2 analytically  !
 ! R30   R(26,27)                1.1041         calculate D2E/DX2 analytically  !
 ! R31   R(26,28)                1.0968         calculate D2E/DX2 analytically  !
 ! R32   R(26,34)                1.4185         calculate D2E/DX2 analytically  !
 ! R33   R(29,30)                1.508          calculate D2E/DX2 analytically  !
 ! R34   R(29,34)                1.3518         calculate D2E/DX2 analytically  !
 ! R35   R(29,35)                1.1976         calculate D2E/DX2 analytically  !
 ! R36   R(30,31)                1.0992         calculate D2E/DX2 analytically  !
 ! R37   R(30,32)                1.0937         calculate D2E/DX2 analytically  !
 ! R38   R(30,33)                1.1002         calculate D2E/DX2 analytically  !
 ! A1    A(2,1,11)             106.5814         calculate D2E/DX2 analytically  !
 ! A2    A(2,1,13)             129.4705         calculate D2E/DX2 analytically  !
 ! A3    A(11,1,13)            123.9471         calculate D2E/DX2 analytically  !
 ! A4    A(1,2,3)              107.5952         calculate D2E/DX2 analytically  !
 ! A5    A(1,2,5)              120.506          calculate D2E/DX2 analytically  !
 ! A6    A(1,2,18)              94.4864         calculate D2E/DX2 analytically  !
 ! A7    A(3,2,5)              126.9047         calculate D2E/DX2 analytically  !
 ! A8    A(3,2,18)             109.2896         calculate D2E/DX2 analytically  !
 ! A9    A(5,2,18)              89.0063         calculate D2E/DX2 analytically  !
 ! A10   A(2,3,4)              107.771          calculate D2E/DX2 analytically  !
 ! A11   A(2,3,6)              126.7114         calculate D2E/DX2 analytically  !
 ! A12   A(2,3,24)             109.2926         calculate D2E/DX2 analytically  !
 ! A13   A(4,3,6)              120.3961         calculate D2E/DX2 analytically  !
 ! A14   A(4,3,24)              94.3068         calculate D2E/DX2 analytically  !
 ! A15   A(6,3,24)              89.4052         calculate D2E/DX2 analytically  !
 ! A16   A(3,4,11)             106.629          calculate D2E/DX2 analytically  !
 ! A17   A(3,4,12)             128.6279         calculate D2E/DX2 analytically  !
 ! A18   A(11,4,12)            124.7402         calculate D2E/DX2 analytically  !
 ! A19   A(8,7,9)              109.5636         calculate D2E/DX2 analytically  !
 ! A20   A(8,7,10)             108.7695         calculate D2E/DX2 analytically  !
 ! A21   A(8,7,11)             110.9743         calculate D2E/DX2 analytically  !
 ! A22   A(9,7,10)             109.8517         calculate D2E/DX2 analytically  !
 ! A23   A(9,7,11)             107.6232         calculate D2E/DX2 analytically  !
 ! A24   A(10,7,11)            110.048          calculate D2E/DX2 analytically  !
 ! A25   A(1,11,4)             110.708          calculate D2E/DX2 analytically  !
 ! A26   A(1,11,7)             123.7605         calculate D2E/DX2 analytically  !
 ! A27   A(4,11,7)             124.8469         calculate D2E/DX2 analytically  !
 ! A28   A(4,12,28)             97.9484         calculate D2E/DX2 analytically  !
 ! A29   A(1,13,21)             96.8145         calculate D2E/DX2 analytically  !
 ! A30   A(15,14,16)           117.9315         calculate D2E/DX2 analytically  !
 ! A31   A(15,14,18)           118.0969         calculate D2E/DX2 analytically  !
 ! A32   A(16,14,18)           123.0753         calculate D2E/DX2 analytically  !
 ! A33   A(14,16,17)           118.5564         calculate D2E/DX2 analytically  !
 ! A34   A(14,16,24)           122.3958         calculate D2E/DX2 analytically  !
 ! A35   A(17,16,24)           117.9225         calculate D2E/DX2 analytically  !
 ! A36   A(2,18,14)             96.9764         calculate D2E/DX2 analytically  !
 ! A37   A(2,18,19)             83.7191         calculate D2E/DX2 analytically  !
 ! A38   A(2,18,20)            106.0785         calculate D2E/DX2 analytically  !
 ! A39   A(14,18,19)           118.2761         calculate D2E/DX2 analytically  !
 ! A40   A(14,18,20)           122.8842         calculate D2E/DX2 analytically  !
 ! A41   A(19,18,20)           115.7057         calculate D2E/DX2 analytically  !
 ! A42   A(18,20,21)           110.6879         calculate D2E/DX2 analytically  !
 ! A43   A(18,20,22)           111.196          calculate D2E/DX2 analytically  !
 ! A44   A(18,20,23)           110.1031         calculate D2E/DX2 analytically  !
 ! A45   A(21,20,22)           109.3393         calculate D2E/DX2 analytically  !
 ! A46   A(21,20,23)           107.0094         calculate D2E/DX2 analytically  !
 ! A47   A(22,20,23)           108.386          calculate D2E/DX2 analytically  !
 ! A48   A(13,21,20)           133.9045         calculate D2E/DX2 analytically  !
 ! A49   A(3,24,16)             97.3603         calculate D2E/DX2 analytically  !
 ! A50   A(3,24,25)             87.5575         calculate D2E/DX2 analytically  !
 ! A51   A(3,24,26)            103.6208         calculate D2E/DX2 analytically  !
 ! A52   A(16,24,25)           119.5245         calculate D2E/DX2 analytically  !
 ! A53   A(16,24,26)           122.4275         calculate D2E/DX2 analytically  !
 ! A54   A(25,24,26)           114.4228         calculate D2E/DX2 analytically  !
 ! A55   A(24,26,27)           109.966          calculate D2E/DX2 analytically  !
 ! A56   A(24,26,28)           109.0285         calculate D2E/DX2 analytically  !
 ! A57   A(24,26,34)           109.2035         calculate D2E/DX2 analytically  !
 ! A58   A(27,26,28)           107.9219         calculate D2E/DX2 analytically  !
 ! A59   A(27,26,34)           108.8369         calculate D2E/DX2 analytically  !
 ! A60   A(28,26,34)           111.8658         calculate D2E/DX2 analytically  !
 ! A61   A(12,28,26)           134.8634         calculate D2E/DX2 analytically  !
 ! A62   A(30,29,34)           117.8777         calculate D2E/DX2 analytically  !
 ! A63   A(30,29,35)           123.9399         calculate D2E/DX2 analytically  !
 ! A64   A(34,29,35)           118.1769         calculate D2E/DX2 analytically  !
 ! A65   A(29,30,31)           110.7739         calculate D2E/DX2 analytically  !
 ! A66   A(29,30,32)           107.7165         calculate D2E/DX2 analytically  !
 ! A67   A(29,30,33)           110.8146         calculate D2E/DX2 analytically  !
 ! A68   A(31,30,32)           109.5569         calculate D2E/DX2 analytically  !
 ! A69   A(31,30,33)           107.7658         calculate D2E/DX2 analytically  !
 ! A70   A(32,30,33)           110.2186         calculate D2E/DX2 analytically  !
 ! A71   A(26,34,29)           122.799          calculate D2E/DX2 analytically  !
 ! D1    D(11,1,2,3)            -4.5131         calculate D2E/DX2 analytically  !
 ! D2    D(11,1,2,5)          -161.1509         calculate D2E/DX2 analytically  !
 ! D3    D(11,1,2,18)          107.357          calculate D2E/DX2 analytically  !
 ! D4    D(13,1,2,3)           175.8433         calculate D2E/DX2 analytically  !
 ! D5    D(13,1,2,5)            19.2055         calculate D2E/DX2 analytically  !
 ! D6    D(13,1,2,18)          -72.2866         calculate D2E/DX2 analytically  !
 ! D7    D(2,1,11,4)             8.2683         calculate D2E/DX2 analytically  !
 ! D8    D(2,1,11,7)           179.1788         calculate D2E/DX2 analytically  !
 ! D9    D(13,1,11,4)         -172.0634         calculate D2E/DX2 analytically  !
 ! D10   D(13,1,11,7)           -1.1528         calculate D2E/DX2 analytically  !
 ! D11   D(2,1,13,21)           37.9347         calculate D2E/DX2 analytically  !
 ! D12   D(11,1,13,21)        -141.6535         calculate D2E/DX2 analytically  !
 ! D13   D(1,2,3,4)             -0.6069         calculate D2E/DX2 analytically  !
 ! D14   D(1,2,3,6)           -155.0004         calculate D2E/DX2 analytically  !
 ! D15   D(1,2,3,24)           100.6814         calculate D2E/DX2 analytically  !
 ! D16   D(5,2,3,4)            154.0994         calculate D2E/DX2 analytically  !
 ! D17   D(5,2,3,6)             -0.2941         calculate D2E/DX2 analytically  !
 ! D18   D(5,2,3,24)          -104.6123         calculate D2E/DX2 analytically  !
 ! D19   D(18,2,3,4)          -102.023          calculate D2E/DX2 analytically  !
 ! D20   D(18,2,3,6)           103.5835         calculate D2E/DX2 analytically  !
 ! D21   D(18,2,3,24)           -0.7348         calculate D2E/DX2 analytically  !
 ! D22   D(1,2,18,14)         -161.0453         calculate D2E/DX2 analytically  !
 ! D23   D(1,2,18,19)          -43.2271         calculate D2E/DX2 analytically  !
 ! D24   D(1,2,18,20)           71.7596         calculate D2E/DX2 analytically  !
 ! D25   D(3,2,18,14)          -50.6365         calculate D2E/DX2 analytically  !
 ! D26   D(3,2,18,19)           67.1817         calculate D2E/DX2 analytically  !
 ! D27   D(3,2,18,20)         -177.8316         calculate D2E/DX2 analytically  !
 ! D28   D(5,2,18,14)           78.4303         calculate D2E/DX2 analytically  !
 ! D29   D(5,2,18,19)         -163.7515         calculate D2E/DX2 analytically  !
 ! D30   D(5,2,18,20)          -48.7647         calculate D2E/DX2 analytically  !
 ! D31   D(2,3,4,11)             5.5471         calculate D2E/DX2 analytically  !
 ! D32   D(2,3,4,12)          -175.0507         calculate D2E/DX2 analytically  !
 ! D33   D(6,3,4,11)           161.864          calculate D2E/DX2 analytically  !
 ! D34   D(6,3,4,12)           -18.7338         calculate D2E/DX2 analytically  !
 ! D35   D(24,3,4,11)         -106.2961         calculate D2E/DX2 analytically  !
 ! D36   D(24,3,4,12)           73.1061         calculate D2E/DX2 analytically  !
 ! D37   D(2,3,24,16)           52.5129         calculate D2E/DX2 analytically  !
 ! D38   D(2,3,24,25)          -66.9481         calculate D2E/DX2 analytically  !
 ! D39   D(2,3,24,26)          178.5022         calculate D2E/DX2 analytically  !
 ! D40   D(4,3,24,16)          163.04           calculate D2E/DX2 analytically  !
 ! D41   D(4,3,24,25)           43.579          calculate D2E/DX2 analytically  !
 ! D42   D(4,3,24,26)          -70.9707         calculate D2E/DX2 analytically  !
 ! D43   D(6,3,24,16)          -76.5188         calculate D2E/DX2 analytically  !
 ! D44   D(6,3,24,25)          164.0201         calculate D2E/DX2 analytically  !
 ! D45   D(6,3,24,26)           49.4704         calculate D2E/DX2 analytically  !
 ! D46   D(3,4,11,1)            -8.629          calculate D2E/DX2 analytically  !
 ! D47   D(3,4,11,7)          -179.4202         calculate D2E/DX2 analytically  !
 ! D48   D(12,4,11,1)          171.9394         calculate D2E/DX2 analytically  !
 ! D49   D(12,4,11,7)            1.1482         calculate D2E/DX2 analytically  !
 ! D50   D(3,4,12,28)          -46.2573         calculate D2E/DX2 analytically  !
 ! D51   D(11,4,12,28)         133.0456         calculate D2E/DX2 analytically  !
 ! D52   D(8,7,11,1)            72.0803         calculate D2E/DX2 analytically  !
 ! D53   D(8,7,11,4)          -118.2928         calculate D2E/DX2 analytically  !
 ! D54   D(9,7,11,1)          -168.0486         calculate D2E/DX2 analytically  !
 ! D55   D(9,7,11,4)             1.5783         calculate D2E/DX2 analytically  !
 ! D56   D(10,7,11,1)          -48.3648         calculate D2E/DX2 analytically  !
 ! D57   D(10,7,11,4)          121.2621         calculate D2E/DX2 analytically  !
 ! D58   D(4,12,28,26)          10.9512         calculate D2E/DX2 analytically  !
 ! D59   D(1,13,21,20)          22.6535         calculate D2E/DX2 analytically  !
 ! D60   D(15,14,16,17)          1.9385         calculate D2E/DX2 analytically  !
 ! D61   D(15,14,16,24)        169.5523         calculate D2E/DX2 analytically  !
 ! D62   D(18,14,16,17)       -167.0054         calculate D2E/DX2 analytically  !
 ! D63   D(18,14,16,24)          0.6084         calculate D2E/DX2 analytically  !
 ! D64   D(15,14,18,2)        -108.3342         calculate D2E/DX2 analytically  !
 ! D65   D(15,14,18,19)        165.0672         calculate D2E/DX2 analytically  !
 ! D66   D(15,14,18,20)          5.9569         calculate D2E/DX2 analytically  !
 ! D67   D(16,14,18,2)          60.5925         calculate D2E/DX2 analytically  !
 ! D68   D(16,14,18,19)        -26.0061         calculate D2E/DX2 analytically  !
 ! D69   D(16,14,18,20)        174.8836         calculate D2E/DX2 analytically  !
 ! D70   D(14,16,24,3)         -62.4547         calculate D2E/DX2 analytically  !
 ! D71   D(14,16,24,25)         28.9074         calculate D2E/DX2 analytically  !
 ! D72   D(14,16,24,26)       -173.7627         calculate D2E/DX2 analytically  !
 ! D73   D(17,16,24,3)         105.2336         calculate D2E/DX2 analytically  !
 ! D74   D(17,16,24,25)       -163.4042         calculate D2E/DX2 analytically  !
 ! D75   D(17,16,24,26)         -6.0743         calculate D2E/DX2 analytically  !
 ! D76   D(2,18,20,21)         -32.6077         calculate D2E/DX2 analytically  !
 ! D77   D(2,18,20,22)          89.1356         calculate D2E/DX2 analytically  !
 ! D78   D(2,18,20,23)        -150.7195         calculate D2E/DX2 analytically  !
 ! D79   D(14,18,20,21)       -142.2943         calculate D2E/DX2 analytically  !
 ! D80   D(14,18,20,22)        -20.551          calculate D2E/DX2 analytically  !
 ! D81   D(14,18,20,23)         99.5939         calculate D2E/DX2 analytically  !
 ! D82   D(19,18,20,21)         58.1021         calculate D2E/DX2 analytically  !
 ! D83   D(19,18,20,22)        179.8454         calculate D2E/DX2 analytically  !
 ! D84   D(19,18,20,23)        -60.0097         calculate D2E/DX2 analytically  !
 ! D85   D(18,20,21,13)         -7.2327         calculate D2E/DX2 analytically  !
 ! D86   D(22,20,21,13)       -130.0612         calculate D2E/DX2 analytically  !
 ! D87   D(23,20,21,13)        112.7493         calculate D2E/DX2 analytically  !
 ! D88   D(3,24,26,27)         168.621          calculate D2E/DX2 analytically  !
 ! D89   D(3,24,26,28)          50.4815         calculate D2E/DX2 analytically  !
 ! D90   D(3,24,26,34)         -72.0185         calculate D2E/DX2 analytically  !
 ! D91   D(16,24,26,27)        -83.3135         calculate D2E/DX2 analytically  !
 ! D92   D(16,24,26,28)        158.5471         calculate D2E/DX2 analytically  !
 ! D93   D(16,24,26,34)         36.047          calculate D2E/DX2 analytically  !
 ! D94   D(25,24,26,27)         75.0737         calculate D2E/DX2 analytically  !
 ! D95   D(25,24,26,28)        -43.0658         calculate D2E/DX2 analytically  !
 ! D96   D(25,24,26,34)       -165.5658         calculate D2E/DX2 analytically  !
 ! D97   D(24,26,28,12)        -27.7096         calculate D2E/DX2 analytically  !
 ! D98   D(27,26,28,12)       -147.1265         calculate D2E/DX2 analytically  !
 ! D99   D(34,26,28,12)         93.1751         calculate D2E/DX2 analytically  !
 ! D100  D(24,26,34,29)        143.4821         calculate D2E/DX2 analytically  !
 ! D101  D(27,26,34,29)        -96.4606         calculate D2E/DX2 analytically  !
 ! D102  D(28,26,34,29)         22.6989         calculate D2E/DX2 analytically  !
 ! D103  D(34,29,30,31)         61.3203         calculate D2E/DX2 analytically  !
 ! D104  D(34,29,30,32)       -178.8762         calculate D2E/DX2 analytically  !
 ! D105  D(34,29,30,33)        -58.24           calculate D2E/DX2 analytically  !
 ! D106  D(35,29,30,31)       -119.5499         calculate D2E/DX2 analytically  !
 ! D107  D(35,29,30,32)          0.2536         calculate D2E/DX2 analytically  !
 ! D108  D(35,29,30,33)        120.8899         calculate D2E/DX2 analytically  !
 ! D109  D(30,29,34,26)         -4.2795         calculate D2E/DX2 analytically  !
 ! D110  D(35,29,34,26)        176.5394         calculate D2E/DX2 analytically  !
 --------------------------------------------------------------------------------
 Trust Radius=3.00D-01 FncErr=1.00D-07 GrdErr=1.00D-06
 Number of steps in this run=    210 maximum allowed number of steps=    210.
 Search for a saddle point of order  1.
 GradGradGradGradGradGradGradGradGradGradGradGradGradGradGradGradGradGrad

                          Input orientation:                          
 ---------------------------------------------------------------------
 Center     Atomic      Atomic             Coordinates (Angstroms)
 Number     Number       Type             X           Y           Z
 ---------------------------------------------------------------------
      1          6           0       -2.438199    0.792537   -0.606303
      2          6           0       -1.479682   -0.227921   -1.125264
      3          6           0       -0.199938    0.209643   -0.826621
      4          6           0       -0.319230    1.523072   -0.125709
      5          1           0       -1.769039   -0.896996   -1.930989
      6          1           0        0.715959   -0.053055   -1.351108
      7          6           0       -2.236179    2.915033    0.711073
      8          1           0       -2.786035    2.641031    1.621511
      9          1           0       -1.405496    3.581254    0.970531
     10          1           0       -2.923195    3.425962    0.023741
     11          7           0       -1.676326    1.745738    0.073418
     12          8           0        0.562156    2.273216    0.228745
     13          8           0       -3.638841    0.840043   -0.711298
     14          6           0       -0.976913   -2.638693    0.267452
     15          1           0       -1.074638   -3.599620   -0.246639
     16          6           0        0.319468   -2.177544    0.561884
     17          1           0        1.173594   -2.778111    0.238746
     18          6           0       -2.103961   -1.849902    0.391874
     19          1           0       -2.080286   -1.020848    1.105896
     20          6           0       -3.466678   -2.307300   -0.027291
     21          1           0       -4.032871   -1.479341   -0.477499
     22          1           0       -3.403995   -3.137171   -0.744048
     23          1           0       -4.038076   -2.648681    0.850413
     24          6           0        0.563776   -0.896771    1.012158
     25          1           0       -0.203883   -0.372442    1.588739
     26          6           0        1.952168   -0.360033    1.196010
     27          1           0        2.350535   -0.673024    2.177033
     28          1           0        1.916818    0.736037    1.180221
     29          6           0        3.778536   -0.152130   -0.397022
     30          6           0        3.920577    1.292687    0.010872
     31          1           0        4.135750    1.375014    1.085614
     32          1           0        4.748249    1.720442   -0.562037
     33          1           0        2.992437    1.848441   -0.189189
     34          8           0        2.790942   -0.876299    0.175242
     35          8           0        4.477742   -0.690102   -1.206882
 ---------------------------------------------------------------------
                    Distance matrix (angstroms):
                    1          2          3          4          5
     1  C    0.000000
     2  C    1.493121   0.000000
     3  C    2.323385   1.385061   0.000000
     4  C    2.292309   2.326314   1.493521   0.000000
     5  H    2.248797   1.086546   2.215030   3.349285   0.000000
     6  H    3.349399   2.214142   1.087642   2.248865   2.687697
     7  C    2.506248   3.717873   3.718859   2.512460   4.661574
     8  H    2.915660   4.181174   4.311948   3.223001   5.115875
     9  H    3.365980   4.348296   4.006356   2.572514   5.348430
    10  H    2.750837   4.093263   4.299297   3.228616   4.882726
    11  N    1.396805   2.317507   2.312873   1.389583   3.318175
    12  O    3.448456   3.501161   2.439860   1.210452   4.488782
    13  O    1.206160   2.444153   3.498108   3.439369   2.828623
    14  C    3.830423   2.829179   3.148603   4.231715   2.914466
    15  H    4.612993   3.507762   3.951198   5.179502   3.259356
    16  C    4.217911   3.143953   2.810052   3.817758   3.495151
    17  H    5.148658   3.924776   3.456627   4.567442   4.111622
    18  C    2.844390   2.307001   3.058065   3.850988   2.532962
    19  H    2.519542   2.442854   2.963855   3.330120   3.055304
    20  C    3.316928   3.078557   4.200657   4.958615   2.914619
    21  H    2.778669   2.916235   4.203086   4.788462   2.752580
    22  H    4.048993   3.508852   4.634001   5.622809   3.016669
    23  H    4.064924   4.038410   5.070874   5.673284   3.994136
    24  C    3.805921   3.031774   2.277832   2.816040   3.755548
    25  H    3.341789   3.002393   2.484513   2.558439   3.887590
    26  C    4.883858   4.145282   3.007844   3.232998   4.890177
    27  H    5.729468   5.076795   4.038063   4.153686   5.822104
    28  H    4.707551   4.216715   2.963977   2.706435   5.092344
    29  C    6.291581   5.308949   4.017921   4.435268   5.803746
    30  C    6.408205   5.724146   4.342007   4.248258   6.398224
    31  H    6.813125   6.244234   4.879849   4.619099   7.009169
    32  H    7.246241   6.549845   5.180451   5.090057   7.155421
    33  H    5.548038   5.018701   3.644617   3.328218   5.765670
    34  O    5.544343   4.511091   3.335920   3.939635   5.022954
    35  O    7.098532   5.975883   4.778580   5.392403   6.292012
                    6          7          8          9         10
     6  H    0.000000
     7  C    4.666611   0.000000
     8  H    5.325272   1.098324   0.000000
     9  H    4.806119   1.095994   1.792675   0.000000
    10  H    5.218928   1.097937   1.785441   1.795533   0.000000
    11  N    3.314809   1.444746   2.104660   2.060893   2.092917
    12  O    2.816226   2.911228   3.644924   2.476462   3.676754
    13  O    4.491243   2.880310   3.068034   3.915433   2.781979
    14  C    3.488707   5.711954   5.742986   6.274213   6.373967
    15  H    4.123616   6.686336   6.735324   7.290811   7.269737
    16  C    2.886208   5.699818   5.829719   6.025467   6.496441
    17  H    3.187945   6.652934   6.852576   6.901358   7.437770
    18  C    3.770755   4.777444   4.705923   5.506374   5.351767
    19  H    3.846099   3.958705   3.764744   4.653279   4.653566
    20  C    4.932399   5.415909   5.260019   6.318163   5.759190
    21  H    5.034766   4.894009   4.789354   5.882985   5.054169
    22  H    5.182115   6.333273   6.274182   7.216025   6.625359
    23  H    5.846778   5.849886   5.490287   6.764392   6.231182
    24  C    2.513969   4.739225   4.910050   4.892083   5.641095
    25  H    3.096905   3.963334   3.968577   4.178249   4.926637
    26  C    2.847852   5.338864   5.624767   5.182518   6.283083
    27  H    3.937509   6.005093   6.138071   5.801922   7.017876
    28  H    2.910731   4.713333   5.093188   4.379155   5.656754
    29  C    3.209279   6.841941   7.414163   6.533188   7.608744
    30  C    3.733040   6.405305   7.027861   5.875844   7.168559
    31  H    4.435309   6.566081   7.056989   5.965412   7.427157
    32  H    4.475186   7.199312   7.898152   6.609082   7.880545
    33  H    3.185607   5.411702   6.107174   4.867176   6.126060
    34  O    2.704261   6.319277   6.750258   6.173520   7.154283
    35  O    3.818068   7.858262   8.476952   7.589341   8.557470
                   11         12         13         14         15
    11  N    0.000000
    12  O    2.305030   0.000000
    13  O    2.299462   4.537184   0.000000
    14  C    4.444104   5.147532   4.488365   0.000000
    15  H    5.388628   6.115169   5.147976   1.094176   0.000000
    16  C    4.428762   4.469804   5.137610   1.407108   2.149312
    17  H    5.349260   5.088208   6.095339   2.155213   2.442340
    18  C    3.634957   4.912728   3.287651   1.381271   2.128078
    19  H    2.980469   4.313091   3.032194   2.130221   3.080705
    20  C    4.432000   6.105586   3.225411   2.528957   2.727647
    21  H    4.032115   5.974507   2.364205   3.352302   3.646920
    22  H    5.243652   6.778567   3.984276   2.676255   2.426351
    23  H    5.049010   6.765625   3.843114   3.116194   3.299966
    24  C    3.589170   3.265357   4.863005   2.441844   3.402112
    25  H    2.991818   3.071792   4.308042   2.734825   3.813332
    26  C    4.342862   3.130772   6.028050   3.825445   4.662372
    27  H    5.146962   3.959098   6.819417   4.310715   5.115756
    28  H    3.892967   2.259056   5.869754   4.538241   5.457349
    29  C    5.794716   4.076639   7.490037   5.407293   5.954922
    30  C    5.615558   3.505410   7.607313   6.285459   6.996653
    31  H    5.911193   3.783063   7.997459   6.551226   7.325983
    32  H    6.455975   4.295843   8.434492   7.243452   7.893576
    33  H    4.677270   2.502273   6.727801   6.008214   6.798953
    34  O    5.180920   3.858730   6.713709   4.160681   4.747333
    35  O    6.741293   5.116062   8.274410   5.976950   6.341631
                   16         17         18         19         20
    16  C    0.000000
    17  H    1.092991   0.000000
    18  C    2.451379   3.409895   0.000000
    19  H    2.718955   3.798376   1.094403   0.000000
    20  C    3.833910   4.671677   1.497301   2.204803   0.000000
    21  H    4.528870   5.413602   2.147980   2.555375   1.099444
    22  H    4.060852   4.695650   2.153478   3.106979   1.098342
    23  H    4.392426   5.249037   2.142220   2.558916   1.101545
    24  C    1.379425   2.123555   2.900005   2.648631   4.394839
    25  H    2.141663   3.083369   2.688061   2.043149   4.123234
    26  C    2.524118   2.714707   4.395285   4.087234   5.886612
    27  H    2.999587   3.094113   4.941090   4.571705   6.431941
    28  H    3.379767   3.713219   4.845125   4.366808   6.300953
    29  C    4.121523   3.753092   6.173213   6.110583   7.567997
    30  C    5.031312   4.916222   6.805592   6.523947   8.217840
    31  H    5.240131   5.171073   7.057999   6.661807   8.520264
    32  H    6.005963   5.801413   7.785248   7.544903   9.164807
    33  H    4.890545   4.989619   6.323658   5.970141   7.682224
    34  O    2.819737   2.497346   4.995489   4.961439   6.422351
    35  O    4.757337   4.167375   6.871679   6.961757   8.192715
                   21         22         23         24         25
    21  H    0.000000
    22  H    1.793024   0.000000
    23  H    1.769388   1.784093   0.000000
    24  C    4.866994   4.883325   4.926702   0.000000
    25  H    4.489512   4.829735   4.519671   1.093923   0.000000
    26  C    6.314600   6.337571   6.421867   1.499841   2.191562
    27  H    6.960213   6.907919   6.817440   2.144645   2.638464
    28  H    6.561611   6.856792   6.857540   2.127212   2.427547
    29  C    7.923765   7.785862   8.299897   3.588169   4.455496
    30  C    8.436823   8.593189   8.920727   4.130909   4.719480
    31  H    8.793011   8.975257   9.113554   4.233840   4.705226
    32  H    9.346327   9.491502   9.913817   5.180512   5.790476
    33  H    7.778959   8.128871   8.410291   3.857177   4.278996
    34  O    6.881435   6.658369   7.087502   2.379310   3.349750
    35  O    8.578195   8.265842   8.977062   4.503996   5.462052
                   26         27         28         29         30
    26  C    0.000000
    27  H    1.104113   0.000000
    28  H    1.096754   1.779662   0.000000
    29  C    2.432405   2.989361   2.596638   0.000000
    30  C    2.830313   3.319835   2.385851   1.507995   0.000000
    31  H    2.791166   2.927908   2.311039   2.158235   1.099158
    32  H    3.903482   4.356629   3.467206   2.115207   1.093728
    33  H    2.806830   3.516935   2.066321   2.159498   1.100150
    34  O    1.418464   2.059720   2.091340   1.351758   2.451039
    35  O    3.501622   3.997022   3.780273   1.197571   2.392657
                   31         32         33         34         35
    31  H    0.000000
    32  H    1.791432   0.000000
    33  H    1.776632   1.799521   0.000000
    34  O    2.775914   3.334321   2.756378   0.000000
    35  O    3.104384   2.509925   3.112239   2.188659   0.000000
 Stoichiometry    C13H17NO4
 Framework group  C1[X(C13H17NO4)]
 Deg. of freedom    99
 Full point group                 C1      NOp   1
 Largest Abelian subgroup         C1      NOp   1
 Largest concise Abelian subgroup C1      NOp   1
                         Standard orientation:                         
 ---------------------------------------------------------------------
 Center     Atomic      Atomic             Coordinates (Angstroms)
 Number     Number       Type             X           Y           Z
 ---------------------------------------------------------------------
      1          6           0       -2.438199    0.792537   -0.606303
      2          6           0       -1.479682   -0.227921   -1.125264
      3          6           0       -0.199938    0.209643   -0.826621
      4          6           0       -0.319230    1.523072   -0.125709
      5          1           0       -1.769039   -0.896996   -1.930989
      6          1           0        0.715959   -0.053055   -1.351108
      7          6           0       -2.236179    2.915033    0.711073
      8          1           0       -2.786035    2.641031    1.621511
      9          1           0       -1.405496    3.581254    0.970531
     10          1           0       -2.923195    3.425962    0.023741
     11          7           0       -1.676326    1.745738    0.073418
     12          8           0        0.562156    2.273216    0.228745
     13          8           0       -3.638841    0.840043   -0.711298
     14          6           0       -0.976913   -2.638693    0.267452
     15          1           0       -1.074638   -3.599620   -0.246639
     16          6           0        0.319468   -2.177544    0.561884
     17          1           0        1.173594   -2.778111    0.238746
     18          6           0       -2.103961   -1.849902    0.391874
     19          1           0       -2.080286   -1.020848    1.105896
     20          6           0       -3.466678   -2.307300   -0.027291
     21          1           0       -4.032871   -1.479341   -0.477499
     22          1           0       -3.403995   -3.137171   -0.744048
     23          1           0       -4.038076   -2.648681    0.850413
     24          6           0        0.563776   -0.896771    1.012158
     25          1           0       -0.203883   -0.372442    1.588739
     26          6           0        1.952168   -0.360033    1.196010
     27          1           0        2.350535   -0.673024    2.177033
     28          1           0        1.916818    0.736037    1.180221
     29          6           0        3.778536   -0.152130   -0.397022
     30          6           0        3.920577    1.292687    0.010872
     31          1           0        4.135750    1.375014    1.085614
     32          1           0        4.748249    1.720442   -0.562037
     33          1           0        2.992437    1.848441   -0.189189
     34          8           0        2.790942   -0.876299    0.175242
     35          8           0        4.477742   -0.690102   -1.206882
 ---------------------------------------------------------------------
 Rotational constants (GHZ):      0.6469467      0.2912083      0.2233155
 Standard basis: def2SVP (5D, 7F)
 There are   355 symmetry adapted cartesian basis functions of A   symmetry.
 There are   337 symmetry adapted basis functions of A   symmetry.
   337 basis functions,   569 primitive gaussians,   355 cartesian basis functions
    67 alpha electrons       67 beta electrons
       nuclear repulsion energy      1377.8429265520 Hartrees.
 NAtoms=   35 NActive=   35 NUniq=   35 SFac= 1.00D+00 NAtFMM=   60 NAOKFM=F Big=F
 Integral buffers will be    131072 words long.
 Raffenetti 2 integral format.
 Two-electron integral symmetry is turned on.
 Nuclear repulsion after empirical dispersion term =     1377.8406486581 Hartrees.
 Force inversion solution in PCM.
 ------------------------------------------------------------------------------
 Polarizable Continuum Model (PCM)
 =================================
 Model                : C-PCM.
 Atomic radii         : UFF (Universal Force Field).
 Polarization charges : Total charges.
 Charge compensation  : None.
 Solution method      : Matrix inversion.
 Cavity type          : Scaled VdW (van der Waals Surface) (Alpha=1.100).
 Cavity algorithm     : GePol (No added spheres)
                        Default sphere list used, NSphG=   35.
                        Lebedev-Laikov grids with approx.  5.0 points / Ang**2.
                        Smoothing algorithm: Karplus/York (Gamma=1.0000).
                        Polarization charges: spherical gaussians, with
                                              point-specific exponents (IZeta= 3).
                        Self-potential: point-specific (ISelfS= 7).
                        Self-field    : sphere-specific E.n sum rule (ISelfD= 2).
 1st derivatives      : Analytical E(r).r(x)/FMM algorithm (CHGder, D1EAlg=3).
                        Cavity 1st derivative terms included.
 2nd derivatives      : Analytical E(r).r(xy)/FMM algorithm (CHGder, D2EAlg=3).
                        Cavity 2nd derivative terms included.
 Solvent              : Toluene, Eps=   2.374100 Eps(inf)=   2.238315
 ------------------------------------------------------------------------------
 One-electron integrals computed using PRISM.
   1 Symmetry operations used in ECPInt.
 ECPInt:  NShTT=   12720 NPrTT=   45736 LenC2=   11879 LenP2D=   30587.
 LDataN:  DoStor=T MaxTD1= 4 Len=   56
 NBasis=   337 RedAO= T EigKep=  3.48D-04  NBF=   337
 NBsUse=   337 1.00D-06 EigRej= -1.00D+00 NBFU=   337
 ExpMin= 1.22D-01 ExpMax= 2.27D+03 ExpMxC= 3.41D+02 IAcc=1 IRadAn=         1 AccDes= 0.00D+00
 Harris functional with IExCor= 1009 and IRadAn=       1 diagonalized for initial guess.
 HarFok:  IExCor= 1009 AccDes= 0.00D+00 IRadAn=         1 IDoV= 1 UseB2=F ITyADJ=14
 ICtDFT=  3500011 ScaDFX=  1.000000  1.000000  1.000000  1.000000
 FoFCou: FMM=F IPFlag=           0 FMFlag=      100000 FMFlg1=           0
         NFxFlg=           0 DoJE=T BraDBF=F KetDBF=T FulRan=T
         wScrn=  0.000000 ICntrl=     500 IOpCl=  0 I1Cent=   200000004 NGrid=           0
         NMat0=    1 NMatS0=      1 NMatT0=    0 NMatD0=    1 NMtDS0=    0 NMtDT0=    0
 Petite list used in FoFCou.
 Requested convergence on RMS density matrix=1.00D-08 within 128 cycles.
 Requested convergence on MAX density matrix=1.00D-06.
 Requested convergence on             energy=1.00D-06.
 No special actions if energy rises.
 Inv3:  Mode=1 IEnd=    18287883.
 Iteration    1 A*A^-1 deviation from unit magnitude is 7.55D-15 for   2459.
 Iteration    1 A*A^-1 deviation from orthogonality  is 2.85D-15 for   2461   1624.
 Iteration    1 A^-1*A deviation from unit magnitude is 7.77D-15 for   2459.
 Iteration    1 A^-1*A deviation from orthogonality  is 2.52D-15 for   2453   1597.
 Error on total polarization charges =  0.00566
 SCF Done:  E(RM062X) =  -860.223515581     A.U. after   15 cycles
            NFock= 15  Conv=0.31D-08     -V/T= 2.0097
 DoSCS=F DFT=T ScalE2(SS,OS)=  1.000000  1.000000
 Range of M.O.s used for correlation:     1   337
 NBasis=   337 NAE=    67 NBE=    67 NFC=     0 NFV=     0
 NROrb=    337 NOA=    67 NOB=    67 NVA=   270 NVB=   270
 PrsmSu:  requested number of processors reduced to:   3 ShMem   1 Linda.
   1 Symmetry operations used in ECPInt.
 ECPInt:  NShTT=   12720 NPrTT=   45736 LenC2=   11879 LenP2D=   30587.
 LDataN:  DoStor=T MaxTD1= 5 Len=  102
 Number of processors reduced to   2 by ecpmxn.
 Symmetrizing basis deriv contribution to polar:
 IMax=3 JMax=2 DiffMx= 0.00D+00
 G2DrvN: will do    18 centers at a time, making    2 passes.
 Calling FoFCou, ICntrl=  3107 FMM=F I1Cent=   0 AccDes= 0.00D+00.
 Calling FoFCou, ICntrl=  3107 FMM=F I1Cent=   0 AccDes= 0.00D+00.
 NEqPCM:  Using equilibrium solvation (IEInf=0, Eps=   2.3741, EpsInf=   2.2383)
 G2PCM: DoFxE=T DoFxN=T DoGrad=T DoDP/DQ/DG/TGxP=FFFF NFrqRd=   0 IEInf=0 SqF1=F DoCFld=F IF1Alg=4.
 End of G2Drv F.D. properties file   721 does not exist.
 End of G2Drv F.D. properties file   722 does not exist.
 End of G2Drv F.D. properties file   788 does not exist.
          IDoAtm=11111111111111111111111111111111111
 NEqPCM:  Using equilibrium solvation (IEInf=0, Eps=   2.3741, EpsInf=   2.2383)
          Differentiating once with respect to nuclear coordinates.
          There are   108 degrees of freedom in the 1st order CPHF.  IDoFFX=6 NUNeed=     0.
    105 vectors produced by pass  0 Test12= 1.81D-14 1.00D-09 XBig12= 1.86D-01 1.17D-01.
 AX will form    56 AO Fock derivatives at one time.
    105 vectors produced by pass  1 Test12= 1.81D-14 1.00D-09 XBig12= 1.02D-01 7.77D-02.
    102 vectors produced by pass  2 Test12= 1.81D-14 1.00D-09 XBig12= 1.56D-03 4.00D-03.
    102 vectors produced by pass  3 Test12= 1.81D-14 1.00D-09 XBig12= 1.09D-05 3.61D-04.
    102 vectors produced by pass  4 Test12= 1.81D-14 1.00D-09 XBig12= 6.37D-08 2.66D-05.
    102 vectors produced by pass  5 Test12= 1.81D-14 1.00D-09 XBig12= 2.51D-10 1.23D-06.
     64 vectors produced by pass  6 Test12= 1.81D-14 1.00D-09 XBig12= 7.95D-13 7.57D-08.
      5 vectors produced by pass  7 Test12= 1.81D-14 1.00D-09 XBig12= 2.32D-15 3.52D-09.
 InvSVY:  IOpt=1 It=  1 EMax= 6.66D-16
 Solved reduced A of dimension   687 with   108 vectors.
 End of Minotr F.D. properties file   721 does not exist.
 End of Minotr F.D. properties file   722 does not exist.
 End of Minotr F.D. properties file   788 does not exist.

 **********************************************************************

            Population analysis using the SCF density.

 **********************************************************************

 Orbital symmetries:
       Occupied  (A) (A) (A) (A) (A) (A) (A) (A) (A) (A) (A) (A)
                 (A) (A) (A) (A) (A) (A) (A) (A) (A) (A) (A) (A)
                 (A) (A) (A) (A) (A) (A) (A) (A) (A) (A) (A) (A)
                 (A) (A) (A) (A) (A) (A) (A) (A) (A) (A) (A) (A)
                 (A) (A) (A) (A) (A) (A) (A) (A) (A) (A) (A) (A)
                 (A) (A) (A) (A) (A) (A) (A)
       Virtual   (A) (A) (A) (A) (A) (A) (A) (A) (A) (A) (A) (A)
                 (A) (A) (A) (A) (A) (A) (A) (A) (A) (A) (A) (A)
                 (A) (A) (A) (A) (A) (A) (A) (A) (A) (A) (A) (A)
                 (A) (A) (A) (A) (A) (A) (A) (A) (A) (A) (A) (A)
                 (A) (A) (A) (A) (A) (A) (A) (A) (A) (A) (A) (A)
                 (A) (A) (A) (A) (A) (A) (A) (A) (A) (A) (A) (A)
                 (A) (A) (A) (A) (A) (A) (A) (A) (A) (A) (A) (A)
                 (A) (A) (A) (A) (A) (A) (A) (A) (A) (A) (A) (A)
                 (A) (A) (A) (A) (A) (A) (A) (A) (A) (A) (A) (A)
                 (A) (A) (A) (A) (A) (A) (A) (A) (A) (A) (A) (A)
                 (A) (A) (A) (A) (A) (A) (A) (A) (A) (A) (A) (A)
                 (A) (A) (A) (A) (A) (A) (A) (A) (A) (A) (A) (A)
                 (A) (A) (A) (A) (A) (A) (A) (A) (A) (A) (A) (A)
                 (A) (A) (A) (A) (A) (A) (A) (A) (A) (A) (A) (A)
                 (A) (A) (A) (A) (A) (A) (A) (A) (A) (A) (A) (A)
                 (A) (A) (A) (A) (A) (A) (A) (A) (A) (A) (A) (A)
                 (A) (A) (A) (A) (A) (A) (A) (A) (A) (A) (A) (A)
                 (A) (A) (A) (A) (A) (A) (A) (A) (A) (A) (A) (A)
                 (A) (A) (A) (A) (A) (A) (A) (A) (A) (A) (A) (A)
                 (A) (A) (A) (A) (A) (A) (A) (A) (A) (A) (A) (A)
                 (A) (A) (A) (A) (A) (A) (A) (A) (A) (A) (A) (A)
                 (A) (A) (A) (A) (A) (A) (A) (A) (A) (A) (A) (A)
                 (A) (A) (A) (A) (A) (A)
 The electronic state is 1-A.
 Alpha  occ. eigenvalues --  -19.67743 -19.63774 -19.63353 -19.61718 -14.80866
 Alpha  occ. eigenvalues --  -10.68960 -10.68433 -10.68015 -10.62419 -10.59615
 Alpha  occ. eigenvalues --  -10.59141 -10.59064 -10.58671 -10.58408 -10.56835
 Alpha  occ. eigenvalues --  -10.56664 -10.56290 -10.55513  -1.22035  -1.19016
 Alpha  occ. eigenvalues --   -1.16989  -1.13173  -1.06490  -0.94132  -0.90912
 Alpha  occ. eigenvalues --   -0.88346  -0.83718  -0.82259  -0.79406  -0.76467
 Alpha  occ. eigenvalues --   -0.74566  -0.70052  -0.69275  -0.65919  -0.63186
 Alpha  occ. eigenvalues --   -0.60513  -0.58656  -0.58584  -0.57846  -0.57418
 Alpha  occ. eigenvalues --   -0.56895  -0.54560  -0.54126  -0.52448  -0.52160
 Alpha  occ. eigenvalues --   -0.51460  -0.50761  -0.50380  -0.49494  -0.48283
 Alpha  occ. eigenvalues --   -0.47984  -0.47202  -0.46793  -0.46243  -0.45846
 Alpha  occ. eigenvalues --   -0.45107  -0.43129  -0.42669  -0.41859  -0.41359
 Alpha  occ. eigenvalues --   -0.37508  -0.37126  -0.35143  -0.34635  -0.34290
 Alpha  occ. eigenvalues --   -0.30599  -0.28918
 Alpha virt. eigenvalues --   -0.04257  -0.01312   0.05781   0.07514   0.08421
 Alpha virt. eigenvalues --    0.09863   0.10177   0.10763   0.12719   0.13442
 Alpha virt. eigenvalues --    0.13914   0.14191   0.14988   0.16033   0.16374
 Alpha virt. eigenvalues --    0.16938   0.17805   0.18270   0.18867   0.19297
 Alpha virt. eigenvalues --    0.19809   0.20301   0.21238   0.21586   0.24079
 Alpha virt. eigenvalues --    0.24822   0.25291   0.26495   0.28153   0.29107
 Alpha virt. eigenvalues --    0.30216   0.32126   0.33291   0.34422   0.36049
 Alpha virt. eigenvalues --    0.36746   0.38620   0.40088   0.40861   0.43226
 Alpha virt. eigenvalues --    0.43837   0.45460   0.46652   0.46931   0.48052
 Alpha virt. eigenvalues --    0.48621   0.49223   0.49858   0.50497   0.50994
 Alpha virt. eigenvalues --    0.52074   0.52580   0.54880   0.56015   0.57678
 Alpha virt. eigenvalues --    0.58648   0.59258   0.60604   0.61974   0.63064
 Alpha virt. eigenvalues --    0.63151   0.63787   0.65737   0.66136   0.66712
 Alpha virt. eigenvalues --    0.67760   0.67896   0.68265   0.69176   0.69528
 Alpha virt. eigenvalues --    0.70017   0.70344   0.70666   0.71050   0.71308
 Alpha virt. eigenvalues --    0.71818   0.72288   0.72916   0.73225   0.73529
 Alpha virt. eigenvalues --    0.74085   0.74479   0.74954   0.75129   0.75796
 Alpha virt. eigenvalues --    0.76265   0.77046   0.77542   0.78509   0.79688
 Alpha virt. eigenvalues --    0.80168   0.81742   0.83003   0.84587   0.86482
 Alpha virt. eigenvalues --    0.87645   0.90077   0.90419   0.91776   0.93239
 Alpha virt. eigenvalues --    0.95253   0.96161   0.98535   0.99640   1.00591
 Alpha virt. eigenvalues --    1.02641   1.05161   1.07097   1.08948   1.10943
 Alpha virt. eigenvalues --    1.12679   1.13677   1.15165   1.17272   1.18018
 Alpha virt. eigenvalues --    1.20554   1.21821   1.22633   1.25692   1.25852
 Alpha virt. eigenvalues --    1.28386   1.30442   1.32517   1.33818   1.34192
 Alpha virt. eigenvalues --    1.35459   1.36258   1.37377   1.38692   1.40502
 Alpha virt. eigenvalues --    1.44140   1.44738   1.46783   1.48035   1.49143
 Alpha virt. eigenvalues --    1.50645   1.56028   1.56327   1.57087   1.58189
 Alpha virt. eigenvalues --    1.58506   1.59295   1.61202   1.61750   1.62438
 Alpha virt. eigenvalues --    1.63296   1.64446   1.66232   1.67348   1.69492
 Alpha virt. eigenvalues --    1.70491   1.72875   1.74062   1.74464   1.74888
 Alpha virt. eigenvalues --    1.75305   1.78116   1.78677   1.79806   1.80800
 Alpha virt. eigenvalues --    1.81379   1.81806   1.82390   1.83117   1.83393
 Alpha virt. eigenvalues --    1.84350   1.84429   1.86311   1.86900   1.87549
 Alpha virt. eigenvalues --    1.88234   1.89405   1.91145   1.92575   1.93262
 Alpha virt. eigenvalues --    1.93881   1.95368   1.95584   1.96393   1.97145
 Alpha virt. eigenvalues --    1.99081   1.99964   2.01466   2.01762   2.03495
 Alpha virt. eigenvalues --    2.04403   2.05610   2.05979   2.07378   2.07729
 Alpha virt. eigenvalues --    2.09913   2.11081   2.12591   2.13633   2.14315
 Alpha virt. eigenvalues --    2.15305   2.16337   2.19362   2.22279   2.24803
 Alpha virt. eigenvalues --    2.25854   2.27613   2.29768   2.31290   2.32583
 Alpha virt. eigenvalues --    2.34301   2.36024   2.39114   2.39319   2.40873
 Alpha virt. eigenvalues --    2.41972   2.43197   2.44203   2.46410   2.46715
 Alpha virt. eigenvalues --    2.47732   2.48491   2.50505   2.52803   2.54926
 Alpha virt. eigenvalues --    2.55947   2.58452   2.59987   2.63251   2.66427
 Alpha virt. eigenvalues --    2.66624   2.67708   2.68597   2.71306   2.72371
 Alpha virt. eigenvalues --    2.72957   2.75122   2.76355   2.77583   2.77961
 Alpha virt. eigenvalues --    2.78602   2.79571   2.80742   2.82518   2.83493
 Alpha virt. eigenvalues --    2.85653   2.86722   2.87777   2.88941   2.90518
 Alpha virt. eigenvalues --    2.91196   2.93284   2.95241   2.96084   2.96600
 Alpha virt. eigenvalues --    2.99235   3.02308   3.05177   3.09560   3.12963
 Alpha virt. eigenvalues --    3.17952   3.19974   3.21584   3.25191   3.25615
 Alpha virt. eigenvalues --    3.27439   3.33100   3.37295   3.44899   3.47856
 Alpha virt. eigenvalues --    3.60727   3.66892   3.69782   3.70843   3.73608
          Condensed to atoms (all electrons):
               1          2          3          4          5          6
     1  C    4.674087   0.141149   0.082268  -0.105925  -0.035406   0.007898
     2  C    0.141149   5.734439   0.016466   0.073753   0.416631  -0.033583
     3  C    0.082268   0.016466   5.759983   0.128202  -0.037392   0.416614
     4  C   -0.105925   0.073753   0.128202   4.697109   0.008330  -0.035277
     5  H   -0.035406   0.416631  -0.037392   0.008330   0.589599  -0.006698
     6  H    0.007898  -0.033583   0.416614  -0.035277  -0.006698   0.586346
     7  C   -0.017320   0.010774   0.008387  -0.023784  -0.000169  -0.000117
     8  H   -0.003022   0.000500  -0.000757   0.002841  -0.000011  -0.000003
     9  H    0.006108  -0.001502   0.004501  -0.006049   0.000018  -0.000027
    10  H   -0.004678   0.002264  -0.001096   0.002287   0.000010   0.000024
    11  N    0.264534  -0.144961  -0.137988   0.286593   0.005162   0.004185
    12  O    0.000450   0.006411  -0.091098   0.691422  -0.000055   0.001026
    13  O    0.731170  -0.090895   0.006477   0.000583   0.001500  -0.000058
    14  C   -0.004198   0.006791  -0.057374   0.004005  -0.003088  -0.003500
    15  H   -0.000075   0.000539  -0.000742   0.000057   0.001092  -0.000043
    16  C    0.004506  -0.057820  -0.008779  -0.003573  -0.003242  -0.001472
    17  H    0.000047  -0.000670   0.000482  -0.000080  -0.000042   0.001311
    18  C   -0.008898   0.134518  -0.042382   0.001892  -0.004329   0.001493
    19  H   -0.005618   0.002167  -0.026863   0.006131   0.003512  -0.000246
    20  C   -0.001721  -0.024571   0.005159  -0.000281  -0.003924  -0.000036
    21  H    0.001720  -0.014381   0.001883  -0.000106   0.001355  -0.000023
    22  H    0.000254  -0.001865  -0.000227   0.000016   0.001712  -0.000005
    23  H   -0.000230   0.002502  -0.000195   0.000007  -0.000020   0.000002
    24  C    0.002038  -0.050783   0.134529  -0.007183   0.001732  -0.015009
    25  H    0.004708  -0.021646  -0.000295  -0.002696  -0.000185   0.003965
    26  C   -0.000446   0.007210  -0.026888   0.000923  -0.000074  -0.001450
    27  H    0.000002  -0.000121   0.002169  -0.000171   0.000001   0.000461
    28  H    0.000021   0.000767  -0.008802   0.000464  -0.000015  -0.000949
    29  C    0.000004  -0.000099   0.000365   0.000053   0.000000   0.000935
    30  C    0.000000  -0.000012   0.000639  -0.000709   0.000001  -0.001120
    31  H    0.000000   0.000000  -0.000018  -0.000029   0.000000   0.000012
    32  H    0.000000   0.000001  -0.000007   0.000022   0.000000  -0.000002
    33  H   -0.000006   0.000054  -0.001502  -0.000222  -0.000001   0.000936
    34  O   -0.000004   0.000274  -0.000515  -0.000744  -0.000002   0.008022
    35  O    0.000000  -0.000001  -0.000020   0.000006   0.000000  -0.000347
               7          8          9         10         11         12
     1  C   -0.017320  -0.003022   0.006108  -0.004678   0.264534   0.000450
     2  C    0.010774   0.000500  -0.001502   0.002264  -0.144961   0.006411
     3  C    0.008387  -0.000757   0.004501  -0.001096  -0.137988  -0.091098
     4  C   -0.023784   0.002841  -0.006049   0.002287   0.286593   0.691422
     5  H   -0.000169  -0.000011   0.000018   0.000010   0.005162  -0.000055
     6  H   -0.000117  -0.000003  -0.000027   0.000024   0.004185   0.001026
     7  C    4.479190   0.409399   0.399194   0.408870   0.252045  -0.004947
     8  H    0.409399   0.592983  -0.019741  -0.025666  -0.027658   0.000174
     9  H    0.399194  -0.019741   0.571779  -0.017752  -0.027427   0.016315
    10  H    0.408870  -0.025666  -0.017752   0.586549  -0.027547   0.000115
    11  N    0.252045  -0.027658  -0.027427  -0.027547   7.127304  -0.090663
    12  O   -0.004947   0.000174   0.016315   0.000115  -0.090663   7.704002
    13  O    0.008327   0.000619   0.000252   0.003817  -0.098349  -0.000013
    14  C    0.000010  -0.000001  -0.000001   0.000001   0.000078   0.000018
    15  H    0.000000   0.000000   0.000000   0.000000  -0.000006   0.000000
    16  C    0.000027  -0.000002   0.000004  -0.000001  -0.000300   0.000122
    17  H    0.000000   0.000000   0.000000   0.000000  -0.000008  -0.000008
    18  C   -0.000052   0.000101   0.000012  -0.000028  -0.004618   0.000017
    19  H   -0.000475  -0.000271  -0.000007   0.000075   0.005226  -0.000048
    20  C    0.000012  -0.000016   0.000000   0.000006  -0.000141   0.000000
    21  H   -0.000040   0.000019   0.000001  -0.000024   0.001014   0.000000
    22  H    0.000000   0.000000   0.000000   0.000000  -0.000010   0.000000
    23  H   -0.000001   0.000002   0.000000   0.000000   0.000001   0.000000
    24  C   -0.000013   0.000128  -0.000040  -0.000013  -0.005555  -0.003697
    25  H   -0.000393  -0.000263   0.000004   0.000039   0.005264  -0.001622
    26  C   -0.000025  -0.000014  -0.000025   0.000002   0.000853  -0.008645
    27  H    0.000000   0.000001  -0.000001   0.000000  -0.000015   0.000239
    28  H    0.000047   0.000024   0.000043  -0.000006  -0.000473   0.025398
    29  C    0.000000   0.000000   0.000000   0.000000   0.000001   0.000398
    30  C    0.000001   0.000000   0.000004   0.000000  -0.000031  -0.009607
    31  H    0.000000   0.000000   0.000000   0.000000   0.000000  -0.000033
    32  H    0.000000   0.000000   0.000000   0.000000   0.000000   0.000054
    33  H   -0.000010   0.000000  -0.000032   0.000001   0.000306   0.026063
    34  O    0.000000   0.000000   0.000000   0.000000  -0.000006   0.000031
    35  O    0.000000   0.000000   0.000000   0.000000   0.000000   0.000000
              13         14         15         16         17         18
     1  C    0.731170  -0.004198  -0.000075   0.004506   0.000047  -0.008898
     2  C   -0.090895   0.006791   0.000539  -0.057820  -0.000670   0.134518
     3  C    0.006477  -0.057374  -0.000742  -0.008779   0.000482  -0.042382
     4  C    0.000583   0.004005   0.000057  -0.003573  -0.000080   0.001892
     5  H    0.001500  -0.003088   0.001092  -0.003242  -0.000042  -0.004329
     6  H   -0.000058  -0.003500  -0.000043  -0.001472   0.001311   0.001493
     7  C    0.008327   0.000010   0.000000   0.000027   0.000000  -0.000052
     8  H    0.000619  -0.000001   0.000000  -0.000002   0.000000   0.000101
     9  H    0.000252  -0.000001   0.000000   0.000004   0.000000   0.000012
    10  H    0.003817   0.000001   0.000000  -0.000001   0.000000  -0.000028
    11  N   -0.098349   0.000078  -0.000006  -0.000300  -0.000008  -0.004618
    12  O   -0.000013   0.000018   0.000000   0.000122  -0.000008   0.000017
    13  O    7.672507   0.000171  -0.000003   0.000024   0.000000  -0.001908
    14  C    0.000171   4.971090   0.440913   0.394411  -0.047147   0.439221
    15  H   -0.000003   0.440913   0.638460  -0.051647  -0.012256  -0.068763
    16  C    0.000024   0.394411  -0.051647   4.983163   0.444455  -0.008519
    17  H    0.000000  -0.047147  -0.012256   0.444455   0.618748   0.013386
    18  C   -0.001908   0.439221  -0.068763  -0.008519   0.013386   5.002982
    19  H   -0.001453  -0.002580   0.007421  -0.034464  -0.000222   0.362863
    20  C   -0.009724  -0.058836  -0.012491   0.011681  -0.000176   0.394489
    21  H    0.026120   0.006326   0.000177  -0.000357   0.000009  -0.018859
    22  H    0.000155  -0.014648   0.005691   0.000646  -0.000011  -0.021779
    23  H   -0.000020  -0.002086   0.000234  -0.000412   0.000000  -0.011844
    24  C    0.000027  -0.013472   0.014052   0.384274  -0.073512  -0.045250
    25  H   -0.000062  -0.032695  -0.000235   0.004089   0.006706   0.016097
    26  C    0.000000   0.009820  -0.000172  -0.057156  -0.016395   0.000298
    27  H    0.000000  -0.000217   0.000001  -0.012896   0.000227  -0.000083
    28  H    0.000001  -0.000176   0.000007   0.012951   0.000801   0.000193
    29  C    0.000000   0.000004  -0.000001  -0.000800   0.000538   0.000000
    30  C    0.000000   0.000004   0.000000   0.000393   0.000219   0.000001
    31  H    0.000000   0.000000   0.000000  -0.000049  -0.000006   0.000000
    32  H    0.000000   0.000000   0.000000   0.000001  -0.000004   0.000000
    33  H    0.000000   0.000000   0.000000  -0.000171  -0.000028  -0.000003
    34  O    0.000000   0.000013  -0.000014   0.006608   0.012307   0.000016
    35  O    0.000000   0.000000   0.000000  -0.000087   0.000094   0.000000
              19         20         21         22         23         24
     1  C   -0.005618  -0.001721   0.001720   0.000254  -0.000230   0.002038
     2  C    0.002167  -0.024571  -0.014381  -0.001865   0.002502  -0.050783
     3  C   -0.026863   0.005159   0.001883  -0.000227  -0.000195   0.134529
     4  C    0.006131  -0.000281  -0.000106   0.000016   0.000007  -0.007183
     5  H    0.003512  -0.003924   0.001355   0.001712  -0.000020   0.001732
     6  H   -0.000246  -0.000036  -0.000023  -0.000005   0.000002  -0.015009
     7  C   -0.000475   0.000012  -0.000040   0.000000  -0.000001  -0.000013
     8  H   -0.000271  -0.000016   0.000019   0.000000   0.000002   0.000128
     9  H   -0.000007   0.000000   0.000001   0.000000   0.000000  -0.000040
    10  H    0.000075   0.000006  -0.000024   0.000000   0.000000  -0.000013
    11  N    0.005226  -0.000141   0.001014  -0.000010   0.000001  -0.005555
    12  O   -0.000048   0.000000   0.000000   0.000000   0.000000  -0.003697
    13  O   -0.001453  -0.009724   0.026120   0.000155  -0.000020   0.000027
    14  C   -0.002580  -0.058836   0.006326  -0.014648  -0.002086  -0.013472
    15  H    0.007421  -0.012491   0.000177   0.005691   0.000234   0.014052
    16  C   -0.034464   0.011681  -0.000357   0.000646  -0.000412   0.384274
    17  H   -0.000222  -0.000176   0.000009  -0.000011   0.000000  -0.073512
    18  C    0.362863   0.394489  -0.018859  -0.021779  -0.011844  -0.045250
    19  H    0.646267  -0.037479  -0.004096   0.006285  -0.004520   0.020169
    20  C   -0.037479   4.576618   0.381773   0.398063   0.380257   0.000414
    21  H   -0.004096   0.381773   0.587150  -0.019924  -0.016541   0.000117
    22  H    0.006285   0.398063  -0.019924   0.614722  -0.019672   0.000031
    23  H   -0.004520   0.380257  -0.016541  -0.019672   0.602988  -0.000046
    24  C    0.020169   0.000414   0.000117   0.000031  -0.000046   5.261708
    25  H    0.001488   0.000374  -0.000011  -0.000008  -0.000014   0.352631
    26  C    0.000430  -0.000019  -0.000002   0.000002   0.000001   0.314322
    27  H   -0.000020   0.000001   0.000000   0.000000   0.000000  -0.014350
    28  H   -0.000058  -0.000003   0.000000   0.000000   0.000000  -0.027781
    29  C    0.000000   0.000000   0.000000   0.000000   0.000000   0.007004
    30  C    0.000000   0.000000   0.000000   0.000000   0.000000  -0.003154
    31  H    0.000000   0.000000   0.000000   0.000000   0.000000   0.001396
    32  H    0.000000   0.000000   0.000000   0.000000   0.000000  -0.000004
    33  H    0.000000   0.000000   0.000000   0.000000   0.000000  -0.000864
    34  O   -0.000007   0.000000   0.000000   0.000000   0.000000  -0.091472
    35  O    0.000000   0.000000   0.000000   0.000000   0.000000   0.000122
              25         26         27         28         29         30
     1  C    0.004708  -0.000446   0.000002   0.000021   0.000004   0.000000
     2  C   -0.021646   0.007210  -0.000121   0.000767  -0.000099  -0.000012
     3  C   -0.000295  -0.026888   0.002169  -0.008802   0.000365   0.000639
     4  C   -0.002696   0.000923  -0.000171   0.000464   0.000053  -0.000709
     5  H   -0.000185  -0.000074   0.000001  -0.000015   0.000000   0.000001
     6  H    0.003965  -0.001450   0.000461  -0.000949   0.000935  -0.001120
     7  C   -0.000393  -0.000025   0.000000   0.000047   0.000000   0.000001
     8  H   -0.000263  -0.000014   0.000001   0.000024   0.000000   0.000000
     9  H    0.000004  -0.000025  -0.000001   0.000043   0.000000   0.000004
    10  H    0.000039   0.000002   0.000000  -0.000006   0.000000   0.000000
    11  N    0.005264   0.000853  -0.000015  -0.000473   0.000001  -0.000031
    12  O   -0.001622  -0.008645   0.000239   0.025398   0.000398  -0.009607
    13  O   -0.000062   0.000000   0.000000   0.000001   0.000000   0.000000
    14  C   -0.032695   0.009820  -0.000217  -0.000176   0.000004   0.000004
    15  H   -0.000235  -0.000172   0.000001   0.000007  -0.000001   0.000000
    16  C    0.004089  -0.057156  -0.012896   0.012951  -0.000800   0.000393
    17  H    0.006706  -0.016395   0.000227   0.000801   0.000538   0.000219
    18  C    0.016097   0.000298  -0.000083   0.000193   0.000000   0.000001
    19  H    0.001488   0.000430  -0.000020  -0.000058   0.000000   0.000000
    20  C    0.000374  -0.000019   0.000001  -0.000003   0.000000   0.000000
    21  H   -0.000011  -0.000002   0.000000   0.000000   0.000000   0.000000
    22  H   -0.000008   0.000002   0.000000   0.000000   0.000000   0.000000
    23  H   -0.000014   0.000001   0.000000   0.000000   0.000000   0.000000
    24  C    0.352631   0.314322  -0.014350  -0.027781   0.007004  -0.003154
    25  H    0.626709  -0.023856   0.001372  -0.007395   0.000006   0.000037
    26  C   -0.023856   4.550490   0.386445   0.376605  -0.042268   0.010834
    27  H    0.001372   0.386445   0.612906  -0.027290   0.002023  -0.002246
    28  H   -0.007395   0.376605  -0.027290   0.616688  -0.018431   0.022069
    29  C    0.000006  -0.042268   0.002023  -0.018431   4.487785   0.330865
    30  C    0.000037   0.010834  -0.002246   0.022069   0.330865   4.937726
    31  H   -0.000017  -0.002054   0.000274  -0.000063  -0.001956   0.359847
    32  H   -0.000002   0.001191  -0.000026  -0.000629  -0.002507   0.358277
    33  H    0.000075  -0.006482   0.000851  -0.003528   0.003071   0.346054
    34  O    0.003026   0.300252  -0.027877  -0.025909   0.298756  -0.118928
    35  O    0.000002   0.001634   0.000099  -0.000032   0.744272  -0.103645
              31         32         33         34         35
     1  C    0.000000   0.000000  -0.000006  -0.000004   0.000000
     2  C    0.000000   0.000001   0.000054   0.000274  -0.000001
     3  C   -0.000018  -0.000007  -0.001502  -0.000515  -0.000020
     4  C   -0.000029   0.000022  -0.000222  -0.000744   0.000006
     5  H    0.000000   0.000000  -0.000001  -0.000002   0.000000
     6  H    0.000012  -0.000002   0.000936   0.008022  -0.000347
     7  C    0.000000   0.000000  -0.000010   0.000000   0.000000
     8  H    0.000000   0.000000   0.000000   0.000000   0.000000
     9  H    0.000000   0.000000  -0.000032   0.000000   0.000000
    10  H    0.000000   0.000000   0.000001   0.000000   0.000000
    11  N    0.000000   0.000000   0.000306  -0.000006   0.000000
    12  O   -0.000033   0.000054   0.026063   0.000031   0.000000
    13  O    0.000000   0.000000   0.000000   0.000000   0.000000
    14  C    0.000000   0.000000   0.000000   0.000013   0.000000
    15  H    0.000000   0.000000   0.000000  -0.000014   0.000000
    16  C   -0.000049   0.000001  -0.000171   0.006608  -0.000087
    17  H   -0.000006  -0.000004  -0.000028   0.012307   0.000094
    18  C    0.000000   0.000000  -0.000003   0.000016   0.000000
    19  H    0.000000   0.000000   0.000000  -0.000007   0.000000
    20  C    0.000000   0.000000   0.000000   0.000000   0.000000
    21  H    0.000000   0.000000   0.000000   0.000000   0.000000
    22  H    0.000000   0.000000   0.000000   0.000000   0.000000
    23  H    0.000000   0.000000   0.000000   0.000000   0.000000
    24  C    0.001396  -0.000004  -0.000864  -0.091472   0.000122
    25  H   -0.000017  -0.000002   0.000075   0.003026   0.000002
    26  C   -0.002054   0.001191  -0.006482   0.300252   0.001634
    27  H    0.000274  -0.000026   0.000851  -0.027877   0.000099
    28  H   -0.000063  -0.000629  -0.003528  -0.025909  -0.000032
    29  C   -0.001956  -0.002507   0.003071   0.298756   0.744272
    30  C    0.359847   0.358277   0.346054  -0.118928  -0.103645
    31  H    0.574856  -0.011660  -0.012232   0.001734   0.001839
    32  H   -0.011660   0.573648  -0.007749   0.005060   0.007732
    33  H   -0.012232  -0.007749   0.555200   0.003266   0.001672
    34  O    0.001734   0.005060   0.003266   8.067897  -0.090812
    35  O    0.001839   0.007732   0.001672  -0.090812   7.694713
 Mulliken charges:
               1
     1  C    0.266584
     2  C   -0.114302
     3  C   -0.125185
     4  C    0.282135
     5  H    0.063998
     6  H    0.066735
     7  C    0.071066
     8  H    0.070634
     9  H    0.074371
    10  H    0.072749
    11  N   -0.386813
    12  O   -0.261820
    13  O   -0.249264
    14  C   -0.032855
    15  H    0.037805
    16  C   -0.005609
    17  H    0.051236
    18  C   -0.130262
    19  H    0.056390
    20  C    0.000570
    21  H    0.066699
    22  H    0.050573
    23  H    0.069606
    24  C   -0.142497
    25  H    0.064801
    26  C    0.224657
    27  H    0.078244
    28  H    0.065459
    29  C    0.189983
    30  C   -0.127518
    31  H    0.088159
    32  H    0.076603
    33  H    0.095280
    34  O   -0.350972
    35  O   -0.257241
 Sum of Mulliken charges =   0.00000
 Mulliken charges with hydrogens summed into heavy atoms:
               1
     1  C    0.266584
     2  C   -0.050304
     3  C   -0.058450
     4  C    0.282135
     7  C    0.288820
    11  N   -0.386813
    12  O   -0.261820
    13  O   -0.249264
    14  C    0.004950
    16  C    0.045627
    18  C   -0.073872
    20  C    0.187448
    24  C   -0.077696
    26  C    0.368360
    29  C    0.189983
    30  C    0.132523
    34  O   -0.350972
    35  O   -0.257241
 APT charges:
               1
     1  C   -0.880961
     2  C   -0.516060
     3  C   -0.334409
     4  C   -0.376558
     5  H    0.501678
     6  H    0.272632
     7  C   -1.003514
     8  H    0.419049
     9  H    0.314273
    10  H    0.653536
    11  N   -0.116074
    12  O    0.122826
    13  O    0.821208
    14  C   -0.577558
    15  H    0.623922
    16  C   -0.459105
    17  H    0.467577
    18  C   -0.263339
    19  H    0.025453
    20  C   -0.947794
    21  H    0.219059
    22  H    0.480964
    23  H    0.646513
    24  C   -0.414150
    25  H    0.178112
    26  C   -0.406911
    27  H    0.575132
    28  H    0.134458
    29  C   -1.160578
    30  C   -0.616992
    31  H    0.382973
    32  H    0.842155
    33  H   -0.224941
    34  O   -0.284647
    35  O    0.902073
 Sum of APT charges =   0.00000
 APT charges with hydrogens summed into heavy atoms:
               1
     1  C   -0.880961
     2  C   -0.014382
     3  C   -0.061777
     4  C   -0.376558
     7  C    0.383344
    11  N   -0.116074
    12  O    0.122826
    13  O    0.821208
    14  C    0.046364
    16  C    0.008472
    18  C   -0.237886
    20  C    0.398742
    24  C   -0.236038
    26  C    0.302678
    29  C   -1.160578
    30  C    0.383194
    34  O   -0.284647
    35  O    0.902073
 Electronic spatial extent (au):  <R**2>=           4934.8672
 Charge=              0.0000 electrons
 Dipole moment (field-independent basis, Debye):
    X=             -2.2705    Y=              0.3246    Z=              3.2960  Tot=              4.0155
 Quadrupole moment (field-independent basis, Debye-Ang):
   XX=           -128.2017   YY=           -103.1663   ZZ=           -104.5216
   XY=             10.2689   XZ=              7.1822   YZ=              1.4880
 Traceless Quadrupole moment (field-independent basis, Debye-Ang):
   XX=            -16.2385   YY=              8.7969   ZZ=              7.4416
   XY=             10.2689   XZ=              7.1822   YZ=              1.4880
 Octapole moment (field-independent basis, Debye-Ang**2):
  XXX=            -10.2075  YYY=              6.1721  ZZZ=              3.2466  XYY=            -25.2993
  XXY=             33.2574  XXZ=             66.5334  XZZ=             -3.3339  YZZ=              8.7511
  YYZ=             -5.1170  XYZ=            -18.2592
 Hexadecapole moment (field-independent basis, Debye-Ang**3):
 XXXX=          -4682.6671 YYYY=          -1765.7474 ZZZZ=           -439.4210 XXXY=            241.4621
 XXXZ=            137.0297 YYYX=            -70.5509 YYYZ=             41.1578 ZZZX=             18.1242
 ZZZY=             16.1160 XXYY=           -943.4082 XXZZ=           -787.5268 YYZZ=           -385.1006
 XXYZ=            -20.7395 YYXZ=             -3.6542 ZZXY=              0.3161
 N-N= 1.377840648658D+03 E-N=-4.758361293259D+03  KE= 8.519345789214D+02
  Exact polarizability:   0.000   0.000   0.000   0.000   0.000   0.000
 Approx polarizability: 246.194   9.895 215.274  12.252  -2.218 161.870
   1 Symmetry operations used in ECPInt.
 ECPInt:  NShTT=   12720 NPrTT=   45736 LenC2=   11879 LenP2D=   30587.
 LDataN:  DoStor=T MaxTD1= 6 Len=  172
 D2PCM: C-PCM CHGder 2nd derivatives, FixD1E=F FixD2E=F DoIter=F DoCFld=F I1PDM=0
 Calling FoFJK, ICntrl=    100147 FMM=F ISym2X=0 I1Cent= 0 IOpClX= 0 NMat=1 NMatS=1 NMatT=0.
 ***** Axes restored to original set *****
 -------------------------------------------------------------------
 Center     Atomic                   Forces (Hartrees/Bohr)
 Number     Number              X              Y              Z
 -------------------------------------------------------------------
      1        6          -0.000017314    0.000002621   -0.000007221
      2        6           0.000001427   -0.000007659   -0.000034717
      3        6           0.000012420    0.000004492   -0.000033430
      4        6           0.000023663    0.000023161   -0.000003175
      5        1           0.000010417    0.000009031   -0.000008464
      6        1          -0.000009397    0.000002762   -0.000018879
      7        6           0.000007094    0.000009537   -0.000003030
      8        1          -0.000001995   -0.000003350    0.000004890
      9        1           0.000016002   -0.000012482    0.000000206
     10        1          -0.000004119   -0.000008355   -0.000000101
     11        7          -0.000000224    0.000025769    0.000007368
     12        8           0.000013733    0.000008590   -0.000012852
     13        8          -0.000000570    0.000001349   -0.000009891
     14        6           0.000000865   -0.000012875    0.000006697
     15        1           0.000013891   -0.000003042    0.000004879
     16        6           0.000009027   -0.000011313    0.000007932
     17        1           0.000000127   -0.000005310    0.000000226
     18        6           0.000002227   -0.000006068    0.000013727
     19        1           0.000007590    0.000003213    0.000014030
     20        6          -0.000003691   -0.000001887    0.000004857
     21        1          -0.000001180    0.000007704    0.000006780
     22        1           0.000002559   -0.000003317    0.000006623
     23        1           0.000001952    0.000003550    0.000013166
     24        6          -0.000000654   -0.000012613    0.000029747
     25        1          -0.000004014    0.000002983    0.000014101
     26        6          -0.000001577   -0.000001914    0.000006061
     27        1          -0.000007416   -0.000002399    0.000012534
     28        1          -0.000013446    0.000005073    0.000007992
     29        6          -0.000002933   -0.000009356   -0.000004131
     30        6          -0.000002593    0.000008375   -0.000003127
     31        1          -0.000006258   -0.000000669   -0.000001173
     32        1          -0.000015815    0.000002040   -0.000005175
     33        1          -0.000022575    0.000004972   -0.000002384
     34        8          -0.000004874   -0.000011898   -0.000001350
     35        8          -0.000002348   -0.000010716   -0.000012714
 -------------------------------------------------------------------
 Cartesian Forces:  Max     0.000034717 RMS     0.000010517
 FormGI is forming the generalized inverse of G from B-inverse, IUseBI=4.
 GSVD:  received Info=                   1 from GESDD.

 GradGradGradGradGradGradGradGradGradGradGradGradGradGradGradGradGradGrad
 Berny optimization.
 Internal  Forces:  Max     0.000128560 RMS     0.000019277
 Search for a saddle point.
 Step number   1 out of a maximum of  210
 All quantities printed in internal units (Hartrees-Bohrs-Radians)
 Swapping is turned off.
 Second derivative matrix not updated -- analytic derivatives used.
 ITU=  0
     Eigenvalues ---   -0.02053   0.00055   0.00062   0.00124   0.00226
     Eigenvalues ---    0.00268   0.00364   0.00406   0.00707   0.00794
     Eigenvalues ---    0.00918   0.01119   0.01241   0.01441   0.01616
     Eigenvalues ---    0.01710   0.01835   0.01847   0.01993   0.02074
     Eigenvalues ---    0.02405   0.02509   0.02762   0.02986   0.03138
     Eigenvalues ---    0.03405   0.03611   0.03752   0.04166   0.04248
     Eigenvalues ---    0.04402   0.04754   0.04761   0.04787   0.05480
     Eigenvalues ---    0.05539   0.05580   0.05765   0.05913   0.06018
     Eigenvalues ---    0.06212   0.07575   0.08019   0.09527   0.10266
     Eigenvalues ---    0.10748   0.10965   0.11292   0.12041   0.12063
     Eigenvalues ---    0.12113   0.12885   0.13067   0.13131   0.13978
     Eigenvalues ---    0.14887   0.15849   0.16005   0.17843   0.18486
     Eigenvalues ---    0.19098   0.20933   0.22522   0.23066   0.23432
     Eigenvalues ---    0.24151   0.30463   0.31102   0.31718   0.32110
[...]
    20  C   -0.001716  -0.024621   0.005161  -0.000281  -0.003921  -0.000036
    21  H    0.001719  -0.014381   0.001881  -0.000106   0.001351  -0.000023
    22  H    0.000254  -0.001864  -0.000227   0.000016   0.001709  -0.000005
    23  H   -0.000230   0.002506  -0.000195   0.000007  -0.000020   0.000002
    24  C    0.002038  -0.050770   0.134643  -0.007202   0.001733  -0.014933
    25  H    0.004703  -0.021612  -0.000359  -0.002661  -0.000185   0.003954
    26  C   -0.000446   0.007213  -0.026911   0.000949  -0.000074  -0.001450
    27  H    0.000002  -0.000121   0.002173  -0.000171   0.000001   0.000454
    28  H    0.000022   0.000758  -0.008745   0.000467  -0.000015  -0.000937
    29  C    0.000004  -0.000102   0.000381   0.000049   0.000000   0.000975
    30  C    0.000000  -0.000012   0.000652  -0.000712   0.000001  -0.001149
    31  H    0.000000   0.000000  -0.000019  -0.000030   0.000000   0.000013
    32  H    0.000000   0.000001  -0.000007   0.000022   0.000000  -0.000002
    33  H   -0.000007   0.000057  -0.001525  -0.000269  -0.000001   0.000946
    34  O   -0.000004   0.000277  -0.000467  -0.000744  -0.000002   0.007915
    35  O    0.000000  -0.000001  -0.000021   0.000006   0.000000  -0.000347
               7          8          9         10         11         12
     1  C   -0.017302  -0.003019   0.006108  -0.004676   0.264434   0.000451
     2  C    0.010766   0.000498  -0.001503   0.002264  -0.144955   0.006408
     3  C    0.008384  -0.000755   0.004502  -0.001098  -0.138011  -0.091068
     4  C   -0.023797   0.002840  -0.006059   0.002293   0.286850   0.690898
     5  H   -0.000169  -0.000011   0.000018   0.000010   0.005163  -0.000055
     6  H   -0.000117  -0.000003  -0.000027   0.000024   0.004176   0.001010
     7  C    4.479250   0.409409   0.399192   0.408856   0.252036  -0.004960
     8  H    0.409409   0.592983  -0.019737  -0.025664  -0.027677   0.000175
     9  H    0.399192  -0.019737   0.571741  -0.017744  -0.027424   0.016328
    10  H    0.408856  -0.025664  -0.017744   0.586503  -0.027534   0.000115
    11  N    0.252036  -0.027677  -0.027424  -0.027534   7.127088  -0.090590
    12  O   -0.004960   0.000175   0.016328   0.000115  -0.090590   7.704325
    13  O    0.008321   0.000616   0.000252   0.003821  -0.098340  -0.000013
    14  C    0.000010  -0.000001  -0.000001   0.000001   0.000079   0.000018
    15  H    0.000000   0.000000   0.000000   0.000000  -0.000006   0.000000
    16  C    0.000027  -0.000002   0.000004  -0.000001  -0.000299   0.000123
    17  H    0.000000   0.000000   0.000000   0.000000  -0.000008  -0.000008
    18  C   -0.000052   0.000102   0.000012  -0.000028  -0.004626   0.000017
    19  H   -0.000477  -0.000272  -0.000007   0.000075   0.005237  -0.000048
    20  C    0.000012  -0.000016   0.000000   0.000006  -0.000141   0.000000
    21  H   -0.000040   0.000019   0.000001  -0.000024   0.001014   0.000000
    22  H    0.000000   0.000000   0.000000   0.000000  -0.000010   0.000000
    23  H   -0.000001   0.000002   0.000000   0.000000   0.000001   0.000000
    24  C   -0.000013   0.000129  -0.000040  -0.000013  -0.005557  -0.003723
    25  H   -0.000395  -0.000264   0.000004   0.000039   0.005262  -0.001615
    26  C   -0.000026  -0.000014  -0.000026   0.000002   0.000855  -0.008577
    27  H    0.000000   0.000001  -0.000001   0.000000  -0.000015   0.000238
    28  H    0.000047   0.000024   0.000043  -0.000006  -0.000481   0.025301
    29  C    0.000000   0.000000   0.000000   0.000000   0.000001   0.000396
    30  C    0.000001   0.000000   0.000005   0.000000  -0.000032  -0.009838
    31  H    0.000000   0.000000   0.000000   0.000000   0.000000  -0.000034
    32  H    0.000000   0.000000   0.000000   0.000000   0.000000   0.000057
    33  H   -0.000010   0.000000  -0.000033   0.000001   0.000315   0.026531
    34  O    0.000000   0.000000   0.000000   0.000000  -0.000006   0.000032
    35  O    0.000000   0.000000   0.000000   0.000000   0.000000   0.000000
              13         14         15         16         17         18
     1  C    0.731192  -0.004191  -0.000075   0.004509   0.000047  -0.008910
     2  C   -0.090894   0.006741   0.000540  -0.057826  -0.000668   0.134664
     3  C    0.006476  -0.057329  -0.000742  -0.008785   0.000481  -0.042398
     4  C    0.000588   0.003999   0.000057  -0.003583  -0.000079   0.001883
     5  H    0.001502  -0.003077   0.001091  -0.003242  -0.000042  -0.004336
     6  H   -0.000059  -0.003492  -0.000043  -0.001458   0.001307   0.001495
     7  C    0.008321   0.000010   0.000000   0.000027   0.000000  -0.000052
     8  H    0.000616  -0.000001   0.000000  -0.000002   0.000000   0.000102
     9  H    0.000252  -0.000001   0.000000   0.000004   0.000000   0.000012
    10  H    0.003821   0.000001   0.000000  -0.000001   0.000000  -0.000028
    11  N   -0.098340   0.000079  -0.000006  -0.000299  -0.000008  -0.004626
    12  O   -0.000013   0.000018   0.000000   0.000123  -0.000008   0.000017
    13  O    7.672440   0.000171  -0.000003   0.000024   0.000000  -0.001913
    14  C    0.000171   4.971129   0.440947   0.394405  -0.047153   0.439049
    15  H   -0.000003   0.440947   0.638418  -0.051658  -0.012255  -0.068776
    16  C    0.000024   0.394405  -0.051658   4.983380   0.444471  -0.008409
    17  H    0.000000  -0.047153  -0.012255   0.444471   0.618691   0.013382
    18  C   -0.001913   0.439049  -0.068776  -0.008409   0.013382   5.003004
    19  H   -0.001453  -0.002558   0.007420  -0.034498  -0.000222   0.362825
    20  C   -0.009724  -0.058841  -0.012477   0.011682  -0.000176   0.394477
    21  H    0.026121   0.006332   0.000177  -0.000358   0.000009  -0.018855
    22  H    0.000155  -0.014643   0.005687   0.000646  -0.000011  -0.021780
    23  H   -0.000020  -0.002094   0.000233  -0.000412   0.000000  -0.011843
    24  C    0.000027  -0.013428   0.014053   0.384085  -0.073501  -0.045268
    25  H   -0.000062  -0.032699  -0.000235   0.004090   0.006703   0.016085
    26  C    0.000000   0.009814  -0.000172  -0.057149  -0.016380   0.000296
    27  H    0.000000  -0.000214   0.000001  -0.012910   0.000223  -0.000083
    28  H    0.000001  -0.000178   0.000007   0.012960   0.000802   0.000194
    29  C    0.000000   0.000004  -0.000001  -0.000797   0.000540   0.000000
    30  C    0.000000   0.000004   0.000000   0.000397   0.000219   0.000001
    31  H    0.000000   0.000000   0.000000  -0.000048  -0.000006   0.000000
    32  H    0.000000   0.000000   0.000000   0.000001  -0.000004   0.000000
    33  H    0.000000   0.000000   0.000000  -0.000173  -0.000028  -0.000004
    34  O    0.000000   0.000011  -0.000014   0.006593   0.012293   0.000016
    35  O    0.000000   0.000000   0.000000  -0.000087   0.000095   0.000000
              19         20         21         22         23         24
     1  C   -0.005619  -0.001716   0.001719   0.000254  -0.000230   0.002038
     2  C    0.002139  -0.024621  -0.014381  -0.001864   0.002506  -0.050770
     3  C   -0.026874   0.005161   0.001881  -0.000227  -0.000195   0.134643
     4  C    0.006137  -0.000281  -0.000106   0.000016   0.000007  -0.007202
     5  H    0.003515  -0.003921   0.001351   0.001709  -0.000020   0.001733
     6  H   -0.000245  -0.000036  -0.000023  -0.000005   0.000002  -0.014933
     7  C   -0.000477   0.000012  -0.000040   0.000000  -0.000001  -0.000013
     8  H   -0.000272  -0.000016   0.000019   0.000000   0.000002   0.000129
     9  H   -0.000007   0.000000   0.000001   0.000000   0.000000  -0.000040
    10  H    0.000075   0.000006  -0.000024   0.000000   0.000000  -0.000013
    11  N    0.005237  -0.000141   0.001014  -0.000010   0.000001  -0.005557
    12  O   -0.000048   0.000000   0.000000   0.000000   0.000000  -0.003723
    13  O   -0.001453  -0.009724   0.026121   0.000155  -0.000020   0.000027
    14  C   -0.002558  -0.058841   0.006332  -0.014643  -0.002094  -0.013428
    15  H    0.007420  -0.012477   0.000177   0.005687   0.000233   0.014053
    16  C   -0.034498   0.011682  -0.000358   0.000646  -0.000412   0.384085
    17  H   -0.000222  -0.000176   0.000009  -0.000011   0.000000  -0.073501
    18  C    0.362825   0.394477  -0.018855  -0.021780  -0.011843  -0.045268
    19  H    0.646334  -0.037479  -0.004094   0.006286  -0.004527   0.020189
    20  C   -0.037479   4.576596   0.381776   0.398064   0.380262   0.000416
    21  H   -0.004094   0.381776   0.587134  -0.019920  -0.016541   0.000117
    22  H    0.006286   0.398064  -0.019920   0.614699  -0.019670   0.000031
    23  H   -0.004527   0.380262  -0.016541  -0.019670   0.602991  -0.000046
    24  C    0.020189   0.000416   0.000117   0.000031  -0.000046   5.262118
    25  H    0.001482   0.000376  -0.000011  -0.000009  -0.000014   0.352616
    26  C    0.000431  -0.000019  -0.000002   0.000002   0.000001   0.314261
    27  H   -0.000020   0.000001   0.000000   0.000000   0.000000  -0.014466
    28  H   -0.000058  -0.000003   0.000000   0.000000   0.000000  -0.027804
    29  C    0.000000   0.000000   0.000000   0.000000   0.000000   0.006965
    30  C    0.000000   0.000000   0.000000   0.000000   0.000000  -0.003192
    31  H    0.000000   0.000000   0.000000   0.000000   0.000000   0.001392
    32  H    0.000000   0.000000   0.000000   0.000000   0.000000  -0.000003
    33  H    0.000000   0.000000   0.000000   0.000000   0.000000  -0.000878
    34  O   -0.000007   0.000000   0.000000   0.000000   0.000000  -0.091613
    35  O    0.000000   0.000000   0.000000   0.000000   0.000000   0.000124
              25         26         27         28         29         30
     1  C    0.004703  -0.000446   0.000002   0.000022   0.000004   0.000000
     2  C   -0.021612   0.007213  -0.000121   0.000758  -0.000102  -0.000012
     3  C   -0.000359  -0.026911   0.002173  -0.008745   0.000381   0.000652
     4  C   -0.002661   0.000949  -0.000171   0.000467   0.000049  -0.000712
     5  H   -0.000185  -0.000074   0.000001  -0.000015   0.000000   0.000001
     6  H    0.003954  -0.001450   0.000454  -0.000937   0.000975  -0.001149
     7  C   -0.000395  -0.000026   0.000000   0.000047   0.000000   0.000001
     8  H   -0.000264  -0.000014   0.000001   0.000024   0.000000   0.000000
     9  H    0.000004  -0.000026  -0.000001   0.000043   0.000000   0.000005
    10  H    0.000039   0.000002   0.000000  -0.000006   0.000000   0.000000
    11  N    0.005262   0.000855  -0.000015  -0.000481   0.000001  -0.000032
    12  O   -0.001615  -0.008577   0.000238   0.025301   0.000396  -0.009838
    13  O   -0.000062   0.000000   0.000000   0.000001   0.000000   0.000000
    14  C   -0.032699   0.009814  -0.000214  -0.000178   0.000004   0.000004
    15  H   -0.000235  -0.000172   0.000001   0.000007  -0.000001   0.000000
    16  C    0.004090  -0.057149  -0.012910   0.012960  -0.000797   0.000397
    17  H    0.006703  -0.016380   0.000223   0.000802   0.000540   0.000219
    18  C    0.016085   0.000296  -0.000083   0.000194   0.000000   0.000001
    19  H    0.001482   0.000431  -0.000020  -0.000058   0.000000   0.000000
    20  C    0.000376  -0.000019   0.000001  -0.000003   0.000000   0.000000
    21  H   -0.000011  -0.000002   0.000000   0.000000   0.000000   0.000000
    22  H   -0.000009   0.000002   0.000000   0.000000   0.000000   0.000000
    23  H   -0.000014   0.000001   0.000000   0.000000   0.000000   0.000000
    24  C    0.352616   0.314261  -0.014466  -0.027804   0.006965  -0.003192
    25  H    0.626728  -0.023864   0.001375  -0.007389   0.000006   0.000036
    26  C   -0.023864   4.550055   0.386522   0.376592  -0.042203   0.010824
    27  H    0.001375   0.386522   0.612857  -0.027235   0.002046  -0.002225
    28  H   -0.007389   0.376592  -0.027235   0.616752  -0.018405   0.022092
    29  C    0.000006  -0.042203   0.002046  -0.018405   4.487837   0.331008
    30  C    0.000036   0.010824  -0.002225   0.022092   0.331008   4.938008
    31  H   -0.000017  -0.002138   0.000263  -0.000012  -0.001945   0.359798
    32  H   -0.000002   0.001191  -0.000026  -0.000633  -0.002512   0.358223
    33  H    0.000077  -0.006430   0.000852  -0.003651   0.003075   0.346002
    34  O    0.003031   0.300392  -0.027849  -0.025901   0.298612  -0.118895
    35  O    0.000002   0.001636   0.000096  -0.000032   0.744253  -0.103629
              31         32         33         34         35
     1  C    0.000000   0.000000  -0.000007  -0.000004   0.000000
     2  C    0.000000   0.000001   0.000057   0.000277  -0.000001
     3  C   -0.000019  -0.000007  -0.001525  -0.000467  -0.000021
     4  C   -0.000030   0.000022  -0.000269  -0.000744   0.000006
     5  H    0.000000   0.000000  -0.000001  -0.000002   0.000000
     6  H    0.000013  -0.000002   0.000946   0.007915  -0.000347
     7  C    0.000000   0.000000  -0.000010   0.000000   0.000000
     8  H    0.000000   0.000000   0.000000   0.000000   0.000000
     9  H    0.000000   0.000000  -0.000033   0.000000   0.000000
    10  H    0.000000   0.000000   0.000001   0.000000   0.000000
    11  N    0.000000   0.000000   0.000315  -0.000006   0.000000
    12  O   -0.000034   0.000057   0.026531   0.000032   0.000000
    13  O    0.000000   0.000000   0.000000   0.000000   0.000000
    14  C    0.000000   0.000000   0.000000   0.000011   0.000000
    15  H    0.000000   0.000000   0.000000  -0.000014   0.000000
    16  C   -0.000048   0.000001  -0.000173   0.006593  -0.000087
    17  H   -0.000006  -0.000004  -0.000028   0.012293   0.000095
    18  C    0.000000   0.000000  -0.000004   0.000016   0.000000
    19  H    0.000000   0.000000   0.000000  -0.000007   0.000000
    20  C    0.000000   0.000000   0.000000   0.000000   0.000000
    21  H    0.000000   0.000000   0.000000   0.000000   0.000000
    22  H    0.000000   0.000000   0.000000   0.000000   0.000000
    23  H    0.000000   0.000000   0.000000   0.000000   0.000000
    24  C    0.001392  -0.000003  -0.000878  -0.091613   0.000124
    25  H   -0.000017  -0.000002   0.000077   0.003031   0.000002
    26  C   -0.002138   0.001191  -0.006430   0.300392   0.001636
    27  H    0.000263  -0.000026   0.000852  -0.027849   0.000096
    28  H   -0.000012  -0.000633  -0.003651  -0.025901  -0.000032
    29  C   -0.001945  -0.002512   0.003075   0.298612   0.744253
    30  C    0.359798   0.358223   0.346002  -0.118895  -0.103629
    31  H    0.574846  -0.011626  -0.012193   0.001756   0.001837
    32  H   -0.011626   0.573732  -0.007730   0.005062   0.007731
    33  H   -0.012193  -0.007730   0.554885   0.003258   0.001671
    34  O    0.001756   0.005062   0.003258   8.068068  -0.090836
    35  O    0.001837   0.007731   0.001671  -0.090836   7.694802
 Mulliken charges:
               1
     1  C    0.266623
     2  C   -0.114469
     3  C   -0.125262
     4  C    0.282297
     5  H    0.064043
     6  H    0.066823
     7  C    0.071048
     8  H    0.070638
     9  H    0.074392
    10  H    0.072775
    11  N   -0.386799
    12  O   -0.261894
    13  O   -0.249226
    14  C   -0.032815
    15  H    0.037826
    16  C   -0.005700
    17  H    0.051279
    18  C   -0.130219
    19  H    0.056389
    20  C    0.000622
    21  H    0.066703
    22  H    0.050591
    23  H    0.069606
    24  C   -0.142487
    25  H    0.064824
    26  C    0.224845
    27  H    0.078234
    28  H    0.065421
    29  C    0.189814
    30  C   -0.127589
    31  H    0.088162
    32  H    0.076523
    33  H    0.095262
    34  O   -0.350977
    35  O   -0.257299
 Sum of Mulliken charges =   0.00000
 Mulliken charges with hydrogens summed into heavy atoms:
               1
     1  C    0.266623
     2  C   -0.050426
     3  C   -0.058439
     4  C    0.282297
     7  C    0.288852
    11  N   -0.386799
    12  O   -0.261894
    13  O   -0.249226
    14  C    0.005011
    16  C    0.045579
    18  C   -0.073830
    20  C    0.187521
    24  C   -0.077663
    26  C    0.368499
    29  C    0.189814
    30  C    0.132358
    34  O   -0.350977
    35  O   -0.257299
 Electronic spatial extent (au):  <R**2>=           4930.3312
 Charge=              0.0000 electrons
 Dipole moment (field-independent basis, Debye):
    X=             -2.2802    Y=              0.3217    Z=              3.2972  Tot=              4.0217
 Quadrupole moment (field-independent basis, Debye-Ang):
   XX=           -128.2139   YY=           -103.1687   ZZ=           -104.5206
   XY=             10.2638   XZ=              7.1608   YZ=              1.4891
 Traceless Quadrupole moment (field-independent basis, Debye-Ang):
   XX=            -16.2462   YY=              8.7991   ZZ=              7.4471
   XY=             10.2638   XZ=              7.1608   YZ=              1.4891
 Octapole moment (field-independent basis, Debye-Ang**2):
  XXX=            -10.3164  YYY=              6.1704  ZZZ=              3.2970  XYY=            -25.2627
  XXY=             33.1093  XXZ=             66.4745  XZZ=             -3.3459  YZZ=              8.7422
  YYZ=             -5.1115  XYZ=            -18.2977
 Hexadecapole moment (field-independent basis, Debye-Ang**3):
 XXXX=          -4674.6848 YYYY=          -1765.5377 ZZZZ=           -440.3409 XXXY=            240.8713
 XXXZ=            136.4938 YYYX=            -70.4924 YYYZ=             41.1656 ZZZX=             18.2755
 ZZZY=             16.0767 XXYY=           -942.5267 XXZZ=           -786.7182 YYZZ=           -385.1903
 XXYZ=            -20.6233 YYXZ=             -3.6868 ZZXY=              0.3381
 N-N= 1.378091088791D+03 E-N=-4.758860893873D+03  KE= 8.519339989854D+02
 1\1\GINC-D10S1B2\FTS\RM062X\def2SVP\C13H17N1O4\CHMKSH\06-Sep-2020\0\\#
  opt=(calcfc,ts,noeigentest) scrf=(cpcm,solvent=toluene) geom=connecti
 vity def2svp m062x empiricaldispersion=gd3\\Title Card Required\\0,1\C
 ,-2.4355936034,0.7929058716,-0.6075232209\C,-1.4770600722,-0.228018421
 1,-1.1256484791\C,-0.1973246477,0.2090047774,-0.8257524961\C,-0.316719
 3202,1.5224196246,-0.1248577653\H,-1.7657182223,-0.896428889,-1.932183
 3752\H,0.7186712441,-0.053935438,-1.34996259\C,-2.2336134734,2.9143095
 89,0.7118898\H,-2.7838491092,2.6395508696,1.6218917691\H,-1.4027185833
 ,3.5799036686,0.9722961182\H,-2.9202689136,3.426077578,0.0248371858\N,
 -1.6738712215,1.7454585363,0.0733473874\O,0.5645750158,2.2723730054,0.
 2302983609\O,-3.6360786912,0.841159457,-0.7138575176\C,-0.9767361597,-
 2.6388857983,0.267746327\H,-1.0743258281,-3.5998663554,-0.2462639051\C
 ,0.3194169951,-2.1783169295,0.5637381587\H,1.1737401912,-2.7792424276,
 0.2417730978\C,-2.103397948,-1.8491983104,0.3907826721\H,-2.0797486989
 ,-1.0202950271,1.1049946039\C,-3.4661231127,-2.3058874382,-0.029121101
 2\H,-4.0316559973,-1.4776531447,-0.4796556847\H,-3.4034912639,-3.13588
 60928,-0.7457359903\H,-4.0380706836,-2.6468699599,0.8483897282\C,0.563
 5674633,-0.8975521598,1.0143058631\H,-0.2045643299,-0.3730370766,1.590
 1256179\C,1.9520805006,-0.3617432343,1.2001095793\H,2.3490995916,-0.67
 59083518,2.1812887979\H,1.9174978,0.7343581963,1.1853723448\C,3.774991
 9727,-0.1518207605,-0.397210635\C,3.9137028504,1.2944544462,0.00664662
 4\H,4.1331329801,1.3798424522,1.0803122513\H,4.7375644057,1.7235903588
 ,-0.570680619\H,2.9829711467,1.8468644693,-0.190601641\O,2.7917723221,
 -0.8779581094,0.1800980584\O,4.4733914009,-0.6896029762,-1.2079153252\
 \Version=ES64L-G09RevD.01\State=1-A\HF=-860.2235163\RMSD=5.531e-09\RMS
 F=2.051e-06\Dipole=-0.8973618,0.1269152,1.2969894\Quadrupole=-12.08219
 4,6.5441705,5.5380235,7.6304917,5.3179677,1.1087683\PG=C01 [X(C13H17N1
 O4)]\\@


 IF YOU WANT TO LEARN FROM THE THEORETICAL PHYSICISTS ABOUT THE
 METHODS WHICH THEY USE, I ADVISE YOU TO FOLLOW THIS PRINCIPLE VERY STRICTLY:
 DON'T LISTEN TO THEIR WORDS; PAY ATTENTION, INSTEAD, TO THEIR ACTIONS.
 -- A.EINSTEIN, 1934
 Job cpu time:       0 days  2 hours  7 minutes 13.1 seconds.
 File lengths (MBytes):  RWF=    491 Int=      0 D2E=      0 Chk=     18 Scr=      1
 Normal termination of Gaussian 09 at Sun Sep  6 03:15:29 2020.
