 Entering Gaussian System, Link 0=g09
 Input=product_diels_m062x_toluene.com
 Output=product_diels_m062x_toluene.log
 Initial command:
 /apps/applications/gaussian/G09.D01/2/default/g09/l1.exe "/local/2600754.1.40core-192G.q/Gau-420518.inp" -scrdir="/local/2600754.1.40core-192G.q/"
 Entering Link 1 = /apps/applications/gaussian/G09.D01/2/default/g09/l1.exe PID=    420519.
  
 Copyright (c) 1988,1990,1992,1993,1995,1998,2003,2009,2013,
            Gaussian, Inc.  All Rights Reserved.
  
 This is part of the Gaussian(R) 09 program.  It is based on
 the Gaussian(R) 03 system (copyright 2003, Gaussian, Inc.),
 the Gaussian(R) 98 system (copyright 1998, Gaussian, Inc.),
 the Gaussian(R) 94 system (copyright 1995, Gaussian, Inc.),
 the Gaussian 92(TM) system (copyright 1992, Gaussian, Inc.),
 the Gaussian 90(TM) system (copyright 1990, Gaussian, Inc.),
 the Gaussian 88(TM) system (copyright 1988, Gaussian, Inc.),
 the Gaussian 86(TM) system (copyright 1986, Carnegie Mellon
 University), and the Gaussian 82(TM) system (copyright 1983,
 Carnegie Mellon University). Gaussian is a federally registered
 trademark of Gaussian, Inc.
  
 This software contains proprietary and confidential information,
 including trade secrets, belonging to Gaussian, Inc.
  
 This software is provided under written license and may be
 used, copied, transmitted, or stored only in accord with that
 written license.
  
 The following legend is applicable only to US Government
 contracts under FAR:
  
                    RESTRICTED RIGHTS LEGEND
  
 Use, reproduction and disclosure by the US Government is
 subject to restrictions as set forth in subparagraphs (a)
 and (c) of the Commercial Computer Software - Restricted
 Rights clause in FAR 52.227-19.
  
 Gaussian, Inc.
 340 Quinnipiac St., Bldg. 40, Wallingford CT 06492
  
  
 ---------------------------------------------------------------
 Warning -- This program may not be used in any manner that
 competes with the business of Gaussian, Inc. or will provide
 assistance to any competitor of Gaussian, Inc.  The licensee
 of this program is prohibited from giving any competitor of
 Gaussian, Inc. access to this program.  By using this program,
 the user acknowledges that Gaussian, Inc. is engaged in the
 business of creating and licensing software in the field of
 computational chemistry and represents and warrants to the
 licensee that it is not a competitor of Gaussian, Inc. and that
 it will not use this program in any manner prohibited above.
 ---------------------------------------------------------------
  

 Cite this work as:
 Gaussian 09, Revision D.01,
 M. J. Frisch, G. W. Trucks, H. B. Schlegel, G. E. Scuseria, 
 M. A. Robb, J. R. Cheeseman, G. Scalmani, V. Barone, B. Mennucci, 
 G. A. Petersson, H. Nakatsuji, M. Caricato, X. Li, H. P. Hratchian, 
 A. F. Izmaylov, J. Bloino, G. Zheng, J. L. Sonnenberg, M. Hada, 
 M. Ehara, K. Toyota, R. Fukuda, J. Hasegawa, M. Ishida, T. Nakajima, 
 Y. Honda, O. Kitao, H. Nakai, T. Vreven, J. A. Montgomery, Jr., 
 J. E. Peralta, F. Ogliaro, M. Bearpark, J. J. Heyd, E. Brothers, 
 K. N. Kudin, V. N. Staroverov, T. Keith, R. Kobayashi, J. Normand, 
 K. Raghavachari, A. Rendell, J. C. Burant, S. S. Iyengar, J. Tomasi, 
 M. Cossi, N. Rega, J. M. Millam, M. Klene, J. E. Knox, J. B. Cross, 
 V. Bakken, C. Adamo, J. Jaramillo, R. Gomperts, R. E. Stratmann, 
 O. Yazyev, A. J. Austin, R. Cammi, C. Pomelli, J. W. Ochterski, 
 R. L. Martin, K. Morokuma, V. G. Zakrzewski, G. A. Voth, 
 P. Salvador, J. J. Dannenberg, S. Dapprich, A. D. Daniels, 
 O. Farkas, J. B. Foresman, J. V. Ortiz, J. Cioslowski, 
 and D. J. Fox, Gaussian, Inc., Wallingford CT, 2013.
 
 ******************************************
 Gaussian 09:  ES64L-G09RevD.01 24-Apr-2013
                 6-Jul-2021 
 ******************************************
 %nprocshared=4
 Will use up to    4 processors via shared memory.
 %chk=product_diels_m062x_toluene.chk
 ----------------------------------------------------------------------
 # opt freq scrf=(cpcm,solvent=toluene) geom=connectivity def2svp m062x
  empiricaldispersion=gd3
 ----------------------------------------------------------------------
 1/14=-1,18=20,19=15,26=3,38=1,57=2/1,3;
 2/9=110,12=2,17=6,18=5,40=1/2;
 3/5=43,7=101,11=2,16=1,25=1,30=1,70=2101,71=1,72=13,74=-55,124=31/1,2,3;
 4//1;
 5/5=2,38=5,53=13/2;
 6/7=2,8=2,9=2,10=2,28=1/1;
 7//1,2,3,16;
 1/14=-1,18=20,19=15,26=3/3(2);
 2/9=110/2;
 99//99;
 2/9=110/2;
 3/5=43,7=101,11=2,16=1,25=1,30=1,70=2105,71=1,72=13,74=-55,124=31/1,2,3;
 4/5=5,16=3,69=1/1;
 5/5=2,38=5,53=13/2;
 7//1,2,3,16;
 1/14=-1,18=20,19=15,26=3/3(-5);
 2/9=110/2;
 6/7=2,8=2,9=2,10=2,19=2,28=1/1;
 99/9=1/99;
 -------------------
 Title Card Required
 -------------------
 Symbolic Z-matrix:
 Charge =  0 Multiplicity = 1
 C                    -2.8838    0.25434  -0.21289 
 C                    -1.55436   0.84508  -0.69982 
 C                    -0.56497  -0.3506   -0.74793 
 C                    -1.35188  -1.55891  -0.21953 
 H                    -1.71106   1.22821  -1.74056 
 H                    -0.30769  -0.56493  -1.81827 
 C                    -3.74087  -2.02894   0.55319 
 H                    -3.74036  -2.04033   1.65752 
 H                    -4.73409  -1.69037   0.20856 
 H                    -3.5775   -3.06087   0.19453 
 N                    -2.68621  -1.13345   0.0376 
 O                    -0.9636   -2.69034  -0.05331 
 O                    -3.94196   0.81844  -0.06184 
 C                     0.73978  -0.19489   0.06057 
 H                     1.11307  -1.22561   0.32029 
 C                    -1.16384   2.03736   0.20996 
 H                    -2.11818   2.50324   0.58188 
 C                    -0.34999   1.59282   1.39694 
 H                    -0.50794   2.16365   2.31074 
 C                     0.5181    0.58157   1.32969 
 H                     1.1237    0.26921   2.17852 
 C                    -0.40148   3.10848  -0.57741 
 H                    -0.99083   3.49567  -1.41593 
 H                    -0.14733   3.96192   0.06382 
 H                     0.54738   2.72142  -0.98507 
 C                     1.81467   0.48456  -0.80829 
 H                     1.9634   -0.03006  -1.77348 
 H                     1.61187   1.56807  -0.96867 
 C                     3.87741  -0.59967  -0.09959 
 C                     5.08381  -0.34058   0.72418 
 H                     5.16079  -1.06659   1.55162 
 H                     6.00385  -0.4412    0.12361 
 H                     5.09038   0.66785   1.17032 
 O                     3.56722  -1.58951  -0.72362 
 O                     3.07441   0.52278  -0.08335 
 

 GradGradGradGradGradGradGradGradGradGradGradGradGradGradGradGradGradGrad
 Berny optimization.
 Initialization pass.
                           ----------------------------
                           !    Initial Parameters    !
                           ! (Angstroms and Degrees)  !
 --------------------------                            --------------------------
 ! Name  Definition              Value          Derivative Info.                !
 --------------------------------------------------------------------------------
 ! R1    R(1,2)                  1.5341         estimate D2E/DX2                !
 ! R2    R(1,11)                 1.424          estimate D2E/DX2                !
 ! R3    R(1,13)                 1.2086         estimate D2E/DX2                !
 ! R4    R(2,3)                  1.5527         estimate D2E/DX2                !
 ! R5    R(2,5)                  1.12           estimate D2E/DX2                !
 ! R6    R(2,16)                 1.5498         estimate D2E/DX2                !
 ! R7    R(3,4)                  1.5357         estimate D2E/DX2                !
 ! R8    R(3,6)                  1.1215         estimate D2E/DX2                !
 ! R9    R(3,14)                 1.5428         estimate D2E/DX2                !
 ! R10   R(4,11)                 1.4239         estimate D2E/DX2                !
 ! R11   R(4,12)                 1.2077         estimate D2E/DX2                !
 ! R12   R(7,8)                  1.1044         estimate D2E/DX2                !
 ! R13   R(7,9)                  1.1045         estimate D2E/DX2                !
 ! R14   R(7,10)                 1.1046         estimate D2E/DX2                !
 ! R15   R(7,11)                 1.4765         estimate D2E/DX2                !
 ! R16   R(14,15)                1.1266         estimate D2E/DX2                !
 ! R17   R(14,20)                1.5042         estimate D2E/DX2                !
 ! R18   R(14,26)                1.5401         estimate D2E/DX2                !
 ! R19   R(16,17)                1.1252         estimate D2E/DX2                !
 ! R20   R(16,18)                1.5063         estimate D2E/DX2                !
 ! R21   R(16,22)                1.5325         estimate D2E/DX2                !
 ! R22   R(18,19)                1.089          estimate D2E/DX2                !
 ! R23   R(18,20)                1.3344         estimate D2E/DX2                !
 ! R24   R(20,21)                1.0885         estimate D2E/DX2                !
 ! R25   R(22,23)                1.0956         estimate D2E/DX2                !
 ! R26   R(22,24)                1.0973         estimate D2E/DX2                !
 ! R27   R(22,25)                1.1029         estimate D2E/DX2                !
 ! R28   R(26,27)                1.1039         estimate D2E/DX2                !
 ! R29   R(26,28)                1.1139         estimate D2E/DX2                !
 ! R30   R(26,35)                1.4539         estimate D2E/DX2                !
 ! R31   R(29,30)                1.4836         estimate D2E/DX2                !
 ! R32   R(29,34)                1.2105         estimate D2E/DX2                !
 ! R33   R(29,35)                1.3802         estimate D2E/DX2                !
 ! R34   R(30,31)                1.1035         estimate D2E/DX2                !
 ! R35   R(30,32)                1.1033         estimate D2E/DX2                !
 ! R36   R(30,33)                1.1027         estimate D2E/DX2                !
 ! A1    A(2,1,11)             108.112          estimate D2E/DX2                !
 ! A2    A(2,1,13)             128.2179         estimate D2E/DX2                !
 ! A3    A(11,1,13)            123.6674         estimate D2E/DX2                !
 ! A4    A(1,2,3)              105.3966         estimate D2E/DX2                !
 ! A5    A(1,2,5)              107.7834         estimate D2E/DX2                !
 ! A6    A(1,2,16)             109.1648         estimate D2E/DX2                !
 ! A7    A(3,2,5)              108.8915         estimate D2E/DX2                !
 ! A8    A(3,2,16)             116.7473         estimate D2E/DX2                !
 ! A9    A(5,2,16)             108.5163         estimate D2E/DX2                !
 ! A10   A(2,3,4)              105.5885         estimate D2E/DX2                !
 ! A11   A(2,3,6)              108.8391         estimate D2E/DX2                !
 ! A12   A(2,3,14)             116.4188         estimate D2E/DX2                !
 ! A13   A(4,3,6)              107.1908         estimate D2E/DX2                !
 ! A14   A(4,3,14)             109.4168         estimate D2E/DX2                !
 ! A15   A(6,3,14)             108.9909         estimate D2E/DX2                !
 ! A16   A(3,4,11)             107.8902         estimate D2E/DX2                !
 ! A17   A(3,4,12)             128.2969         estimate D2E/DX2                !
 ! A18   A(11,4,12)            123.8037         estimate D2E/DX2                !
 ! A19   A(8,7,9)              108.396          estimate D2E/DX2                !
 ! A20   A(8,7,10)             108.3588         estimate D2E/DX2                !
 ! A21   A(8,7,11)             110.8003         estimate D2E/DX2                !
 ! A22   A(9,7,10)             108.5447         estimate D2E/DX2                !
 ! A23   A(9,7,11)             110.3322         estimate D2E/DX2                !
 ! A24   A(10,7,11)            110.3386         estimate D2E/DX2                !
 ! A25   A(1,11,4)             112.9209         estimate D2E/DX2                !
 ! A26   A(1,11,7)             123.6004         estimate D2E/DX2                !
 ! A27   A(4,11,7)             123.4485         estimate D2E/DX2                !
 ! A28   A(3,14,15)            107.9801         estimate D2E/DX2                !
 ! A29   A(3,14,20)            111.6909         estimate D2E/DX2                !
 ! A30   A(3,14,26)            109.8234         estimate D2E/DX2                !
 ! A31   A(15,14,20)           109.0621         estimate D2E/DX2                !
 ! A32   A(15,14,26)           107.6036         estimate D2E/DX2                !
 ! A33   A(20,14,26)           110.555          estimate D2E/DX2                !
 ! A34   A(2,16,17)            107.3885         estimate D2E/DX2                !
 ! A35   A(2,16,18)            111.8209         estimate D2E/DX2                !
 ! A36   A(2,16,22)            111.1904         estimate D2E/DX2                !
 ! A37   A(17,16,18)           108.6612         estimate D2E/DX2                !
 ! A38   A(17,16,22)           107.5993         estimate D2E/DX2                !
 ! A39   A(18,16,22)           110.0212         estimate D2E/DX2                !
 ! A40   A(16,18,19)           115.3528         estimate D2E/DX2                !
 ! A41   A(16,18,20)           122.372          estimate D2E/DX2                !
 ! A42   A(19,18,20)           122.2691         estimate D2E/DX2                !
 ! A43   A(14,20,18)           121.9757         estimate D2E/DX2                !
 ! A44   A(14,20,21)           115.3289         estimate D2E/DX2                !
 ! A45   A(18,20,21)           122.6899         estimate D2E/DX2                !
 ! A46   A(16,22,23)           111.8782         estimate D2E/DX2                !
 ! A47   A(16,22,24)           111.0134         estimate D2E/DX2                !
 ! A48   A(16,22,25)           111.8767         estimate D2E/DX2                !
 ! A49   A(23,22,24)           107.2753         estimate D2E/DX2                !
 ! A50   A(23,22,25)           107.694          estimate D2E/DX2                !
 ! A51   A(24,22,25)           106.8397         estimate D2E/DX2                !
 ! A52   A(14,26,27)           112.4354         estimate D2E/DX2                !
 ! A53   A(14,26,28)           112.5367         estimate D2E/DX2                !
 ! A54   A(14,26,35)           109.5736         estimate D2E/DX2                !
 ! A55   A(27,26,28)           110.6158         estimate D2E/DX2                !
 ! A56   A(27,26,35)           109.3585         estimate D2E/DX2                !
 ! A57   A(28,26,35)           101.7687         estimate D2E/DX2                !
 ! A58   A(30,29,34)           129.5969         estimate D2E/DX2                !
 ! A59   A(30,29,35)           108.9375         estimate D2E/DX2                !
 ! A60   A(34,29,35)           121.4639         estimate D2E/DX2                !
 ! A61   A(29,30,31)           110.988          estimate D2E/DX2                !
 ! A62   A(29,30,32)           111.0953         estimate D2E/DX2                !
 ! A63   A(29,30,33)           112.904          estimate D2E/DX2                !
 ! A64   A(31,30,32)           106.8566         estimate D2E/DX2                !
 ! A65   A(31,30,33)           107.3303         estimate D2E/DX2                !
 ! A66   A(32,30,33)           107.3772         estimate D2E/DX2                !
 ! A67   A(26,35,29)           118.4795         estimate D2E/DX2                !
 ! D1    D(11,1,2,3)             1.5739         estimate D2E/DX2                !
 ! D2    D(11,1,2,5)           117.7422         estimate D2E/DX2                !
 ! D3    D(11,1,2,16)         -124.5765         estimate D2E/DX2                !
 ! D4    D(13,1,2,3)          -177.843          estimate D2E/DX2                !
 ! D5    D(13,1,2,5)           -61.6748         estimate D2E/DX2                !
 ! D6    D(13,1,2,16)           56.0065         estimate D2E/DX2                !
 ! D7    D(2,1,11,4)             0.3624         estimate D2E/DX2                !
 ! D8    D(2,1,11,7)           178.4192         estimate D2E/DX2                !
 ! D9    D(13,1,11,4)          179.812          estimate D2E/DX2                !
 ! D10   D(13,1,11,7)           -2.1311         estimate D2E/DX2                !
 ! D11   D(1,2,3,4)             -2.7567         estimate D2E/DX2                !
 ! D12   D(1,2,3,6)            112.0399         estimate D2E/DX2                !
 ! D13   D(1,2,3,14)          -124.3566         estimate D2E/DX2                !
 ! D14   D(5,2,3,4)           -118.1648         estimate D2E/DX2                !
 ! D15   D(5,2,3,6)             -3.3682         estimate D2E/DX2                !
 ! D16   D(5,2,3,14)           120.2353         estimate D2E/DX2                !
 ! D17   D(16,2,3,4)           118.5819         estimate D2E/DX2                !
 ! D18   D(16,2,3,6)          -126.6215         estimate D2E/DX2                !
 ! D19   D(16,2,3,14)           -3.018          estimate D2E/DX2                !
 ! D20   D(1,2,16,17)          -30.2632         estimate D2E/DX2                !
 ! D21   D(1,2,16,18)           88.8515         estimate D2E/DX2                !
 ! D22   D(1,2,16,22)         -147.7292         estimate D2E/DX2                !
 ! D23   D(3,2,16,17)         -149.5981         estimate D2E/DX2                !
 ! D24   D(3,2,16,18)          -30.4834         estimate D2E/DX2                !
 ! D25   D(3,2,16,22)           92.9359         estimate D2E/DX2                !
 ! D26   D(5,2,16,17)           86.9556         estimate D2E/DX2                !
 ! D27   D(5,2,16,18)         -153.9297         estimate D2E/DX2                !
 ! D28   D(5,2,16,22)          -30.5104         estimate D2E/DX2                !
 ! D29   D(2,3,4,11)             3.0375         estimate D2E/DX2                !
 ! D30   D(2,3,4,12)          -178.0432         estimate D2E/DX2                !
 ! D31   D(6,3,4,11)          -112.89           estimate D2E/DX2                !
 ! D32   D(6,3,4,12)            66.0293         estimate D2E/DX2                !
 ! D33   D(14,3,4,11)          129.0609         estimate D2E/DX2                !
 ! D34   D(14,3,4,12)          -52.0198         estimate D2E/DX2                !
 ! D35   D(2,3,14,15)          154.8688         estimate D2E/DX2                !
 ! D36   D(2,3,14,20)           34.9604         estimate D2E/DX2                !
 ! D37   D(2,3,14,26)          -88.0678         estimate D2E/DX2                !
 ! D38   D(4,3,14,15)           35.3126         estimate D2E/DX2                !
 ! D39   D(4,3,14,20)          -84.5959         estimate D2E/DX2                !
 ! D40   D(4,3,14,26)          152.376          estimate D2E/DX2                !
 ! D41   D(6,3,14,15)          -81.6061         estimate D2E/DX2                !
 ! D42   D(6,3,14,20)          158.4855         estimate D2E/DX2                !
 ! D43   D(6,3,14,26)           35.4573         estimate D2E/DX2                !
 ! D44   D(3,4,11,1)            -2.1866         estimate D2E/DX2                !
 ! D45   D(3,4,11,7)           179.7532         estimate D2E/DX2                !
 ! D46   D(12,4,11,1)          178.8341         estimate D2E/DX2                !
 ! D47   D(12,4,11,7)            0.7739         estimate D2E/DX2                !
 ! D48   D(8,7,11,1)           -89.2268         estimate D2E/DX2                !
 ! D49   D(8,7,11,4)            88.6281         estimate D2E/DX2                !
 ! D50   D(9,7,11,1)            30.8246         estimate D2E/DX2                !
 ! D51   D(9,7,11,4)          -151.3205         estimate D2E/DX2                !
 ! D52   D(10,7,11,1)          150.764          estimate D2E/DX2                !
 ! D53   D(10,7,11,4)          -31.3811         estimate D2E/DX2                !
 ! D54   D(3,14,20,18)         -35.3383         estimate D2E/DX2                !
 ! D55   D(3,14,20,21)         145.4909         estimate D2E/DX2                !
 ! D56   D(15,14,20,18)       -154.6084         estimate D2E/DX2                !
 ! D57   D(15,14,20,21)         26.2208         estimate D2E/DX2                !
 ! D58   D(26,14,20,18)         87.2728         estimate D2E/DX2                !
 ! D59   D(26,14,20,21)        -91.898          estimate D2E/DX2                !
 ! D60   D(3,14,26,27)         -53.2117         estimate D2E/DX2                !
 ! D61   D(3,14,26,28)          72.5039         estimate D2E/DX2                !
 ! D62   D(3,14,26,35)        -175.0436         estimate D2E/DX2                !
 ! D63   D(15,14,26,27)         64.087          estimate D2E/DX2                !
 ! D64   D(15,14,26,28)       -170.1974         estimate D2E/DX2                !
 ! D65   D(15,14,26,35)        -57.7449         estimate D2E/DX2                !
 ! D66   D(20,14,26,27)       -176.9064         estimate D2E/DX2                !
 ! D67   D(20,14,26,28)        -51.1908         estimate D2E/DX2                !
 ! D68   D(20,14,26,35)         61.2617         estimate D2E/DX2                !
 ! D69   D(2,16,18,19)        -146.5767         estimate D2E/DX2                !
 ! D70   D(2,16,18,20)          34.3051         estimate D2E/DX2                !
 ! D71   D(17,16,18,19)        -28.2173         estimate D2E/DX2                !
 ! D72   D(17,16,18,20)        152.6646         estimate D2E/DX2                !
 ! D73   D(22,16,18,19)         89.346          estimate D2E/DX2                !
 ! D74   D(22,16,18,20)        -89.7722         estimate D2E/DX2                !
 ! D75   D(2,16,22,23)          58.8432         estimate D2E/DX2                !
 ! D76   D(2,16,22,24)         178.6489         estimate D2E/DX2                !
 ! D77   D(2,16,22,25)         -62.0989         estimate D2E/DX2                !
 ! D78   D(17,16,22,23)        -58.4946         estimate D2E/DX2                !
 ! D79   D(17,16,22,24)         61.3111         estimate D2E/DX2                !
 ! D80   D(17,16,22,25)       -179.4367         estimate D2E/DX2                !
 ! D81   D(18,16,22,23)       -176.7148         estimate D2E/DX2                !
 ! D82   D(18,16,22,24)        -56.9091         estimate D2E/DX2                !
 ! D83   D(18,16,22,25)         62.3431         estimate D2E/DX2                !
 ! D84   D(16,18,20,14)         -0.4002         estimate D2E/DX2                !
 ! D85   D(16,18,20,21)        178.7093         estimate D2E/DX2                !
 ! D86   D(19,18,20,14)       -179.4577         estimate D2E/DX2                !
 ! D87   D(19,18,20,21)         -0.3483         estimate D2E/DX2                !
 ! D88   D(14,26,35,29)         82.6578         estimate D2E/DX2                !
 ! D89   D(27,26,35,29)        -41.0011         estimate D2E/DX2                !
 ! D90   D(28,26,35,29)       -158.0281         estimate D2E/DX2                !
 ! D91   D(34,29,30,31)        -59.8031         estimate D2E/DX2                !
 ! D92   D(34,29,30,32)         58.94           estimate D2E/DX2                !
 ! D93   D(34,29,30,33)        179.6372         estimate D2E/DX2                !
 ! D94   D(35,29,30,31)        120.6789         estimate D2E/DX2                !
 ! D95   D(35,29,30,32)       -120.5779         estimate D2E/DX2                !
 ! D96   D(35,29,30,33)          0.1193         estimate D2E/DX2                !
 ! D97   D(30,29,35,26)       -178.7721         estimate D2E/DX2                !
 ! D98   D(34,29,35,26)          1.6633         estimate D2E/DX2                !
 --------------------------------------------------------------------------------
 Trust Radius=3.00D-01 FncErr=1.00D-07 GrdErr=1.00D-06
 Number of steps in this run=    210 maximum allowed number of steps=    210.
 GradGradGradGradGradGradGradGradGradGradGradGradGradGradGradGradGradGrad

                          Input orientation:                          
 ---------------------------------------------------------------------
 Center     Atomic      Atomic             Coordinates (Angstroms)
 Number     Number       Type             X           Y           Z
 ---------------------------------------------------------------------
      1          6           0       -2.883796    0.254338   -0.212888
      2          6           0       -1.554364    0.845080   -0.699824
      3          6           0       -0.564971   -0.350597   -0.747927
      4          6           0       -1.351875   -1.558913   -0.219534
      5          1           0       -1.711060    1.228208   -1.740558
      6          1           0       -0.307694   -0.564925   -1.818273
      7          6           0       -3.740865   -2.028939    0.553190
      8          1           0       -3.740361   -2.040331    1.657517
      9          1           0       -4.734095   -1.690369    0.208559
     10          1           0       -3.577503   -3.060867    0.194531
     11          7           0       -2.686213   -1.133446    0.037597
     12          8           0       -0.963595   -2.690337   -0.053308
     13          8           0       -3.941955    0.818439   -0.061842
     14          6           0        0.739778   -0.194886    0.060570
     15          1           0        1.113066   -1.225612    0.320288
     16          6           0       -1.163844    2.037359    0.209955
     17          1           0       -2.118184    2.503241    0.581880
     18          6           0       -0.349992    1.592816    1.396942
     19          1           0       -0.507941    2.163652    2.310735
     20          6           0        0.518099    0.581574    1.329688
     21          1           0        1.123695    0.269206    2.178524
     22          6           0       -0.401478    3.108484   -0.577413
     23          1           0       -0.990828    3.495673   -1.415930
     24          1           0       -0.147333    3.961923    0.063819
     25          1           0        0.547383    2.721416   -0.985073
     26          6           0        1.814672    0.484562   -0.808288
     27          1           0        1.963403   -0.030055   -1.773480
     28          1           0        1.611867    1.568068   -0.968669
     29          6           0        3.877408   -0.599668   -0.099585
     30          6           0        5.083807   -0.340576    0.724175
     31          1           0        5.160793   -1.066595    1.551615
     32          1           0        6.003851   -0.441204    0.123610
     33          1           0        5.090382    0.667853    1.170319
     34          8           0        3.567219   -1.589506   -0.723619
     35          8           0        3.074405    0.522784   -0.083351
 ---------------------------------------------------------------------
                    Distance matrix (angstroms):
                    1          2          3          4          5
     1  C    0.000000
     2  C    1.534103   0.000000
     3  C    2.455435   1.552693   0.000000
     4  C    2.373753   2.459850   1.535723   0.000000
     5  H    2.158126   1.120030   2.188941   3.195398   0.000000
     6  H    3.144003   2.189344   1.121503   2.152741   2.278333
     7  C    2.556325   3.822410   3.820476   2.554467   4.471062
     8  H    3.081822   4.319865   4.327177   3.075703   5.133062
     9  H    2.717188   4.167055   4.482349   3.411738   4.632050
    10  H    3.411423   4.488807   4.160425   2.716751   5.062049
    11  N    1.423983   2.395712   2.393652   1.423937   3.112903
    12  O    3.519055   3.642275   2.473010   1.207689   4.331341
    13  O    1.208605   2.471502   3.638871   3.519259   2.821859
    14  C    3.661539   2.631124   1.542817   2.512775   3.357956
    15  H    4.295280   3.527545   2.173141   2.545276   4.271300
    16  C    2.513204   1.549753   2.641689   3.626705   2.181438
    17  H    2.505071   2.170289   3.510733   4.210771   2.680518
    18  C    3.286828   2.531017   2.902332   3.681054   3.439382
    19  H    3.957125   3.449217   3.959812   4.579517   4.328455
    20  C    3.749602   2.912638   2.521600   3.237063   3.848856
    21  H    4.666804   3.973477   3.435093   3.901429   4.930996
    22  C    3.800122   2.543055   3.467138   4.776602   2.569698
    23  H    3.941686   2.802860   3.927006   5.206780   2.401149
    24  H    4.616382   3.503940   4.408081   5.657812   3.629630
    25  H    4.296014   2.831845   3.275795   4.744939   2.810870
    26  C    4.741635   3.390006   2.522664   3.814373   3.721951
    27  H    5.100163   3.780646   2.747213   3.967773   3.884068
    28  H    4.744268   3.258835   2.910090   4.372983   3.428288
    29  C    6.815867   5.652586   4.496345   5.317889   6.104498
    30  C    8.044545   6.891942   5.837455   6.617623   7.396365
    31  H    8.341088   7.335994   6.211676   6.767140   7.957819
    32  H    8.921170   7.710978   6.627006   7.448069   8.110605
    33  H    8.103812   6.905179   6.058046   6.956497   7.419354
    34  O    6.728759   5.670837   4.313987   4.944949   6.069094
    35  O    5.965652   4.680750   3.801252   4.893257   5.113182
                    6          7          8          9         10
     6  H    0.000000
     7  C    4.421972   0.000000
     8  H    5.103052   1.104386   0.000000
     9  H    4.996769   1.104494   1.791497   0.000000
    10  H    4.579602   1.104626   1.791185   1.793367   0.000000
    11  N    3.069987   1.476494   2.134903   2.129134   2.129314
    12  O    2.839487   2.918650   3.325637   3.909627   2.651647
    13  O    4.266919   2.919977   3.342065   2.644753   3.904813
    14  C    2.182700   4.866476   5.101721   5.676412   5.183696
    15  H    2.651134   4.925467   5.099775   5.866666   5.038394
    16  C    3.408604   4.826347   5.036013   5.161652   5.640735
    17  H    4.295608   4.813998   4.942924   4.956685   5.765323
    18  C    3.872369   5.032598   4.976169   5.604634   5.789593
    19  H    4.953175   5.578403   5.343099   6.093685   6.418421
    20  C    3.450515   5.055344   5.011620   5.831312   5.597313
    21  H    4.326550   5.620242   5.409663   6.483394   6.093183
    22  C    3.878461   6.230801   6.530953   6.512934   6.981685
    23  H    4.137271   6.477768   6.903140   6.598943   7.229985
    24  H    4.905134   7.003098   7.174732   7.280641   7.816824
    25  H    3.496486   6.581884   6.931253   6.984455   7.200066
    26  C    2.574088   6.247824   6.581312   6.975002   6.530794
    27  H    2.333661   6.476697   6.953120   7.179248   6.615174
    28  H    2.992691   6.626179   6.968769   7.230111   7.050506
    29  C    4.524398   7.778625   7.949423   8.685768   7.856189
    30  C    5.965120   8.986359   9.034724   9.923659   9.093888
    31  H    6.442994   9.009022   8.954882  10.005084   9.065132
    32  H    6.604681   9.882557   9.992985  10.810694   9.933278
    33  H    6.292110   9.254429   9.249521  10.149214   9.486187
    34  O    4.154875   7.431785   7.698947   8.354097   7.352207
    35  O    3.953689   7.305093   7.486068   8.121326   7.560929
                   11         12         13         14         15
    11  N    0.000000
    12  O    2.323701   0.000000
    13  O    2.323065   4.602414   0.000000
    14  C    3.552300   3.023528   4.791705   0.000000
    15  H    3.810896   2.568563   5.466023   1.126585   0.000000
    16  C    3.521551   4.739253   3.045905   2.937518   3.980386
    17  H    3.720805   5.358152   2.564971   3.964795   4.941027
    18  C    3.839043   4.563456   3.953468   2.483821   3.353097
    19  H    4.558824   5.418259   4.385336   3.490379   4.251665
    20  C    3.857254   3.848831   4.678092   1.504225   2.153786
    21  H    4.589815   4.254027   5.566121   2.201932   2.384876
    22  C    4.857182   5.849529   4.247952   3.552709   4.678044
    23  H    5.139632   6.334367   4.208359   4.335352   5.452647
    24  H    5.692924   6.703176   4.929142   4.250416   5.344614
    25  H    5.134390   5.695464   4.962644   3.104062   4.195592
    26  C    4.857102   4.285878   5.814414   1.540117   2.165786
    27  H    5.110421   4.313167   6.206682   2.210920   2.556618
    28  H    5.175349   5.060129   5.677078   2.219883   3.116867
    29  C    6.586718   5.273362   7.947005   3.167684   2.865255
    30  C    7.840487   6.534289   9.133757   4.396838   4.088178
    31  H    7.992010   6.536088   9.434862   4.746416   4.233857
    32  H    8.718016   7.323606  10.026971   5.270210   4.957192
    33  H    8.062454   7.030316   9.117237   4.572047   4.486291
    34  O    6.316079   4.710565   7.913523   3.248744   2.691659
    35  O    5.995202   5.160474   7.022619   2.446681   2.658320
                   16         17         18         19         20
    16  C    0.000000
    17  H    1.125228   0.000000
    18  C    1.506291   2.149349   0.000000
    19  H    2.204413   2.386869   1.088953   0.000000
    20  C    2.490390   3.346940   1.334435   2.125602   0.000000
    21  H    3.497780   4.248525   2.129452   2.503726   1.088505
    22  C    1.532468   2.158091   2.489574   3.040632   3.296654
    23  H    2.190917   2.499419   3.455978   3.986915   4.278697
    24  H    2.181421   2.506071   2.725978   2.900422   3.670420
    25  H    2.196434   3.099708   2.784424   3.505305   3.152443
    26  C    3.509922   4.634111   3.282840   4.235821   2.502290
    27  H    4.241213   5.350202   4.247009   5.253637   3.477448
    28  H    3.051878   4.146327   3.073373   3.950038   2.729825
    29  C    5.697714   6.785246   4.991742   5.716368   3.837071
    30  C    6.704636   7.744431   5.806616   6.328979   4.697094
    31  H    7.171863   8.165024   6.120878   6.568509   4.931564
    32  H    7.584628   8.651429   6.791902   7.346579   5.709131
    33  H    6.474040   7.461792   5.523095   5.905860   4.575873
    34  O    6.033960   7.125918   5.474349   6.316679   4.269285
    35  O    4.510291   5.597117   3.881073   4.610564   2.921444
                   21         22         23         24         25
    21  H    0.000000
    22  C    4.240618   0.000000
    23  H    5.272703   1.095609   0.000000
    24  H    4.441131   1.097327   1.765936   0.000000
    25  H    4.043985   1.102881   1.775163   1.766823   0.000000
    26  C    3.073251   3.442323   4.160150   4.086817   2.576973
    27  H    4.051296   4.107757   4.613684   4.875117   3.193320
    28  H    3.439503   2.565058   3.269514   3.145053   1.569588
    29  C    3.677996   5.682216   6.496484   6.085504   4.785682
    30  C    4.262564   6.608971   7.496536   6.805321   5.733800
    31  H    4.298318   7.273438   8.213590   7.461617   6.485936
    32  H    5.342591   7.356627   8.172804   7.564930   6.403467
    33  H    4.112177   6.258736   7.187932   6.285610   5.431544
    34  O    4.224696   6.151670   6.863974   6.725795   5.269897
    35  O    2.997607   4.360241   5.209602   4.714757   3.468851
                   26         27         28         29         30
    26  C    0.000000
    27  H    1.103878   0.000000
    28  H    1.113929   1.823539   0.000000
    29  C    2.435712   2.605724   3.253777   0.000000
    30  C    3.703585   4.008943   4.308481   1.483613   0.000000
    31  H    4.378556   4.727999   5.088041   2.142792   1.103489
    32  H    4.390296   4.482545   4.951744   2.143988   1.103307
    33  H    3.831287   4.350980   4.181593   2.165773   1.102731
    34  O    2.716680   2.471097   3.722059   1.210543   2.440486
    35  O    1.453933   2.096781   2.003852   1.380209   2.331348
                   31         32         33         34         35
    31  H    0.000000
    32  H    1.772303   0.000000
    33  H    1.777260   1.777648   0.000000
    34  O    2.826589   2.823751   3.317031   0.000000
    35  O    3.090672   3.090916   2.378423   2.261543   0.000000
 Stoichiometry    C13H17NO4
 Framework group  C1[X(C13H17NO4)]
 Deg. of freedom    99
 Full point group                 C1      NOp   1
 Largest Abelian subgroup         C1      NOp   1
 Largest concise Abelian subgroup C1      NOp   1
                         Standard orientation:                         
 ---------------------------------------------------------------------
 Center     Atomic      Atomic             Coordinates (Angstroms)
 Number     Number       Type             X           Y           Z
 ---------------------------------------------------------------------
      1          6           0       -2.883796    0.254338   -0.212888
      2          6           0       -1.554364    0.845080   -0.699824
      3          6           0       -0.564971   -0.350597   -0.747927
      4          6           0       -1.351875   -1.558913   -0.219534
      5          1           0       -1.711060    1.228208   -1.740558
      6          1           0       -0.307694   -0.564925   -1.818273
      7          6           0       -3.740865   -2.028939    0.553190
      8          1           0       -3.740361   -2.040331    1.657517
      9          1           0       -4.734095   -1.690369    0.208559
     10          1           0       -3.577503   -3.060867    0.194531
     11          7           0       -2.686213   -1.133446    0.037597
     12          8           0       -0.963595   -2.690337   -0.053308
     13          8           0       -3.941955    0.818439   -0.061842
     14          6           0        0.739778   -0.194886    0.060570
     15          1           0        1.113066   -1.225612    0.320288
     16          6           0       -1.163844    2.037359    0.209955
     17          1           0       -2.118184    2.503241    0.581880
     18          6           0       -0.349992    1.592816    1.396942
     19          1           0       -0.507941    2.163652    2.310735
     20          6           0        0.518099    0.581574    1.329688
     21          1           0        1.123695    0.269206    2.178524
     22          6           0       -0.401478    3.108484   -0.577413
     23          1           0       -0.990828    3.495673   -1.415930
     24          1           0       -0.147333    3.961923    0.063819
     25          1           0        0.547383    2.721416   -0.985073
     26          6           0        1.814672    0.484562   -0.808288
     27          1           0        1.963403   -0.030055   -1.773480
     28          1           0        1.611867    1.568068   -0.968669
     29          6           0        3.877408   -0.599668   -0.099585
     30          6           0        5.083807   -0.340576    0.724175
     31          1           0        5.160793   -1.066595    1.551615
     32          1           0        6.003851   -0.441204    0.123610
     33          1           0        5.090382    0.667853    1.170319
     34          8           0        3.567219   -1.589506   -0.723619
     35          8           0        3.074405    0.522784   -0.083351
 ---------------------------------------------------------------------
 Rotational constants (GHZ):      0.7448112      0.2690621      0.2181422
 Standard basis: def2SVP (5D, 7F)
 There are   355 symmetry adapted cartesian basis functions of A   symmetry.
 There are   337 symmetry adapted basis functions of A   symmetry.
   337 basis functions,   569 primitive gaussians,   355 cartesian basis functions
    67 alpha electrons       67 beta electrons
       nuclear repulsion energy      1384.1313226682 Hartrees.
 NAtoms=   35 NActive=   35 NUniq=   35 SFac= 1.00D+00 NAtFMM=   60 NAOKFM=F Big=F
 Integral buffers will be    131072 words long.
 Raffenetti 2 integral format.
 Two-electron integral symmetry is turned on.
 Nuclear repulsion after empirical dispersion term =     1384.1291427230 Hartrees.
 ------------------------------------------------------------------------------
 Polarizable Continuum Model (PCM)
 =================================
 Model                : C-PCM.
 Atomic radii         : UFF (Universal Force Field).
 Polarization charges : Total charges.
 Charge compensation  : None.
 Solution method      : On-the-fly selection.
 Cavity type          : Scaled VdW (van der Waals Surface) (Alpha=1.100).
 Cavity algorithm     : GePol (No added spheres)
                        Default sphere list used, NSphG=   35.
                        Lebedev-Laikov grids with approx.  5.0 points / Ang**2.
                        Smoothing algorithm: Karplus/York (Gamma=1.0000).
                        Polarization charges: spherical gaussians, with
                                              point-specific exponents (IZeta= 3).
                        Self-potential: point-specific (ISelfS= 7).
                        Self-field    : sphere-specific E.n sum rule (ISelfD= 2).
 1st derivatives      : Analytical E(r).r(x)/FMM algorithm (CHGder, D1EAlg=3).
                        Cavity 1st derivative terms included.
 Solvent              : Toluene, Eps=   2.374100 Eps(inf)=   2.238315
 ------------------------------------------------------------------------------
 One-electron integrals computed using PRISM.
   1 Symmetry operations used in ECPInt.
 ECPInt:  NShTT=   12720 NPrTT=   45736 LenC2=   11780 LenP2D=   30424.
 LDataN:  DoStor=T MaxTD1= 4 Len=   56
 NBasis=   337 RedAO= T EigKep=  3.37D-04  NBF=   337
 NBsUse=   337 1.00D-06 EigRej= -1.00D+00 NBFU=   337
 ExpMin= 1.22D-01 ExpMax= 2.27D+03 ExpMxC= 3.41D+02 IAcc=1 IRadAn=         1 AccDes= 0.00D+00
 Harris functional with IExCor= 1009 and IRadAn=       1 diagonalized for initial guess.
 HarFok:  IExCor= 1009 AccDes= 0.00D+00 IRadAn=         1 IDoV= 1 UseB2=F ITyADJ=14
 ICtDFT=  3500011 ScaDFX=  1.000000  1.000000  1.000000  1.000000
 FoFCou: FMM=F IPFlag=           0 FMFlag=      100000 FMFlg1=           0
         NFxFlg=           0 DoJE=T BraDBF=F KetDBF=T FulRan=T
         wScrn=  0.000000 ICntrl=     500 IOpCl=  0 I1Cent=   200000004 NGrid=           0
         NMat0=    1 NMatS0=      1 NMatT0=    0 NMatD0=    1 NMtDS0=    0 NMtDT0=    0
 Petite list used in FoFCou.
 Requested convergence on RMS density matrix=1.00D-08 within 128 cycles.
 Requested convergence on MAX density matrix=1.00D-06.
 Requested convergence on             energy=1.00D-06.
 No special actions if energy rises.
 Inv3:  Mode=1 IEnd=    18630192.
 Iteration    1 A*A^-1 deviation from unit magnitude is 8.33D-15 for   2480.
 Iteration    1 A*A^-1 deviation from orthogonality  is 2.89D-15 for   1253   1127.
 Iteration    1 A^-1*A deviation from unit magnitude is 8.33D-15 for   2480.
 Iteration    1 A^-1*A deviation from orthogonality  is 1.68D-15 for   1253   1127.
 Error on total polarization charges =  0.00549
 SCF Done:  E(RM062X) =  -860.305557281     A.U. after   13 cycles
            NFock= 13  Conv=0.61D-08     -V/T= 2.0104

 **********************************************************************

            Population analysis using the SCF density.

 **********************************************************************

 Orbital symmetries:
       Occupied  (A) (A) (A) (A) (A) (A) (A) (A) (A) (A) (A) (A)
                 (A) (A) (A) (A) (A) (A) (A) (A) (A) (A) (A) (A)
                 (A) (A) (A) (A) (A) (A) (A) (A) (A) (A) (A) (A)
                 (A) (A) (A) (A) (A) (A) (A) (A) (A) (A) (A) (A)
                 (A) (A) (A) (A) (A) (A) (A) (A) (A) (A) (A) (A)
                 (A) (A) (A) (A) (A) (A) (A)
       Virtual   (A) (A) (A) (A) (A) (A) (A) (A) (A) (A) (A) (A)
                 (A) (A) (A) (A) (A) (A) (A) (A) (A) (A) (A) (A)
                 (A) (A) (A) (A) (A) (A) (A) (A) (A) (A) (A) (A)
                 (A) (A) (A) (A) (A) (A) (A) (A) (A) (A) (A) (A)
                 (A) (A) (A) (A) (A) (A) (A) (A) (A) (A) (A) (A)
                 (A) (A) (A) (A) (A) (A) (A) (A) (A) (A) (A) (A)
                 (A) (A) (A) (A) (A) (A) (A) (A) (A) (A) (A) (A)
                 (A) (A) (A) (A) (A) (A) (A) (A) (A) (A) (A) (A)
                 (A) (A) (A) (A) (A) (A) (A) (A) (A) (A) (A) (A)
                 (A) (A) (A) (A) (A) (A) (A) (A) (A) (A) (A) (A)
                 (A) (A) (A) (A) (A) (A) (A) (A) (A) (A) (A) (A)
                 (A) (A) (A) (A) (A) (A) (A) (A) (A) (A) (A) (A)
                 (A) (A) (A) (A) (A) (A) (A) (A) (A) (A) (A) (A)
                 (A) (A) (A) (A) (A) (A) (A) (A) (A) (A) (A) (A)
                 (A) (A) (A) (A) (A) (A) (A) (A) (A) (A) (A) (A)
                 (A) (A) (A) (A) (A) (A) (A) (A) (A) (A) (A) (A)
                 (A) (A) (A) (A) (A) (A) (A) (A) (A) (A) (A) (A)
                 (A) (A) (A) (A) (A) (A) (A) (A) (A) (A) (A) (A)
                 (A) (A) (A) (A) (A) (A) (A) (A) (A) (A) (A) (A)
                 (A) (A) (A) (A) (A) (A) (A) (A) (A) (A) (A) (A)
                 (A) (A) (A) (A) (A) (A) (A) (A) (A) (A) (A) (A)
                 (A) (A) (A) (A) (A) (A) (A) (A) (A) (A) (A) (A)
                 (A) (A) (A) (A) (A) (A)
 The electronic state is 1-A.
 Alpha  occ. eigenvalues --  -19.67207 -19.63299 -19.63249 -19.62986 -14.81470
 Alpha  occ. eigenvalues --  -10.69405 -10.68231 -10.68163 -10.61862 -10.59807
 Alpha  occ. eigenvalues --  -10.58938 -10.58639 -10.57910 -10.57746 -10.56642
 Alpha  occ. eigenvalues --  -10.56205 -10.56085 -10.55435  -1.20928  -1.18056
 Alpha  occ. eigenvalues --   -1.16525  -1.12137  -1.04488  -0.96161  -0.89099
 Alpha  occ. eigenvalues --   -0.87794  -0.85286  -0.81170  -0.78423  -0.77238
 Alpha  occ. eigenvalues --   -0.72848  -0.69362  -0.69019  -0.64652  -0.62668
 Alpha  occ. eigenvalues --   -0.60087  -0.58351  -0.58103  -0.56751  -0.56097
 Alpha  occ. eigenvalues --   -0.55536  -0.54922  -0.53888  -0.52200  -0.51568
 Alpha  occ. eigenvalues --   -0.51165  -0.50171  -0.49982  -0.49482  -0.48326
 Alpha  occ. eigenvalues --   -0.46987  -0.46709  -0.46417  -0.45453  -0.44649
 Alpha  occ. eigenvalues --   -0.44145  -0.43055  -0.42768  -0.40684  -0.39591
 Alpha  occ. eigenvalues --   -0.37733  -0.37275  -0.36612  -0.35836  -0.33769
 Alpha  occ. eigenvalues --   -0.33391  -0.31543
 Alpha virt. eigenvalues --    0.01771   0.03660   0.04240   0.05411   0.08931
 Alpha virt. eigenvalues --    0.10697   0.11356   0.11795   0.12355   0.13663
 Alpha virt. eigenvalues --    0.14741   0.15024   0.15631   0.16569   0.16737
 Alpha virt. eigenvalues --    0.17799   0.18115   0.18399   0.19289   0.19658
 Alpha virt. eigenvalues --    0.20206   0.20510   0.21323   0.22615   0.23426
 Alpha virt. eigenvalues --    0.24118   0.27052   0.27492   0.28326   0.28640
 Alpha virt. eigenvalues --    0.29677   0.31248   0.32052   0.33546   0.35109
 Alpha virt. eigenvalues --    0.36114   0.36458   0.38721   0.41743   0.43719
 Alpha virt. eigenvalues --    0.44562   0.44885   0.46341   0.47374   0.48246
 Alpha virt. eigenvalues --    0.49214   0.49472   0.50050   0.50301   0.50773
 Alpha virt. eigenvalues --    0.52503   0.54726   0.55451   0.57002   0.57619
 Alpha virt. eigenvalues --    0.58513   0.59357   0.60931   0.62838   0.63095
 Alpha virt. eigenvalues --    0.64407   0.65927   0.66162   0.66521   0.67043
 Alpha virt. eigenvalues --    0.68520   0.68773   0.69094   0.69493   0.69723
 Alpha virt. eigenvalues --    0.69999   0.70389   0.70536   0.70613   0.70966
 Alpha virt. eigenvalues --    0.71100   0.71706   0.71939   0.72490   0.72874
 Alpha virt. eigenvalues --    0.73698   0.74163   0.74216   0.75045   0.75267
 Alpha virt. eigenvalues --    0.76055   0.76855   0.77294   0.77913   0.79454
 Alpha virt. eigenvalues --    0.81089   0.82215   0.83553   0.86261   0.86454
 Alpha virt. eigenvalues --    0.87781   0.89514   0.89900   0.91463   0.92655
 Alpha virt. eigenvalues --    0.94271   0.96281   0.96785   0.98964   1.02306
 Alpha virt. eigenvalues --    1.04629   1.05472   1.08808   1.10587   1.12111
 Alpha virt. eigenvalues --    1.12934   1.14926   1.15408   1.16412   1.18339
 Alpha virt. eigenvalues --    1.19176   1.20253   1.22286   1.22904   1.25737
 Alpha virt. eigenvalues --    1.27497   1.29933   1.31126   1.31888   1.33045
 Alpha virt. eigenvalues --    1.34405   1.35565   1.39016   1.41443   1.43172
 Alpha virt. eigenvalues --    1.43525   1.44626   1.49959   1.51975   1.54708
 Alpha virt. eigenvalues --    1.55211   1.57040   1.57227   1.57719   1.58122
 Alpha virt. eigenvalues --    1.59338   1.61121   1.62342   1.63256   1.64306
 Alpha virt. eigenvalues --    1.65686   1.67240   1.68178   1.69148   1.70708
 Alpha virt. eigenvalues --    1.71769   1.73015   1.74044   1.75588   1.76345
 Alpha virt. eigenvalues --    1.77014   1.77348   1.79396   1.79711   1.81427
 Alpha virt. eigenvalues --    1.81706   1.81938   1.82828   1.83110   1.83817
 Alpha virt. eigenvalues --    1.84072   1.84726   1.85618   1.86417   1.86673
 Alpha virt. eigenvalues --    1.87953   1.89139   1.90581   1.90783   1.92365
 Alpha virt. eigenvalues --    1.94304   1.94830   1.96138   1.97167   1.98641
 Alpha virt. eigenvalues --    1.99132   2.00613   2.01263   2.02806   2.03899
 Alpha virt. eigenvalues --    2.04439   2.04649   2.07487   2.07983   2.08429
 Alpha virt. eigenvalues --    2.08950   2.10608   2.11821   2.13332   2.13800
 Alpha virt. eigenvalues --    2.14124   2.16054   2.17155   2.20714   2.23997
 Alpha virt. eigenvalues --    2.25150   2.27819   2.30213   2.30830   2.31479
 Alpha virt. eigenvalues --    2.33889   2.35147   2.38500   2.41365   2.41802
 Alpha virt. eigenvalues --    2.42933   2.43698   2.45395   2.47217   2.47797
 Alpha virt. eigenvalues --    2.49524   2.52243   2.53419   2.56314   2.56431
 Alpha virt. eigenvalues --    2.58069   2.59867   2.61511   2.62501   2.65243
 Alpha virt. eigenvalues --    2.67058   2.67800   2.69882   2.70403   2.71095
 Alpha virt. eigenvalues --    2.72151   2.73861   2.75837   2.77180   2.78270
 Alpha virt. eigenvalues --    2.79061   2.81503   2.81864   2.82130   2.85047
 Alpha virt. eigenvalues --    2.86692   2.88157   2.89301   2.89961   2.91677
 Alpha virt. eigenvalues --    2.92284   2.92946   2.93307   2.95103   2.97123
 Alpha virt. eigenvalues --    2.98073   2.99099   3.01371   3.02950   3.06351
 Alpha virt. eigenvalues --    3.07648   3.14400   3.15762   3.21411   3.22008
 Alpha virt. eigenvalues --    3.24133   3.26712   3.34431   3.41654   3.48841
 Alpha virt. eigenvalues --    3.55586   3.62231   3.66039   3.69164   3.70713
          Condensed to atoms (all electrons):
               1          2          3          4          5          6
     1  C    4.628434   0.148119   0.005956  -0.047397   0.006246  -0.000539
     2  C    0.148119   5.784986  -0.001600   0.004669   0.304347   0.012119
     3  C    0.005956  -0.001600   5.780363   0.141239   0.015146   0.304713
     4  C   -0.047397   0.004669   0.141239   4.626652   0.000068   0.008566
     5  H    0.006246   0.304347   0.015146   0.000068   0.612302  -0.014280
     6  H   -0.000539   0.012119   0.304713   0.008566  -0.014280   0.604666
     7  C   -0.020078   0.009580   0.010076  -0.020420  -0.000232  -0.000256
     8  H   -0.001084  -0.000675  -0.000353  -0.001495  -0.000011  -0.000012
     9  H   -0.003487   0.003137  -0.001181   0.004765  -0.000049   0.000047
    10  H    0.004473  -0.001015   0.002937  -0.003465   0.000044  -0.000052
    11  N    0.272410  -0.130291  -0.130779   0.274413   0.003610   0.002561
    12  O    0.000233   0.005255  -0.099468   0.759945  -0.000074   0.002034
    13  O    0.758454  -0.096698   0.005331   0.000263   0.002276  -0.000060
    14  C    0.000774  -0.015997   0.224015  -0.024747  -0.001871  -0.009821
    15  H   -0.000469   0.008639  -0.046599  -0.006138  -0.000324   0.001336
    16  C   -0.027059   0.263411  -0.025607   0.000055  -0.011255  -0.000289
    17  H   -0.003756  -0.058752   0.009055  -0.000599   0.002267  -0.000334
    18  C   -0.000327  -0.030695  -0.031343   0.002120   0.006164   0.001221
    19  H    0.000392   0.008882  -0.000891  -0.000020  -0.000314   0.000042
    20  C    0.003414  -0.045287  -0.015978  -0.000304   0.001602   0.007101
    21  H   -0.000012  -0.000931   0.008790   0.000499   0.000043  -0.000295
    22  C    0.006178  -0.055313  -0.004036   0.000250  -0.009502   0.000465
    23  H    0.000080  -0.006867  -0.000080  -0.000049   0.004567  -0.000068
    24  H   -0.000380   0.010014  -0.000417   0.000013   0.000375   0.000003
    25  H    0.000480  -0.010987   0.003183  -0.000099  -0.000197  -0.000275
    26  C    0.000397  -0.009024  -0.035881   0.005586   0.000798  -0.009750
    27  H   -0.000022  -0.001609   0.002556  -0.000032  -0.000029   0.005625
    28  H   -0.000021   0.003526  -0.005084  -0.000099  -0.000378  -0.000398
    29  C    0.000000   0.000002   0.000330  -0.000093   0.000000   0.000001
    30  C    0.000000   0.000000   0.000010  -0.000002   0.000000   0.000000
    31  H    0.000000   0.000000  -0.000007   0.000000   0.000000   0.000000
    32  H    0.000000   0.000000   0.000001   0.000000   0.000000   0.000000
    33  H    0.000000   0.000000   0.000003   0.000000   0.000000   0.000000
    34  O    0.000000  -0.000002  -0.000289  -0.000032   0.000000  -0.000022
    35  O    0.000001  -0.000130   0.005174  -0.000098  -0.000001   0.000196
               7          8          9         10         11         12
     1  C   -0.020078  -0.001084  -0.003487   0.004473   0.272410   0.000233
     2  C    0.009580  -0.000675   0.003137  -0.001015  -0.130291   0.005255
     3  C    0.010076  -0.000353  -0.001181   0.002937  -0.130779  -0.099468
     4  C   -0.020420  -0.001495   0.004765  -0.003465   0.274413   0.759945
     5  H   -0.000232  -0.000011  -0.000049   0.000044   0.003610  -0.000074
     6  H   -0.000256  -0.000012   0.000047  -0.000052   0.002561   0.002034
     7  C    4.504681   0.413625   0.399670   0.400089   0.242497   0.002706
     8  H    0.413625   0.580005  -0.022910  -0.022834  -0.025958   0.000152
     9  H    0.399670  -0.022910   0.574790  -0.017727  -0.024503   0.000199
    10  H    0.400089  -0.022834  -0.017727   0.574197  -0.024128   0.008140
    11  N    0.242497  -0.025958  -0.024503  -0.024128   7.132497  -0.094089
    12  O    0.002706   0.000152   0.000199   0.008140  -0.094089   7.642788
    13  O    0.002498   0.000176   0.008571   0.000187  -0.095678  -0.000012
    14  C   -0.000092   0.000135  -0.000002  -0.000107  -0.002031   0.000782
    15  H   -0.000064   0.000005   0.000000  -0.000027   0.002337   0.014617
    16  C   -0.000079   0.000152  -0.000098  -0.000005  -0.003679  -0.000027
    17  H   -0.000062   0.000009  -0.000032   0.000000   0.002362   0.000004
    18  C   -0.000169   0.000004   0.000002   0.000003   0.001996  -0.000057
    19  H   -0.000002   0.000002   0.000000   0.000000  -0.000045   0.000002
    20  C   -0.000128   0.000018   0.000001   0.000003   0.000800  -0.000063
    21  H    0.000000   0.000001   0.000000   0.000000  -0.000046  -0.000057
    22  C    0.000008   0.000000   0.000001   0.000000  -0.000347   0.000000
    23  H    0.000000   0.000000   0.000000   0.000000   0.000005   0.000000
    24  H    0.000000   0.000000   0.000000   0.000000   0.000005   0.000000
    25  H    0.000000   0.000000   0.000000   0.000000   0.000006   0.000001
    26  C    0.000007   0.000000   0.000000   0.000001  -0.000334  -0.000339
    27  H    0.000000   0.000000   0.000000   0.000000   0.000006   0.000052
    28  H    0.000000   0.000000   0.000000   0.000000   0.000011  -0.000010
    29  C    0.000000   0.000000   0.000000   0.000000   0.000000  -0.000018
    30  C    0.000000   0.000000   0.000000   0.000000   0.000000   0.000000
    31  H    0.000000   0.000000   0.000000   0.000000   0.000000   0.000000
    32  H    0.000000   0.000000   0.000000   0.000000   0.000000   0.000000
    33  H    0.000000   0.000000   0.000000   0.000000   0.000000   0.000000
    34  O    0.000000   0.000000   0.000000   0.000000   0.000000   0.000000
    35  O    0.000000   0.000000   0.000000   0.000000   0.000000   0.000000
              13         14         15         16         17         18
     1  C    0.758454   0.000774  -0.000469  -0.027059  -0.003756  -0.000327
     2  C   -0.096698  -0.015997   0.008639   0.263411  -0.058752  -0.030695
     3  C    0.005331   0.224015  -0.046599  -0.025607   0.009055  -0.031343
     4  C    0.000263  -0.024747  -0.006138   0.000055  -0.000599   0.002120
     5  H    0.002276  -0.001871  -0.000324  -0.011255   0.002267   0.006164
     6  H   -0.000060  -0.009821   0.001336  -0.000289  -0.000334   0.001221
     7  C    0.002498  -0.000092  -0.000064  -0.000079  -0.000062  -0.000169
     8  H    0.000176   0.000135   0.000005   0.000152   0.000009   0.000004
     9  H    0.008571  -0.000002   0.000000  -0.000098  -0.000032   0.000002
    10  H    0.000187  -0.000107  -0.000027  -0.000005   0.000000   0.000003
    11  N   -0.095678  -0.002031   0.002337  -0.003679   0.002362   0.001996
    12  O   -0.000012   0.000782   0.014617  -0.000027   0.000004  -0.000057
    13  O    7.651669  -0.000053   0.000003   0.000148   0.012268   0.000038
    14  C   -0.000053   5.219913   0.377227  -0.030701   0.000244  -0.033911
    15  H    0.000003   0.377227   0.613011   0.000111   0.000017   0.008590
    16  C    0.000148  -0.030701   0.000111   4.998089   0.379961   0.289875
    17  H    0.012268   0.000244   0.000017   0.379961   0.641810  -0.020397
    18  C    0.000038  -0.033911   0.008590   0.289875  -0.020397   4.990575
    19  H   -0.000040   0.011181  -0.000160  -0.059525  -0.010442   0.436213
    20  C   -0.000012   0.210850  -0.025022  -0.032270   0.009553   0.561869
    21  H    0.000001  -0.059338  -0.010039   0.010970  -0.000192  -0.051817
    22  C   -0.000437   0.000514  -0.000145   0.416798  -0.024686  -0.070252
    23  H    0.000107  -0.000069   0.000006  -0.022087  -0.005703   0.008213
    24  H   -0.000002   0.000220  -0.000001  -0.026063  -0.006768   0.003627
    25  H   -0.000006  -0.002103  -0.000091  -0.025992   0.008013  -0.009133
    26  C    0.000000   0.383425  -0.022498   0.000288  -0.000174  -0.009344
    27  H    0.000000  -0.045436  -0.006173   0.000199   0.000008  -0.000248
    28  H    0.000000  -0.016519   0.006647  -0.000097  -0.000089   0.004624
    29  C    0.000000  -0.004998   0.005643   0.000005   0.000000   0.000023
    30  C    0.000000  -0.001519   0.000109   0.000000   0.000000   0.000002
    31  H    0.000000   0.000157  -0.000024   0.000000   0.000000   0.000002
    32  H    0.000000  -0.000020   0.000005   0.000000   0.000000   0.000000
    33  H    0.000000   0.000002  -0.000071   0.000000   0.000000   0.000002
    34  O    0.000000  -0.009442   0.009919   0.000000   0.000000  -0.000008
    35  O    0.000000  -0.054468  -0.007669   0.000104   0.000000  -0.001126
              19         20         21         22         23         24
     1  C    0.000392   0.003414  -0.000012   0.006178   0.000080  -0.000380
     2  C    0.008882  -0.045287  -0.000931  -0.055313  -0.006867   0.010014
     3  C   -0.000891  -0.015978   0.008790  -0.004036  -0.000080  -0.000417
     4  C   -0.000020  -0.000304   0.000499   0.000250  -0.000049   0.000013
     5  H   -0.000314   0.001602   0.000043  -0.009502   0.004567   0.000375
     6  H    0.000042   0.007101  -0.000295   0.000465  -0.000068   0.000003
     7  C   -0.000002  -0.000128   0.000000   0.000008   0.000000   0.000000
     8  H    0.000002   0.000018   0.000001   0.000000   0.000000   0.000000
     9  H    0.000000   0.000001   0.000000   0.000001   0.000000   0.000000
    10  H    0.000000   0.000003   0.000000   0.000000   0.000000   0.000000
    11  N   -0.000045   0.000800  -0.000046  -0.000347   0.000005   0.000005
    12  O    0.000002  -0.000063  -0.000057   0.000000   0.000000   0.000000
    13  O   -0.000040  -0.000012   0.000001  -0.000437   0.000107  -0.000002
    14  C    0.011181   0.210850  -0.059338   0.000514  -0.000069   0.000220
    15  H   -0.000160  -0.025022  -0.010039  -0.000145   0.000006  -0.000001
    16  C   -0.059525  -0.032270   0.010970   0.416798  -0.022087  -0.026063
    17  H   -0.010442   0.009553  -0.000192  -0.024686  -0.005703  -0.006768
    18  C    0.436213   0.561869  -0.051817  -0.070252   0.008213   0.003627
    19  H    0.636664  -0.052188  -0.012790   0.001652  -0.000250   0.002407
    20  C   -0.052188   5.036253   0.437636  -0.008700   0.000158  -0.002324
    21  H   -0.012790   0.437636   0.636799  -0.000203   0.000021  -0.000039
    22  C    0.001652  -0.008700  -0.000203   4.587271   0.384066   0.387174
    23  H   -0.000250   0.000158   0.000021   0.384066   0.622563  -0.019641
    24  H    0.002407  -0.002324  -0.000039   0.387174  -0.019641   0.622998
    25  H   -0.000656   0.005767  -0.000118   0.404894  -0.015795  -0.020957
    26  C   -0.000070  -0.071312   0.000780  -0.005996   0.000297   0.000397
    27  H    0.000015   0.012271  -0.000125   0.000225  -0.000009   0.000010
    28  H   -0.000120  -0.010747  -0.000270  -0.010044  -0.000338  -0.000052
    29  C   -0.000001   0.000080   0.000104  -0.000014   0.000000   0.000000
    30  C    0.000000   0.000017  -0.000016   0.000001   0.000000   0.000000
    31  H    0.000000  -0.000021  -0.000022   0.000000   0.000000   0.000000
    32  H    0.000000   0.000005   0.000003   0.000000   0.000000   0.000000
    33  H    0.000000   0.000121   0.000031   0.000001   0.000000   0.000000
    34  O    0.000000   0.000361  -0.000061   0.000000   0.000000   0.000000
    35  O   -0.000016   0.012055   0.002870   0.000263  -0.000001  -0.000014
              25         26         27         28         29         30
     1  C    0.000480   0.000397  -0.000022  -0.000021   0.000000   0.000000
     2  C   -0.010987  -0.009024  -0.001609   0.003526   0.000002   0.000000
     3  C    0.003183  -0.035881   0.002556  -0.005084   0.000330   0.000010
     4  C   -0.000099   0.005586  -0.000032  -0.000099  -0.000093  -0.000002
     5  H   -0.000197   0.000798  -0.000029  -0.000378   0.000000   0.000000
     6  H   -0.000275  -0.009750   0.005625  -0.000398   0.000001   0.000000
     7  C    0.000000   0.000007   0.000000   0.000000   0.000000   0.000000
     8  H    0.000000   0.000000   0.000000   0.000000   0.000000   0.000000
     9  H    0.000000   0.000000   0.000000   0.000000   0.000000   0.000000
    10  H    0.000000   0.000001   0.000000   0.000000   0.000000   0.000000
    11  N    0.000006  -0.000334   0.000006   0.000011   0.000000   0.000000
    12  O    0.000001  -0.000339   0.000052  -0.000010  -0.000018   0.000000
    13  O   -0.000006   0.000000   0.000000   0.000000   0.000000   0.000000
    14  C   -0.002103   0.383425  -0.045436  -0.016519  -0.004998  -0.001519
    15  H   -0.000091  -0.022498  -0.006173   0.006647   0.005643   0.000109
    16  C   -0.025992   0.000288   0.000199  -0.000097   0.000005   0.000000
    17  H    0.008013  -0.000174   0.000008  -0.000089   0.000000   0.000000
    18  C   -0.009133  -0.009344  -0.000248   0.004624   0.000023   0.000002
    19  H   -0.000656  -0.000070   0.000015  -0.000120  -0.000001   0.000000
    20  C    0.005767  -0.071312   0.012271  -0.010747   0.000080   0.000017
    21  H   -0.000118   0.000780  -0.000125  -0.000270   0.000104  -0.000016
    22  C    0.404894  -0.005996   0.000225  -0.010044  -0.000014   0.000001
    23  H   -0.015795   0.000297  -0.000009  -0.000338   0.000000   0.000000
    24  H   -0.020957   0.000397   0.000010  -0.000052   0.000000   0.000000
    25  H    0.649020  -0.007337   0.000043   0.004188  -0.000029   0.000008
    26  C   -0.007337   4.539496   0.390051   0.393694  -0.034123   0.010200
    27  H    0.000043   0.390051   0.615447  -0.021248  -0.004595   0.001303
    28  H    0.004188   0.393694  -0.021248   0.605574   0.005328  -0.000227
    29  C   -0.000029  -0.034123  -0.004595   0.005328   4.474560   0.386659
    30  C    0.000008   0.010200   0.001303  -0.000227   0.386659   4.719631
    31  H    0.000000  -0.000241  -0.000046   0.000006  -0.005031   0.377199
    32  H    0.000000  -0.000389   0.000019   0.000025  -0.004497   0.376696
    33  H   -0.000002   0.000102   0.000013  -0.000164  -0.007448   0.367895
    34  O   -0.000010   0.004964   0.015753   0.000796   0.657271  -0.068081
    35  O   -0.000918   0.233308  -0.025590  -0.014059   0.327219  -0.110077
              31         32         33         34         35
     1  C    0.000000   0.000000   0.000000   0.000000   0.000001
     2  C    0.000000   0.000000   0.000000  -0.000002  -0.000130
     3  C   -0.000007   0.000001   0.000003  -0.000289   0.005174
     4  C    0.000000   0.000000   0.000000  -0.000032  -0.000098
     5  H    0.000000   0.000000   0.000000   0.000000  -0.000001
     6  H    0.000000   0.000000   0.000000  -0.000022   0.000196
     7  C    0.000000   0.000000   0.000000   0.000000   0.000000
     8  H    0.000000   0.000000   0.000000   0.000000   0.000000
     9  H    0.000000   0.000000   0.000000   0.000000   0.000000
    10  H    0.000000   0.000000   0.000000   0.000000   0.000000
    11  N    0.000000   0.000000   0.000000   0.000000   0.000000
    12  O    0.000000   0.000000   0.000000   0.000000   0.000000
    13  O    0.000000   0.000000   0.000000   0.000000   0.000000
    14  C    0.000157  -0.000020   0.000002  -0.009442  -0.054468
    15  H   -0.000024   0.000005  -0.000071   0.009919  -0.007669
    16  C    0.000000   0.000000   0.000000   0.000000   0.000104
    17  H    0.000000   0.000000   0.000000   0.000000   0.000000
    18  C    0.000002   0.000000   0.000002  -0.000008  -0.001126
    19  H    0.000000   0.000000   0.000000   0.000000  -0.000016
    20  C   -0.000021   0.000005   0.000121   0.000361   0.012055
    21  H   -0.000022   0.000003   0.000031  -0.000061   0.002870
    22  C    0.000000   0.000000   0.000001   0.000000   0.000263
    23  H    0.000000   0.000000   0.000000   0.000000  -0.000001
    24  H    0.000000   0.000000   0.000000   0.000000  -0.000014
    25  H    0.000000   0.000000  -0.000002  -0.000010  -0.000918
    26  C   -0.000241  -0.000389   0.000102   0.004964   0.233308
    27  H   -0.000046   0.000019   0.000013   0.015753  -0.025590
    28  H    0.000006   0.000025  -0.000164   0.000796  -0.014059
    29  C   -0.005031  -0.004497  -0.007448   0.657271   0.327219
    30  C    0.377199   0.376696   0.367895  -0.068081  -0.110077
    31  H    0.559422  -0.009915  -0.014554   0.000594   0.002063
    32  H   -0.009915   0.559321  -0.014319   0.000848   0.002249
    33  H   -0.014554  -0.014319   0.580898   0.003328   0.009830
    34  O    0.000594   0.000848   0.003328   7.757886  -0.090039
    35  O    0.002063   0.002249   0.009830  -0.090039   8.110161
 Mulliken charges:
               1
     1  C    0.268591
     2  C   -0.100815
     3  C   -0.119283
     4  C    0.275985
     5  H    0.078663
     6  H    0.085754
     7  C    0.056146
     8  H    0.081048
     9  H    0.078804
    10  H    0.079286
    11  N   -0.403606
    12  O   -0.242697
    13  O   -0.248994
    14  C   -0.116192
    15  H    0.077290
    16  C   -0.095332
    17  H    0.066415
    18  C   -0.056334
    19  H    0.040076
    20  C   -0.035581
    21  H    0.037822
    22  C   -0.000085
    23  H    0.050871
    24  H    0.049413
    25  H    0.019104
    26  C    0.243020
    27  H    0.061567
    28  H    0.055548
    29  C    0.203623
    30  C   -0.059804
    31  H    0.090418
    32  H    0.089968
    33  H    0.074333
    34  O   -0.283733
    35  O   -0.401288
 Sum of Mulliken charges =   0.00000
 Mulliken charges with hydrogens summed into heavy atoms:
               1
     1  C    0.268591
     2  C   -0.022152
     3  C   -0.033529
     4  C    0.275985
     7  C    0.295284
    11  N   -0.403606
    12  O   -0.242697
    13  O   -0.248994
    14  C   -0.038902
    16  C   -0.028918
    18  C   -0.016258
    20  C    0.002242
    22  C    0.119302
    26  C    0.360134
    29  C    0.203623
    30  C    0.194915
    34  O   -0.283733
    35  O   -0.401288
 Electronic spatial extent (au):  <R**2>=           5044.1512
 Charge=              0.0000 electrons
 Dipole moment (field-independent basis, Debye):
    X=              1.5456    Y=              2.9192    Z=              0.3729  Tot=              3.3241
 Quadrupole moment (field-independent basis, Debye-Ang):
   XX=           -104.3601   YY=           -114.8552   ZZ=           -100.1081
   XY=             11.3904   XZ=              5.3757   YZ=             -3.8879
 Traceless Quadrupole moment (field-independent basis, Debye-Ang):
   XX=              2.0811   YY=             -8.4141   ZZ=              6.3330
   XY=             11.3904   XZ=              5.3757   YZ=             -3.8879
 Octapole moment (field-independent basis, Debye-Ang**2):
  XXX=            120.0023  YYY=             29.1793  ZZZ=             -3.0736  XYY=            -22.2687
  XXY=            -40.3761  XXZ=             30.0929  XZZ=              1.3282  YZZ=             -1.3726
  YYZ=              7.5217  XYZ=             -9.0335
 Hexadecapole moment (field-independent basis, Debye-Ang**3):
 XXXX=          -4159.9988 YYYY=          -1620.9198 ZZZZ=           -430.6460 XXXY=            221.1946
 XXXZ=             78.5448 YYYX=             27.5470 YYYZ=             -3.2858 ZZZX=              0.4381
 ZZZY=              2.5077 XXYY=          -1029.4414 XXZZ=           -791.3440 YYZZ=           -324.0528
 XXYZ=            -56.8027 YYXZ=              6.5779 ZZXY=             -2.1982
 N-N= 1.384129142723D+03 E-N=-4.771283058405D+03  KE= 8.514406940624D+02
   1 Symmetry operations used in ECPInt.
 ECPInt:  NShTT=   12720 NPrTT=   45736 LenC2=   11780 LenP2D=   30424.
 LDataN:  DoStor=T MaxTD1= 5 Len=  102
 D1PCM: C-PCM CHGder 1st derivatives, ID1Alg=3 FixD1E=F DoIter=F DoCFld=F I1PDM=0.
 Calling FoFJK, ICntrl=      2127 FMM=F ISym2X=0 I1Cent= 0 IOpClX= 0 NMat=1 NMatS=1 NMatT=0.
 ***** Axes restored to original set *****
 -------------------------------------------------------------------
 Center     Atomic                   Forces (Hartrees/Bohr)
 Number     Number              X              Y              Z
 -------------------------------------------------------------------
      1        6          -0.003868221   -0.025937059    0.001200664
      2        6          -0.002324711    0.000293092   -0.006173435
      3        6          -0.001278112   -0.001803479   -0.005627399
      4        6          -0.026162129    0.001323773    0.002444142
      5        1          -0.002275727   -0.003316550    0.012854904
      6        1          -0.002756243   -0.001391349    0.013222069
      7        6           0.005517146    0.004571626   -0.002942769
      8        1           0.001152987    0.001001708   -0.003642702
      9        1           0.007083745    0.002636219    0.000004740
     10        1           0.003663534    0.006529665    0.000132707
     11        7           0.008292825    0.006316678   -0.003775660
     12        8          -0.001877162    0.014901056   -0.001144475
     13        8           0.014460966   -0.004384587   -0.000544760
     14        6           0.005112797   -0.007207381   -0.007125434
     15        1          -0.004688324    0.013808622   -0.007345887
     16        6          -0.008504854    0.005456663   -0.001657116
     17        1           0.012204623   -0.006473422   -0.006301765
     18        6          -0.005086436   -0.001983059   -0.000323172
     19        1           0.003460272   -0.000391844    0.004337353
     20        6          -0.000336485   -0.003681857    0.000663182
     21        1          -0.000075411    0.003525240    0.004679900
     22        6           0.003066135    0.004920075   -0.001090360
     23        1          -0.003207179   -0.000303939   -0.001712310
     24        1           0.000018677    0.000539663    0.001951233
     25        1          -0.009413836    0.005802634    0.001628119
     26        6           0.021752141    0.003959766    0.011437066
     27        1          -0.001416512   -0.000345804    0.003361696
     28        1           0.002070858   -0.019731352   -0.000594771
     29        6          -0.036742166    0.012476836   -0.017106701
     30        6           0.020615775    0.000693420    0.012789212
     31        1          -0.002093829   -0.000913365   -0.004663999
     32        1          -0.004357271   -0.002626700   -0.000794075
     33        1          -0.004667866   -0.004337043   -0.004765455
     34        8           0.011647014    0.014352844    0.013715791
     35        8           0.001012977   -0.018280792   -0.007090534
 -------------------------------------------------------------------
 Cartesian Forces:  Max     0.036742166 RMS     0.008760465

 GradGradGradGradGradGradGradGradGradGradGradGradGradGradGradGradGradGrad
 Berny optimization.
 FormGI is forming the generalized inverse of G from B-inverse, IUseBI=4.
 GSVD:  received Info=                   1 from GESDD.
 Internal  Forces:  Max     0.029823928 RMS     0.006690689
 Search for a local minimum.
 Step number   1 out of a maximum of  210
 All quantities printed in internal units (Hartrees-Bohrs-Radians)
 Mixed Optimization -- RFO/linear search
 Second derivative matrix not updated -- first step.
 ITU=  0
     Eigenvalues ---    0.00235   0.00298   0.00336   0.00597   0.00633
     Eigenvalues ---    0.00680   0.00713   0.00874   0.00978   0.00983
     Eigenvalues ---    0.01191   0.01206   0.01254   0.01386   0.01880
     Eigenvalues ---    0.01954   0.02879   0.03602   0.03868   0.04348
     Eigenvalues ---    0.04400   0.04762   0.04907   0.04915   0.05327
     Eigenvalues ---    0.05328   0.05462   0.05591   0.05767   0.05795
     Eigenvalues ---    0.06004   0.07034   0.07102   0.07264   0.07312
     Eigenvalues ---    0.07358   0.09701   0.11608   0.13689   0.14130
     Eigenvalues ---    0.14721   0.15999   0.15999   0.16000   0.16000
     Eigenvalues ---    0.16000   0.16000   0.16000   0.16000   0.16000
     Eigenvalues ---    0.16000   0.16000   0.17160   0.18093   0.19475
     Eigenvalues ---    0.22049   0.23568   0.24977   0.24992   0.24998
     Eigenvalues ---    0.24999   0.25000   0.25000   0.25454   0.25765
     Eigenvalues ---    0.27688   0.28126   0.28509   0.28851   0.29197
     Eigenvalues ---    0.30158   0.30905   0.31039   0.31184   0.31412
     Eigenvalues ---    0.31561   0.32188   0.33176   0.33190   0.33202
     Eigenvalues ---    0.33257   0.33299   0.33319   0.33366   0.33382
     Eigenvalues ---    0.33979   0.34159   0.34172   0.34934   0.34974
     Eigenvalues ---    0.34986   0.37734   0.38751   0.40910   0.49064
     Eigenvalues ---    0.55181   0.99699   1.00616   1.01053
 RFO step:  Lambda=-3.64210853D-02 EMin= 2.35274089D-03
 Linear search not attempted -- first point.
 Iteration  1 RMS(Cart)=  0.21776747 RMS(Int)=  0.00844541
 Iteration  2 RMS(Cart)=  0.01775519 RMS(Int)=  0.00060167
 Iteration  3 RMS(Cart)=  0.00012745 RMS(Int)=  0.00059863
 Iteration  4 RMS(Cart)=  0.00000010 RMS(Int)=  0.00059863
 Variable       Old X    -DE/DX   Delta X   Delta X   Delta X     New X
                                 (Linear)    (Quad)   (Total)
    R1        2.89903  -0.00770   0.00000  -0.02036  -0.02040   2.87864
    R2        2.69094  -0.02935   0.00000  -0.07139  -0.07119   2.61975
    R3        2.28393  -0.01478   0.00000  -0.01417  -0.01417   2.26976
    R4        2.93416   0.00041   0.00000   0.00888   0.00896   2.94312
    R5        2.11655  -0.01276   0.00000  -0.03624  -0.03624   2.08031
    R6        2.92861   0.00087   0.00000   0.00045   0.00052   2.92913
    R7        2.90210  -0.00818   0.00000  -0.02207  -0.02214   2.87996
    R8        2.11933  -0.01299   0.00000  -0.03704  -0.03704   2.08229
    R9        2.91550   0.00144   0.00000   0.00280   0.00302   2.91852
   R10        2.69085  -0.02982   0.00000  -0.07252  -0.07234   2.61851
   R11        2.28220  -0.01472   0.00000  -0.01406  -0.01406   2.26814
   R12        2.08699  -0.00365   0.00000  -0.00992  -0.00992   2.07707
   R13        2.08719  -0.00556   0.00000  -0.01510  -0.01510   2.07209
   R14        2.08744  -0.00560   0.00000  -0.01522  -0.01522   2.07222
   R15        2.79017  -0.02363   0.00000  -0.06120  -0.06120   2.72896
   R16        2.12894  -0.01588   0.00000  -0.04597  -0.04597   2.08297
   R17        2.84257   0.00627   0.00000   0.01960   0.01947   2.86204
   R18        2.91040  -0.00463   0.00000  -0.01439  -0.01439   2.89601
   R19        2.12637  -0.01512   0.00000  -0.04358  -0.04358   2.08279
   R20        2.84648   0.00604   0.00000   0.01939   0.01918   2.86566
   R21        2.89595   0.00253   0.00000   0.00769   0.00769   2.90364
   R22        2.05782   0.00293   0.00000   0.00760   0.00760   2.06542
   R23        2.52172   0.00455   0.00000   0.00962   0.00932   2.53103
   R24        2.05698   0.00259   0.00000   0.00672   0.00672   2.06369
   R25        2.07040   0.00293   0.00000   0.00775   0.00775   2.07815
   R26        2.07365   0.00156   0.00000   0.00415   0.00415   2.07780
   R27        2.08414  -0.01073   0.00000  -0.02901  -0.02901   2.05514
   R28        2.08603  -0.00297   0.00000  -0.00805  -0.00805   2.07798
   R29        2.10502  -0.01949   0.00000  -0.05438  -0.05438   2.05064
   R30        2.74754  -0.01653   0.00000  -0.03996  -0.03996   2.70758
   R31        2.80362   0.00790   0.00000   0.02090   0.02090   2.82453
   R32        2.28760  -0.02179   0.00000  -0.02109  -0.02109   2.26651
   R33        2.60822  -0.02504   0.00000  -0.04751  -0.04751   2.56071
   R34        2.08529  -0.00304   0.00000  -0.00822  -0.00822   2.07707
   R35        2.08495  -0.00297   0.00000  -0.00802  -0.00802   2.07692
   R36        2.08386  -0.00592   0.00000  -0.01599  -0.01599   2.06787
    A1        1.88691   0.00430   0.00000   0.01667   0.01659   1.90350
    A2        2.23783  -0.00488   0.00000  -0.01778  -0.01791   2.21992
    A3        2.15840   0.00059   0.00000   0.00136   0.00124   2.15965
    A4        1.83952  -0.00683   0.00000  -0.01958  -0.01967   1.81985
    A5        1.88117   0.00011   0.00000  -0.02502  -0.02460   1.85658
    A6        1.90529   0.00003   0.00000  -0.02133  -0.02148   1.88381
    A7        1.90052   0.00336   0.00000   0.03686   0.03611   1.93663
    A8        2.03762   0.00554   0.00000   0.02533   0.02583   2.06346
    A9        1.89397  -0.00256   0.00000  -0.00093  -0.00269   1.89127
   A10        1.84287  -0.00689   0.00000  -0.01981  -0.01976   1.82310
   A11        1.89960   0.00277   0.00000   0.03342   0.03252   1.93212
   A12        2.03189   0.00694   0.00000   0.03562   0.03606   2.06795
   A13        1.87083   0.00016   0.00000  -0.02386  -0.02356   1.84727
   A14        1.90968  -0.00079   0.00000  -0.02923  -0.02924   1.88045
   A15        1.90225  -0.00269   0.00000  -0.00145  -0.00358   1.89867
   A16        1.88304   0.00464   0.00000   0.01781   0.01770   1.90074
   A17        2.23920  -0.00527   0.00000  -0.01910  -0.01915   2.22006
   A18        2.16078   0.00064   0.00000   0.00165   0.00161   2.16239
   A19        1.89187   0.00316   0.00000   0.01640   0.01634   1.90821
   A20        1.89122   0.00308   0.00000   0.01621   0.01616   1.90738
   A21        1.93383   0.00009   0.00000   0.00090   0.00085   1.93468
   A22        1.89446   0.00570   0.00000   0.02815   0.02768   1.92214
   A23        1.92566  -0.00593   0.00000  -0.03049  -0.03075   1.89491
   A24        1.92577  -0.00566   0.00000  -0.02898  -0.02923   1.89654
   A25        1.97084   0.00480   0.00000   0.00500   0.00523   1.97607
   A26        2.15723  -0.00251   0.00000  -0.00295  -0.00306   2.15418
   A27        2.15458  -0.00227   0.00000  -0.00211  -0.00222   2.15236
   A28        1.88461   0.00101   0.00000  -0.01685  -0.01611   1.86849
   A29        1.94937  -0.01086   0.00000  -0.02804  -0.03015   1.91922
   A30        1.91678   0.00947   0.00000   0.05927   0.05867   1.97545
   A31        1.90349   0.00301   0.00000   0.00985   0.01013   1.91362
   A32        1.87804  -0.01039   0.00000  -0.07899  -0.07784   1.80020
   A33        1.92955   0.00752   0.00000   0.05051   0.04989   1.97944
   A34        1.87428   0.00171   0.00000  -0.01260  -0.01231   1.86197
   A35        1.95164  -0.01075   0.00000  -0.02764  -0.02962   1.92202
[...]
 55,-0.00002502,-0.00004003,-0.00003614,-0.00006078,-0.00003210,-0.0002
 2670,-0.00005978,0.00023489,0.00014379,0.00014152,-0.00013068,-0.00002
 117,0.00001277,-0.00000266,0.00002628,-0.00000702,0.00001093,0.0000227
 1,0.00003545,-0.00000338,0.00000545,-0.00000164,-0.00000236,-0.0000095
 5,-0.00000414,0.00000432,-0.00000849,-0.00000385,0.00000193,-0.0001335
 8,-0.00000707,0.00005521,-0.00007253,-0.00006813,0.00002868,-0.0001020
 5,0.00002484,0.00003559,-0.00091659,-0.00003146,-0.00068071,0.00022768
 ,0.00016648,-0.00020369,0.00001305,-0.00000384,-0.00000337,-0.00000802
 ,0.00000796,-0.00000196,0.00001124,-0.00000632,0.00007539,-0.00001337,
 0.00001631,0.00000469,-0.00006052,0.00003554,-0.00014103,0.00001858,0.
 00003587,0.00000284,-0.00000827,-0.00000716,-0.00000978,-0.00000528,0.
 00000798,-0.00000804,0.00000012,0.00000548,0.00000568,-0.00000403,-0.0
 0000811,0.00000860,0.00061176,-0.00013588,0.00473443,0.00031708,-0.000
 54631,-0.00001088,0.00007594,0.00017288,0.00017467,-0.05898048,-0.0101
 3733,-0.13067198,-0.01702971,-0.01137190,0.54506074,-0.00000827,-0.000
 01505,-0.00000193,-0.00000408,-0.00001558,-0.00001106,-0.00003940,0.00
 001104,0.00004419,0.00002056,-0.00000291,-0.00002100,-0.00000187,0.000
 00452,0.00000394,0.00001331,-0.00000059,0.00000510,-0.00000214,0.00000
 045,0.00000044,0.00000016,-0.00000009,-0.00000099,-0.00000169,-0.00000
 036,0.00000002,0.00000002,-0.00000050,0.00000064,-0.00001140,0.0000113
 0,0.00000721,-0.00001101,0.00000863,0.00000888,0.00000092,0.00000742,0
 .00000482,-0.00007735,-0.00002633,-0.00010906,0.00008635,0.00003171,-0
 .00008261,-0.00001716,-0.00003459,-0.00000914,0.00000434,0.00000002,0.
 00000650,0.00001929,0.00006099,0.00007438,-0.00000171,0.00001217,-0.00
 000302,-0.00003103,0.00003255,-0.00019252,-0.00005927,-0.00004763,0.00
 015430,0.00001940,0.00000413,0.00001129,-0.00000098,-0.00000563,0.0000
 0693,-0.00000139,0.00000409,-0.00000251,-0.00000274,-0.00000222,-0.000
 00129,-0.00000543,-0.00022578,0.00070054,0.00008977,-0.00010612,0.0000
 6517,0.00006487,0.00005045,0.00006026,0.01305579,-0.01242950,-0.025458
 91,-0.06372098,0.03852830,0.06105122,0.06568272,-0.00000530,0.00002211
 ,-0.00000436,-0.00000408,-0.00000357,0.00000067,-0.00000931,0.00000642
 ,0.00000886,-0.00001815,0.00001854,-0.00000141,0.00000148,0.00000035,0
 .00000120,0.00000111,-0.00000089,0.00000275,-0.00000008,-0.00000045,-0
 .00000204,-0.00000112,-0.00000067,-0.00000133,-0.00000156,0.00000105,0
 .00000019,0.00000054,-0.00000029,0.00000094,0.00001238,-0.00001730,0.0
 0000166,0.00001136,-0.00001527,0.00001221,0.00000706,-0.00000940,0.000
 00025,-0.00002166,0.00001026,-0.00002990,0.00002275,0.00000538,-0.0000
 3985,0.00000075,-0.00000124,-0.00000586,0.00000241,-0.00000195,0.00000
 324,0.00000971,-0.00001564,0.00002278,0.00000547,0.00000056,-0.0000051
 6,-0.00004235,-0.00001814,-0.00002202,-0.00002761,0.00005054,-0.000005
 94,0.00000862,0.00000338,0.00000195,-0.00000287,-0.00000396,0.00000223
 ,0.00000323,-0.00000474,-0.00000310,-0.00000055,0.00000505,0.00000392,
 -0.00034106,0.00000042,0.00013267,0.00009911,-0.00004529,0.00006874,0.
 00001067,0.00000295,0.00003252,0.00151666,-0.00631814,-0.00584680,0.03
 855881,-0.10423054,-0.11322865,-0.03734108,0.10845467,-0.00000178,-0.0
 0002146,0.00000225,-0.00000242,-0.00000613,-0.00000846,-0.00001017,0.0
 0002355,0.00002377,0.00002318,-0.00002433,-0.00000791,-0.00000305,0.00
 000199,0.00000058,0.00000377,-0.00000284,-0.00000092,-0.00000083,0.000
 00025,-0.00000085,0.00000067,0.00000027,-0.00000020,-0.00000048,-0.000
 00041,0.00000088,0.00000041,-0.00000006,-0.00000012,-0.00001183,0.0000
 1975,0.00000201,-0.00001469,0.00002100,0.00000080,-0.00000450,0.000010
 23,0.00000238,-0.00005887,-0.00002870,-0.00006057,0.00004059,0.0000400
 0,-0.00004306,-0.00000802,-0.00001610,-0.00000434,0.00000137,0.0000018
 5,0.00000142,0.00000478,0.00003497,0.00001930,-0.00000627,0.00000205,0
 .00000406,-0.00002743,-0.00001052,-0.00005857,-0.00009757,-0.00000857,
 0.00002843,0.00000128,0.00000107,0.00000753,0.00000346,-0.00000041,0.0
 0000114,-0.00000316,0.00000508,0.00000100,-0.00000088,-0.00000419,-0.0
 0000646,-0.00047104,0.00000899,0.00042022,0.00016508,-0.00002113,0.000
 12106,0.00003070,0.00002277,0.00002770,0.00859279,-0.00743892,-0.01279
 947,0.06107835,-0.11170438,-0.24872612,-0.06618119,0.12207093,0.262677
 71,0.00004113,0.00002057,-0.00001943,-0.00000025,-0.00002540,0.0000008
 5,-0.00006813,-0.00008012,0.00008628,0.00000772,0.00014161,-0.00005390
 ,-0.00000326,0.00000316,-0.00000110,0.00002513,0.00001020,0.00001371,0
 .00000813,0.00001530,-0.00000208,0.00000022,-0.00000088,-0.00000115,-0
 .00000502,-0.00000165,0.00000166,-0.00000408,-0.00000199,0.00000106,-0
 .00003648,-0.00004079,0.00002458,0.00000301,-0.00008798,0.00001800,-0.
 00003695,-0.00000168,0.00001352,-0.00005331,0.00004634,-0.00012498,-0.
 00001016,-0.00000062,0.00002611,0.00001323,0.00000392,-0.00000280,-0.0
 0000433,0.00000217,0.00000063,0.00000115,-0.00000515,0.00002936,-0.000
 00249,0.00001225,0.00000061,-0.00002605,-0.00005157,-0.00004919,0.0000
 1261,0.00001724,-0.00000426,0.00000827,0.00000273,-0.00001638,-0.00000
 768,0.00000656,-0.00000082,-0.00000633,0.00000490,0.00000630,-0.000008
 98,-0.00001439,0.00001102,0.00068353,0.00095667,0.00009232,-0.00014295
 ,-0.00004510,-0.00013161,-0.00035591,-0.00002420,-0.00021318,-0.011102
 67,0.02567914,-0.00189228,-0.11912377,0.11936572,-0.02891661,-0.003717
 57,0.00349586,-0.00215973,0.12618539,-0.00001044,0.00000091,0.00000314
 ,0.00000467,0.00000142,-0.00000042,0.00000034,-0.00001004,-0.00000429,
 -0.00001221,0.00000199,0.00000136,0.00000087,-0.00000019,0.00000054,-0
 .00000052,0.00000057,0.00000116,-0.00000399,-0.00000261,0.00000034,-0.
 00000030,-0.00000022,-0.00000006,0.00000004,0.00000005,-0.00000011,0.0
 0000139,0.00000018,0.00000085,0.00000630,-0.00000155,-0.00000135,0.000
 00591,-0.00000162,0.00000002,0.00000923,-0.00000099,-0.00000224,0.0000
 4700,0.00000354,0.00001003,-0.00000200,-0.00000917,0.00000898,-0.00000
 170,-0.00000415,-0.00000159,0.00000088,0.00000004,0.00000060,0.0000015
 5,0.00001061,0.00000283,-0.00000210,-0.00000011,0.00000135,-0.00000362
 ,0.00000652,-0.00000826,-0.00000802,-0.00000591,0.00000915,0.00000221,
 0.00000274,0.00000152,0.00000109,0.,0.00000167,-0.00000316,0.00000273,
 0.00000102,-0.00000240,-0.00000364,-0.00000141,-0.00051553,0.00043364,
 -0.00028053,0.00006103,0.00000739,0.00002235,-0.00009194,0.00001191,-0
 .00005115,-0.00637929,0.00681413,-0.00293255,0.12619469,-0.25707349,0.
 05051617,0.00410495,-0.00799140,0.00437798,-0.13170855,0.26789298,0.00
 002587,-0.00000583,-0.00000838,0.00000260,-0.00001790,-0.00000289,-0.0
 0007072,-0.00007454,0.00008264,0.00001042,0.00007501,-0.00004238,-0.00
 000329,0.00000345,-0.00000031,0.00001679,0.00000647,0.00000764,0.00000
 456,0.00000999,0.00000052,0.00000114,-0.00000015,0.00000052,-0.0000026
 0,-0.00000216,0.00000136,-0.00000259,-0.00000069,0.00000020,-0.0000334
 6,-0.00001333,0.00001690,-0.00000492,-0.00004199,0.00000168,-0.0000263
 9,0.00000640,0.00000774,-0.00015628,0.00001901,-0.00019557,-0.00000330
 ,-0.00000153,0.00002218,0.00000300,-0.00000316,-0.00000172,-0.00000223
 ,0.00000165,0.00000122,0.00000538,0.00000993,0.00002144,-0.00000544,0.
 00000699,0.00000267,-0.00000173,-0.00002363,-0.00006159,-0.00001550,-0
 .00000433,0.00001218,0.00000596,0.00000013,-0.00000662,-0.00000382,0.0
 0000366,-0.00000003,-0.00000426,0.00000467,0.00000332,-0.00000453,-0.0
 0000819,0.00000535,-0.00011427,0.00048131,0.00086553,0.00002029,-0.000
 00467,-0.00001682,-0.00015732,-0.00000256,-0.00009643,-0.00528672,0.01
 674491,-0.00409853,-0.02780406,0.04626010,-0.05910845,0.01310342,-0.02
 167181,0.00877913,0.03305409,-0.05220440,0.05780569,0.00000509,-0.0000
 1200,0.00000051,-0.00000026,-0.00000286,-0.00000347,0.00005047,0.00003
 530,-0.00001124,0.00003614,-0.00001895,0.00000231,-0.00000284,0.000000
 25,-0.00000079,0.00000302,0.00000036,-0.00000319,0.00000020,0.00000093
 ,-0.00000164,0.00000077,-0.00000010,-0.00000024,-0.00000037,-0.0000001
 8,0.00000050,0.00000011,-0.00000027,0.00000045,-0.00001184,0.00001416,
 -0.00000004,-0.00001635,0.00001379,-0.00000101,-0.00000746,0.00000668,
 0.00000212,0.00019653,0.00000677,0.00011010,0.00003884,0.00002033,-0.0
 0000800,0.00000385,-0.00000389,-0.00000077,-0.00000108,0.00000253,-0.0
 0000197,0.00000267,0.00000935,0.00000961,-0.00000590,0.00000220,0.0000
 0290,0.00001066,-0.00000745,-0.00001017,0.00001616,-0.00001372,-0.0000
 0618,-0.00000761,0.00000044,-0.00000082,0.00000225,0.00000332,-0.00000
 151,-0.00000338,0.00000423,0.00000312,-0.00000084,-0.00000800,-0.00000
 307,0.00015091,0.00016350,-0.00075184,-0.00003801,0.00004809,0.0000751
 9,-0.00008262,-0.00001519,-0.00006906,-0.01277018,-0.01710763,0.019357
 46,-0.13865876,-0.10084119,0.08576028,-0.00405738,-0.00431788,0.002402
 62,0.01149851,0.00983087,-0.00971878,0.14380935,-0.00000242,0.00000693
 ,0.00000191,-0.00000059,0.00000483,0.00000318,0.00002156,0.00001695,-0
 .00002479,-0.00000106,-0.00001570,0.00001471,0.00000122,-0.00000019,0.
 00000034,-0.00000235,-0.00000080,0.00000143,-0.00000007,-0.00000149,-0
 .00000112,0.00000013,-0.00000010,0.00000050,0.00000051,0.00000031,0.00
 000013,0.00000041,0.00000047,0.00000024,0.00000645,-0.00000156,-0.0000
 0391,-0.00000020,0.00000537,-0.00000460,0.00000366,-0.00000383,-0.0000
 0319,0.00010931,-0.00001850,0.00007356,0.00000457,0.00000010,0.0000008
 0,-0.00000018,0.00000226,-0.00000047,0.00000040,-0.00000132,0.00000046
 ,0.00000102,-0.00000890,0.00000073,0.00000295,-0.00000082,-0.00000297,
 -0.00001136,0.00000564,0.00000243,-0.00001511,0.00000412,-0.00000056,0
 .00000226,0.00000062,-0.00000038,-0.00000179,-0.00000123,0.00000064,0.
 00000245,-0.00000312,-0.00000200,0.00000066,0.00000403,0.00000313,-0.0
 0015380,0.00005490,-0.00048166,-0.00002701,0.00001993,0.00004475,-0.00
 000945,-0.00000342,0.00001736,-0.00356144,-0.00688762,0.00230968,-0.10
 097004,-0.15499817,0.09851644,0.00976673,0.01002841,-0.00787536,-0.016
 06214,-0.01151198,0.01140031,0.11079934,0.16256894,0.00000501,0.000007
 27,-0.00000343,-0.00000163,-0.00000504,0.,0.00001242,0.00000453,0.0000
 0432,0.00000866,0.00001371,-0.00000682,-0.00000115,0.00000115,-0.00000
 001,0.00000536,0.00000293,-0.00000099,0.00000139,0.00000244,-0.0000001
 7,0.,-0.00000029,-0.00000033,-0.00000104,-0.00000013,-0.00000004,-0.00
 000061,-0.00000031,0.00000044,-0.00000442,-0.00000574,0.00000297,-0.00
 000363,-0.00001163,0.00000282,-0.00000458,-0.00000226,0.00000175,0.000
 07061,0.00000754,0.00004443,0.00001211,-0.00000247,-0.00001019,0.00000
 188,-0.00000080,-0.00000185,0.00000002,0.00000028,0.00000066,0.0000023
 6,0.00000137,0.00002002,0.00000008,0.00000472,-0.00000194,-0.00001212,
 -0.00001450,-0.00003400,-0.00001442,0.00000713,0.00000143,0.00000208,0
 .00000218,-0.00000112,-0.00000330,0.00000027,0.00000017,0.00000104,-0.
 00000123,-0.00000067,-0.00000020,-0.00000198,0.00000365,0.00033796,0.0
 0000787,-0.00024456,-0.00003695,0.00000048,0.00003394,-0.00003980,-0.0
 0000007,-0.00003679,-0.01100486,-0.01319106,0.01383953,0.08440237,0.09
 735617,-0.12189263,0.01469579,0.01786896,-0.01196554,0.00265594,0.0011
 3458,-0.00315148,-0.09079682,-0.10251969,0.12915600,0.00050533,-0.0001
 6899,-0.00018051,-0.00023706,-0.00026834,-0.00020871,-0.00003540,0.000
 92777,0.00025565,0.00112926,0.00013045,-0.00032537,-0.00012166,0.00007
 366,-0.00001367,0.00001881,-0.00003765,0.00003159,0.00011248,0.0001559
 1,-0.00004188,0.00003170,-0.00000320,-0.00000663,-0.00003618,-0.000017
 74,0.00002089,-0.00004126,-0.00001675,0.00000597,-0.00065477,0.0001488
 2,0.00019716,-0.00057929,-0.00009757,0.00004572,-0.00053935,0.00015296
 ,0.00017681,-0.00078922,-0.00228967,0.00066594,-0.00108100,0.00240999,
 -0.00086887,0.00006275,-0.00006533,-0.00001985,-0.00003942,0.00004079,
 -0.00001011,0.00011475,0.00014037,0.00056343,-0.00015892,0.00009784,0.
 00006472,-0.00026758,0.00033592,-0.00101893,0.00004401,-0.00008854,0.0
 0016091,-0.00002158,-0.00003980,-0.00006903,-0.00002919,0.00004890,-0.
 00003458,-0.00001154,0.00004197,0.00003782,-0.00002886,-0.00005490,0.0
 0003553,0.00009354,0.00030752,0.00108367,-0.00069163,0.00162563,0.0020
 4719,0.00049081,0.00125386,0.00176800,-0.16739828,-0.16571026,-0.08520
 599,0.00070595,-0.03529313,-0.02327619,-0.00650271,-0.00288457,-0.0029
 8055,0.00267077,0.00001594,0.00183907,-0.00137512,-0.00142339,-0.00099
 391,0.14560798,-0.00048270,-0.00058417,0.00023438,0.00000702,0.0002736
 2,-0.00009452,0.00097960,0.00141344,-0.00118791,0.00048763,-0.00234474
 ,0.00073877,0.00001704,-0.00001854,0.00003043,-0.00028792,-0.00016404,
 -0.00003640,-0.00009343,-0.00017269,-0.00000120,0.00000807,0.00001360,
 -0.00000049,0.00005297,0.00002203,-0.00001687,0.00004374,0.00001464,-0
 .00001427,0.00019218,0.00084231,-0.00026089,-0.00034395,0.00151102,-0.
 00016572,0.00035920,0.00017497,-0.00010626,0.00090396,-0.00095486,0.00
 246364,0.00200323,0.00014028,-0.00117989,-0.00022134,-0.00022275,-0.00
 002803,0.00006688,-0.00000458,0.00001932,0.00005479,0.00039986,-0.0002
 2401,-0.00003667,-0.00012028,0.00004268,0.00017131,0.00071851,0.000333
 60,-0.00002413,-0.00032993,0.00023139,-0.00004898,0.00003513,0.0002408
 2,0.00011016,-0.00008666,0.00003738,0.00002553,0.00000768,-0.00005268,
 0.00005478,0.00012351,-0.00015702,-0.01947723,-0.00297934,-0.01139760,
 0.00334148,-0.00101152,0.00292538,0.00147542,0.00041253,0.00112835,-0.
 18130371,-0.65644080,-0.22374220,-0.01258796,-0.01702649,-0.01574938,-
 0.00295910,0.00040067,-0.00016939,-0.00098890,0.00091136,-0.00050672,-
 0.00015952,0.00097156,-0.00123323,0.17269146,0.79037851,-0.00000198,-0
 .00010116,0.00000880,0.00004919,0.00002397,0.00009713,0.00040820,0.000
 00170,-0.00033614,0.00016985,-0.00035832,0.00003027,0.00003649,-0.0000
 2143,0.00000112,0.00007647,-0.00002024,0.00009447,-0.00000053,-0.00000
 853,-0.00002315,0.00000203,-0.00000037,-0.00001017,0.00000025,0.000007
 36,0.00000133,0.00000441,-0.00000443,0.00000072,-0.00005202,0.00013473
 ,-0.00000716,-0.00010068,0.00022579,0.00010683,-0.00000672,0.00004142,
 0.00001315,0.00160941,0.00056666,0.00082149,0.00059707,-0.00055977,-0.
 00043175,-0.00005225,-0.00002927,-0.00000712,0.00000322,-0.00000598,0.
 00000999,0.00002137,-0.00001642,0.00005315,0.00001572,0.00002346,-0.00
 000228,-0.00033432,0.00002956,0.00015250,-0.00004243,0.00001988,0.0000
 4921,0.00006302,0.00000171,-0.00000628,0.00000366,-0.00001362,0.000015
 12,-0.00001640,0.00001510,0.00000953,-0.00002779,0.00001131,0.00000508
 ,-0.00148608,0.00176118,-0.00788150,0.00048081,0.00191592,0.00206186,0
 .00057610,0.00094094,0.00179023,-0.08827984,-0.21741997,-0.17742489,-0
 .01849432,-0.02884150,0.01025889,0.00041428,-0.00050741,-0.00014520,0.
 00208760,0.00030200,0.00067904,-0.00455978,-0.00197021,-0.00496546,0.1
 0196450,0.25587998,0.14550474,0.00180767,-0.00019954,-0.00070613,0.000
 03482,-0.00135814,-0.00004255,-0.00544992,-0.00633895,0.00725786,0.000
 49074,0.00568301,-0.00352718,-0.00021679,0.00019512,-0.00005012,0.0013
 2689,0.00045850,0.00040433,0.00035903,0.00076775,0.00001341,0.00007346
 ,-0.00003658,-0.00002435,-0.00022021,-0.00011834,0.00009404,-0.0001638
 0,-0.00007038,0.00004011,-0.00236489,-0.00110852,0.00127370,-0.0002217
 5,-0.00304506,0.00062021,-0.00183738,0.00034782,0.00061507,-0.04121711
 ,-0.00299644,-0.02272296,0.00164123,0.00035497,-0.00003067,0.00036477,
 0.00006675,-0.00018582,-0.00012711,0.00016842,0.00005764,-0.00019870,0
 .00002071,0.00048086,-0.00030116,0.00018675,0.00018331,0.00106582,-0.0
 0136971,-0.00299170,-0.00042952,0.00063380,0.00010838,0.00001165,0.000
 09579,-0.00019550,-0.00018304,0.00018737,-0.00009725,-0.00012526,0.000
 18591,0.00015644,-0.00013475,-0.00051401,0.00018264,-0.16626289,-0.028
 50035,-0.06916726,-0.00773883,-0.00593253,-0.01021670,-0.02157365,-0.0
 0178127,-0.01516623,-0.16982783,0.07015886,-0.04479806,-0.03061970,0.0
 3471632,-0.01855345,-0.00078194,0.00125125,-0.00030463,-0.00644245,-0.
 00154320,-0.00467034,0.00121443,0.00151873,0.00070439,0.02905189,0.035
 96922,0.00487157,0.41899628,-0.00064361,-0.00043081,0.00022311,-0.0004
 4439,-0.00020279,-0.00007410,-0.00133163,0.00154976,0.00002218,-0.0001
 0672,-0.00147379,0.00045642,-0.00005292,0.00000137,0.00001549,-0.00018
 165,-0.00016453,0.00043653,-0.00011367,-0.00014225,0.00001788,0.000000
 22,0.00001216,0.00000187,0.00004203,0.00001603,-0.00001536,0.00004036,
 0.00001287,-0.00001208,0.00020519,0.00064618,-0.00018513,-0.00009000,0
 .00114518,-0.00006193,0.00032956,0.00016082,-0.00006427,-0.00996410,0.
 00002772,-0.00575213,0.00223667,0.00080524,-0.00211840,-0.00035956,-0.
 00027947,0.00011359,0.00008798,0.00005502,-0.00000150,-0.00009044,0.00
 064784,-0.00026598,-0.00004130,-0.00015410,0.00004542,0.00125615,0.000
 63747,0.00039006,-0.00002170,-0.00029398,0.00034652,-0.00027287,-0.000
 13286,0.00033714,0.00018929,-0.00012345,0.00000922,0.00015291,-0.00005
 022,-0.00013077,0.00018837,0.00031297,-0.00029302,-0.01154751,-0.10054
 767,-0.01581358,-0.01860949,0.00015948,-0.00835913,0.03090300,0.008636
 82,0.01885094,0.07035656,-0.20619832,0.01285921,0.00660045,0.00377505,
 0.00176809,0.00057360,-0.00033189,0.00069016,-0.00064324,0.00051435,-0
 .00044641,0.00154636,-0.00023660,0.00056684,0.02786007,-0.11630393,-0.
 01202406,-0.09805403,0.40795033,0.00039673,0.00007622,-0.00014827,0.00
 009137,-0.00032788,0.00020642,0.00254946,0.00076867,-0.00043313,0.0008
 3718,0.00064837,0.00004767,0.00007845,0.00001220,0.00002207,0.00082161
 ,0.00029612,0.00022364,0.00006460,0.00010139,-0.00008607,0.00001074,-0
 .00000678,-0.00001179,-0.00002749,-0.00000329,0.00001205,-0.00003027,-
 0.00002052,0.00001351,-0.00036518,-0.00011078,0.00011823,-0.00020459,-
 0.00043983,0.00008607,-0.00037480,0.00004684,0.00013179,0.00594373,-0.
 00148190,0.01218683,-0.00118798,-0.00050395,0.00105881,-0.00016279,-0.
 00033622,0.00007551,-0.00001878,0.00002480,0.00006576,0.00031067,0.000
 96166,0.00063106,0.00004081,0.00020451,-0.00002073,0.00144635,-0.00133
 719,-0.00147593,0.00012613,0.00022181,0.00143407,0.00036542,0.00012047
 ,-0.00011464,-0.00013172,0.00000487,0.00007819,-0.00010151,0.00008577,
 0.00007918,-0.00018164,-0.00024961,0.00010939,-0.06546899,-0.02570204,
 -0.11715666,-0.03339811,-0.00430589,-0.01809729,-0.01761074,-0.0036621
 2,-0.00960032,-0.04666236,0.01548403,-0.09113076,-0.02317851,0.0182166
 8,0.00097238,0.00165592,0.00113895,0.00170641,-0.00453412,-0.00090928,
 -0.00152573,-0.00177676,0.00049820,-0.00079409,0.00429021,-0.00798144,
 0.02947646,0.17638696,0.00846718,0.19185992\\0.00000011,-0.00000216,0.
 00000617,-0.00000127,-0.00000006,0.00000397,-0.00000074,0.00000152,0.0
 0000077,0.00000053,-0.00000164,-0.00000050,-0.00000403,0.00000168,0.00
 000532,-0.00000295,0.00000265,-0.00000054,0.00000025,-0.00000170,0.000
 00239,0.00000508,-0.00000310,0.00000221,0.00000509,-0.00000757,0.00000
 561,0.00000083,-0.00000275,0.00000295,-0.00000021,-0.00000136,0.000001
 35,0.00000181,0.00000023,-0.00000340,-0.00000074,-0.00000235,0.0000076
 1,-0.00000098,0.00000014,-0.00000239,0.00000155,0.00000068,-0.00000455
 ,-0.00000025,-0.00000042,0.00000522,-0.00000049,-0.00000279,0.00000807
 ,0.00000130,-0.00000290,0.00000293,0.00000295,-0.00000408,0.00000422,0
 .00000233,-0.00000180,0.00000022,0.00000328,-0.00000292,-0.00000154,-0
 .00000372,0.00000008,0.00000666,-0.00000488,0.00000141,0.00000847,-0.0
 0000257,-0.00000033,0.00000749,-0.00000398,0.00000254,0.00000414,-0.00
 000176,0.00000308,-0.00000332,-0.00000282,0.00000447,-0.00000489,-0.00
 000322,0.00000322,-0.00000073,0.00000058,0.00000222,-0.00000750,0.0000
 0158,0.00000176,-0.00000926,0.00000327,0.00000031,-0.00000890,0.000003
 22,0.00000205,-0.00001317,0.00000038,0.00000374,-0.00000999,0.00000082
 ,0.00000340,-0.00000966,-0.00000035,0.00000274,-0.00000545\\\@


 ABSOLUTISM, OBSOLETISM -- IF IT WORKS, IT'S OUT OF DATE

                          -- STAFFORD BEER
 Job cpu time:       0 days  1 hours 45 minutes 47.2 seconds.
 File lengths (MBytes):  RWF=    490 Int=      0 D2E=      0 Chk=     19 Scr=      1
 Normal termination of Gaussian 09 at Tue Jul  6 18:33:21 2021.
