 Entering Gaussian System, Link 0=g09
 Input=freq_m062x_TS_claisen_PM6_toluene_water_gd3.com
 Output=freq_m062x_TS_claisen_PM6_toluene_water_gd3.log
 Initial command:
 /apps/applications/gaussian/G09.D01/2/default/g09/l1.exe "/local/743474.1.40core-192G.q/Gau-249969.inp" -scrdir="/local/743474.1.40core-192G.q/"
 Entering Link 1 = /apps/applications/gaussian/G09.D01/2/default/g09/l1.exe PID=    249970.
  
 Copyright (c) 1988,1990,1992,1993,1995,1998,2003,2009,2013,
            Gaussian, Inc.  All Rights Reserved.
  
 This is part of the Gaussian(R) 09 program.  It is based on
 the Gaussian(R) 03 system (copyright 2003, Gaussian, Inc.),
 the Gaussian(R) 98 system (copyright 1998, Gaussian, Inc.),
 the Gaussian(R) 94 system (copyright 1995, Gaussian, Inc.),
 the Gaussian 92(TM) system (copyright 1992, Gaussian, Inc.),
 the Gaussian 90(TM) system (copyright 1990, Gaussian, Inc.),
 the Gaussian 88(TM) system (copyright 1988, Gaussian, Inc.),
 the Gaussian 86(TM) system (copyright 1986, Carnegie Mellon
 University), and the Gaussian 82(TM) system (copyright 1983,
 Carnegie Mellon University). Gaussian is a federally registered
 trademark of Gaussian, Inc.
  
 This software contains proprietary and confidential information,
 including trade secrets, belonging to Gaussian, Inc.
  
 This software is provided under written license and may be
 used, copied, transmitted, or stored only in accord with that
 written license.
  
 The following legend is applicable only to US Government
 contracts under FAR:
  
                    RESTRICTED RIGHTS LEGEND
  
 Use, reproduction and disclosure by the US Government is
 subject to restrictions as set forth in subparagraphs (a)
 and (c) of the Commercial Computer Software - Restricted
 Rights clause in FAR 52.227-19.
  
 Gaussian, Inc.
 340 Quinnipiac St., Bldg. 40, Wallingford CT 06492
  
  
 ---------------------------------------------------------------
 Warning -- This program may not be used in any manner that
 competes with the business of Gaussian, Inc. or will provide
 assistance to any competitor of Gaussian, Inc.  The licensee
 of this program is prohibited from giving any competitor of
 Gaussian, Inc. access to this program.  By using this program,
 the user acknowledges that Gaussian, Inc. is engaged in the
 business of creating and licensing software in the field of
 computational chemistry and represents and warrants to the
 licensee that it is not a competitor of Gaussian, Inc. and that
 it will not use this program in any manner prohibited above.
 ---------------------------------------------------------------
  

 Cite this work as:
 Gaussian 09, Revision D.01,
 M. J. Frisch, G. W. Trucks, H. B. Schlegel, G. E. Scuseria, 
 M. A. Robb, J. R. Cheeseman, G. Scalmani, V. Barone, B. Mennucci, 
 G. A. Petersson, H. Nakatsuji, M. Caricato, X. Li, H. P. Hratchian, 
 A. F. Izmaylov, J. Bloino, G. Zheng, J. L. Sonnenberg, M. Hada, 
 M. Ehara, K. Toyota, R. Fukuda, J. Hasegawa, M. Ishida, T. Nakajima, 
 Y. Honda, O. Kitao, H. Nakai, T. Vreven, J. A. Montgomery, Jr., 
 J. E. Peralta, F. Ogliaro, M. Bearpark, J. J. Heyd, E. Brothers, 
 K. N. Kudin, V. N. Staroverov, T. Keith, R. Kobayashi, J. Normand, 
 K. Raghavachari, A. Rendell, J. C. Burant, S. S. Iyengar, J. Tomasi, 
 M. Cossi, N. Rega, J. M. Millam, M. Klene, J. E. Knox, J. B. Cross, 
 V. Bakken, C. Adamo, J. Jaramillo, R. Gomperts, R. E. Stratmann, 
 O. Yazyev, A. J. Austin, R. Cammi, C. Pomelli, J. W. Ochterski, 
 R. L. Martin, K. Morokuma, V. G. Zakrzewski, G. A. Voth, 
 P. Salvador, J. J. Dannenberg, S. Dapprich, A. D. Daniels, 
 O. Farkas, J. B. Foresman, J. V. Ortiz, J. Cioslowski, 
 and D. J. Fox, Gaussian, Inc., Wallingford CT, 2013.
 
 ******************************************
 Gaussian 09:  ES64L-G09RevD.01 24-Apr-2013
                16-Sep-2020 
 ******************************************
 %nprocshared=4
 Will use up to    4 processors via shared memory.
 %chk=freq_m062x_TS_claisen_PM6_toluene_water_gd3.chk
 ----------------------------------------------------------------------
 # freq scrf=(cpcm,solvent=water) geom=connectivity def2svp empiricaldi
 spersion=gd3 m062x
 ----------------------------------------------------------------------
 1/10=4,30=1,38=1,57=2/1,3;
 2/12=2,17=6,18=5,40=1/2;
 3/5=43,7=101,11=2,16=1,25=1,30=1,70=2101,71=2,72=1,74=-55,124=31,140=1/1,2,3;
 4//1;
 5/5=2,38=5,53=1,98=1/2;
 8/6=4,10=90,11=11/1;
 11/6=1,8=1,9=11,15=111,16=1/1,2,10;
 10/6=1/2;
 6/7=2,8=2,9=2,10=2,18=1,28=1/1;
 7/8=1,10=1,25=1/1,2,3,16;
 1/10=4,30=1/3;
 99//99;
 -------------------
 Title Card Required
 -------------------
 Symbolic Z-matrix:
 Charge =  0 Multiplicity = 1
 C                    -2.26605   2.6956    0.33489 
 C                    -2.59545   1.35475   0.32611 
 C                    -1.65252   0.38312  -0.08527 
 C                    -0.3558    0.80943  -0.47653 
 C                    -0.05191   2.18655  -0.47759 
 C                    -0.98665   3.11955  -0.07569 
 H                    -3.00563   3.43069   0.65598 
 H                    -3.58989   1.03173   0.63335 
 H                     0.944     2.48598  -0.80607 
 H                    -0.73908   4.182    -0.07671 
 C                     0.65578  -0.15602  -0.92793 
 C                    -1.95157  -1.02844  -0.14615 
 C                     0.30289  -1.5342   -0.88327 
 H                     0.95771  -2.24052  -1.39065 
 C                    -1.03167  -1.94084  -0.56163 
 H                    -1.30387  -2.99538  -0.6201 
 O                     1.8318    0.21355  -1.2181 
 Cl                   -3.5543   -1.57393   0.28662 
 C                     3.09689  -0.14446   0.4234 
 C                     2.72374  -1.48805   0.57054 
 H                     3.33126  -2.23379   0.05003 
 C                     4.38255   0.18538  -0.26784 
 H                     4.7052   -0.62572  -0.93192 
 H                     4.26249   1.10741  -0.85183 
 H                     5.16942   0.36451   0.48278 
 C                     2.54739   0.93207   1.31012 
 H                     1.49095   0.78213   1.56415 
 H                     3.12443   0.93447   2.24941 
 H                     2.66267   1.91731   0.84136 
 C                     1.46772  -1.86804   1.00583 
 H                     1.20575  -2.92626   1.05354 
 H                     0.8411   -1.20446   1.60503 
 

 GradGradGradGradGradGradGradGradGradGradGradGradGradGradGradGradGradGrad
 Berny optimization.
 Initialization pass.
 Trust Radius=3.00D-01 FncErr=1.00D-07 GrdErr=1.00D-07
 Number of steps in this run=      2 maximum allowed number of steps=      2.
 GradGradGradGradGradGradGradGradGradGradGradGradGradGradGradGradGradGrad

                          Input orientation:                          
 ---------------------------------------------------------------------
 Center     Atomic      Atomic             Coordinates (Angstroms)
 Number     Number       Type             X           Y           Z
 ---------------------------------------------------------------------
      1          6           0       -2.266045    2.695596    0.334888
      2          6           0       -2.595451    1.354746    0.326109
      3          6           0       -1.652517    0.383115   -0.085266
      4          6           0       -0.355802    0.809434   -0.476534
      5          6           0       -0.051905    2.186550   -0.477589
      6          6           0       -0.986645    3.119553   -0.075685
      7          1           0       -3.005635    3.430693    0.655983
      8          1           0       -3.589888    1.031726    0.633352
      9          1           0        0.944001    2.485981   -0.806071
     10          1           0       -0.739076    4.182000   -0.076714
     11          6           0        0.655783   -0.156018   -0.927934
     12          6           0       -1.951570   -1.028444   -0.146150
     13          6           0        0.302892   -1.534204   -0.883265
     14          1           0        0.957711   -2.240519   -1.390650
     15          6           0       -1.031667   -1.940836   -0.561633
     16          1           0       -1.303871   -2.995378   -0.620102
     17          8           0        1.831804    0.213546   -1.218104
     18         17           0       -3.554299   -1.573930    0.286619
     19          6           0        3.096889   -0.144460    0.423399
     20          6           0        2.723739   -1.488048    0.570543
     21          1           0        3.331263   -2.233787    0.050029
     22          6           0        4.382550    0.185375   -0.267842
     23          1           0        4.705197   -0.625717   -0.931915
     24          1           0        4.262487    1.107410   -0.851829
     25          1           0        5.169422    0.364514    0.482782
     26          6           0        2.547385    0.932068    1.310123
     27          1           0        1.490953    0.782127    1.564147
     28          1           0        3.124434    0.934472    2.249405
     29          1           0        2.662672    1.917307    0.841360
     30          6           0        1.467719   -1.868038    1.005831
     31          1           0        1.205746   -2.926260    1.053537
     32          1           0        0.841098   -1.204458    1.605027
 ---------------------------------------------------------------------
                    Distance matrix (angstroms):
                    1          2          3          4          5
     1  C    0.000000
     2  C    1.380748   0.000000
     3  C    2.429097   1.415069   0.000000
     4  C    2.804468   2.440825   1.419968   0.000000
     5  C    2.412812   2.794182   2.443001   1.410249   0.000000
     6  C    1.408962   2.421619   2.816304   2.428022   1.380493
     7  H    1.091083   2.141640   3.415862   3.895537   3.399617
     8  H    2.147115   1.089791   2.165760   3.426452   3.883958
     9  H    3.413227   3.884488   3.418115   2.146833   1.090591
    10  H    2.170357   3.406136   3.907170   3.417741   2.148191
    11  C    4.273582   3.798099   2.515751   1.469409   2.488224
    12  C    3.768125   2.513405   1.444174   2.456303   3.748969
    13  C    5.096523   4.267202   2.852462   2.468187   3.759583
    14  H    6.142908   5.338366   3.924382   3.444291   4.631624
    15  C    4.880977   3.754247   2.452168   2.833376   4.242913
    16  H    5.850211   4.635415   3.438287   3.923779   5.332927
    17  O    5.036340   4.825714   3.667774   2.385504   2.826564
    18  Cl   4.459908   3.081897   2.754106   4.061183   5.195381
    19  C    6.069169   5.887259   4.805615   3.693355   4.019986
    20  C    6.515854   6.036142   4.804472   3.982256   4.722865
    21  H    7.463901   6.933955   5.630679   4.809668   5.591385
    22  C    7.132202   7.100190   6.041065   4.783825   4.869608
    23  H    7.825224   7.668397   6.492695   5.280222   5.544842
    24  H    6.822929   6.962760   6.008285   4.643084   4.463023
    25  H    7.793714   7.829327   6.845573   5.625508   5.612877
    26  C    5.218259   5.253161   4.459556   3.411111   3.394989
    27  H    4.391751   4.308054   3.572279   2.752386   2.919161
    28  H    5.985332   6.049197   5.345460   4.422490   4.369591
    29  H    5.015426   5.313174   4.672605   3.474969   3.030024
    30  C    5.934468   5.230460   3.999257   3.562512   4.577060
    31  H    6.646432   5.771071   4.518684   4.328390   5.483326
    32  H    5.145679   4.471580   3.405230   3.133884   4.078441
                    6          7          8          9         10
     6  C    0.000000
     7  H    2.169900   0.000000
     8  H    3.411544   2.469191   0.000000
     9  H    2.159229   4.316214   4.974228   0.000000
    10  H    1.090910   2.497718   4.307615   2.498237   0.000000
    11  C    3.762082   5.364631   4.676973   2.660466   4.635581
    12  C    4.259334   4.651706   2.745179   4.601197   5.350111
    13  C    4.896177   6.161642   4.902842   4.071715   5.866107
    14  H    5.851498   7.215224   5.956914   4.762533   6.771578
    15  C    5.083868   5.850851   4.099830   4.853836   6.148974
    16  H    6.147309   6.768957   4.797352   5.927294   7.220043
    17  O    4.206382   6.104347   5.787232   2.474253   4.864239
    18  Cl   5.362173   5.048140   2.628865   6.157236   6.417805
    19  C    5.251487   7.076483   6.792678   3.614657   5.803705
    20  C    5.951012   7.551625   6.798168   4.566776   6.675288
    21  H    6.878836   8.521138   7.675036   5.357997   7.599082
    22  C    6.121648   8.122242   8.067728   4.172062   6.499276
    23  H    6.867113   8.856230   8.602652   4.883144   7.313386
    24  H    5.674901   7.777965   7.991951   3.593731   5.921954
    25  H    6.767517   8.732869   8.785975   4.900607   7.056669
    26  C    4.381201   6.124301   6.175279   3.076323   4.825578
    27  H    3.780357   5.297072   5.171424   2.969884   4.384586
    28  H    5.203998   6.807926   6.906751   4.061699   5.557335
    29  H    3.950175   5.869788   6.318388   2.447703   4.188506
    30  C    5.663007   6.943331   5.841811   4.744971   6.530299
    31  H    6.529439   7.635747   6.232200   5.728787   7.455680
    32  H    4.986232   6.097759   5.057500   4.409458   5.859960
                   11         12         13         14         15
    11  C    0.000000
    12  C    2.858427   0.000000
    13  C    1.423350   2.425228   0.000000
    14  H    2.156481   3.388484   1.088627   0.000000
    15  C    2.483393   1.360627   1.431728   2.175937   0.000000
    16  H    3.463664   2.124376   2.187686   2.505655   1.090675
    17  O    1.266413   4.123778   2.346129   2.610794   3.643046
    18  Cl   4.605475   1.747451   4.030897   4.859610   2.686601
    19  C    2.790203   5.156816   3.383072   3.501474   4.608929
    20  C    2.880309   4.752199   2.824215   2.744330   3.948406
    21  H    3.525866   5.422146   3.245225   2.776572   4.415327
    22  C    3.800140   6.450523   4.469822   4.344558   5.824159
    23  H    4.076566   6.715070   4.495331   4.106297   5.897309
    24  H    3.822350   6.608658   4.759990   4.735029   6.115888
    25  H    4.757521   7.283160   5.399475   5.294757   6.697682
    26  C    3.125858   5.119076   3.991390   4.459433   4.956477
    27  H    2.790715   4.249029   3.573052   4.260465   4.277509
    28  H    4.168800   5.946221   4.885599   5.293889   5.782950
    29  H    3.384772   5.562720   4.522811   5.017597   5.522843
    30  C    2.707342   3.704526   2.244315   2.478300   2.951131
    31  H    3.450062   3.874222   2.550327   2.550649   2.930162
    32  H    2.747628   3.300999   2.567099   3.171924   2.957011
                   16         17         18         19         20
    16  H    0.000000
    17  O    4.526285   0.000000
    18  Cl   2.811954   5.871062   0.000000
    19  C    5.346337   2.103126   6.804439   0.000000
    20  C    4.462210   2.624924   6.285042   1.402184   0.000000
    21  H    4.744846   3.137830   6.921152   2.135328   1.093685
    22  C    6.525079   2.722149   8.148383   1.496506   2.500977
    23  H    6.466948   3.007101   8.402571   2.157577   2.631952
    24  H    6.918881   2.615601   8.341930   2.133543   3.335759
    25  H    7.376229   3.749066   8.938644   2.134941   3.069373
    26  C    5.829475   2.724016   6.675188   1.499049   2.536738
    27  H    5.181846   2.860137   5.712937   2.176901   2.767798
    28  H    6.579337   3.770178   7.399330   2.121120   2.974515
    29  H    6.481035   2.799024   7.151727   2.148050   3.416652
    30  C    3.405329   3.067806   5.081774   2.442160   1.382554
    31  H    3.017287   3.925644   5.007493   3.422266   2.146169
    32  H    3.572042   3.310937   4.603718   2.758339   2.166776
                   21         22         23         24         25
    21  H    0.000000
    22  C    2.656801   0.000000
    23  H    2.331909   1.096797   0.000000
    24  H    3.583870   1.098000   1.790568   0.000000
    25  H    3.212051   1.102132   1.788136   1.776404   0.000000
    26  C    3.496418   2.532855   3.479882   2.765205   2.807435
    27  H    3.843830   3.474713   4.306241   3.691091   3.856797
    28  H    3.862369   2.912136   3.879922   3.307979   2.761844
    29  H    4.278411   2.681026   3.712598   2.466218   2.970444
    30  C    2.126059   3.786157   3.972340   4.484966   4.354363
    31  H    2.450382   4.639008   4.634725   5.407826   5.183212
    32  H    3.111022   4.240419   4.658570   4.804870   4.738723
                   26         27         28         29         30
    26  C    0.000000
    27  H    1.096840   0.000000
    28  H    1.102380   1.777934   0.000000
    29  H    1.097144   1.784371   1.778139   0.000000
    30  C    3.016433   2.708437   3.485003   3.972883   0.000000
    31  H    4.092985   3.754224   4.474004   5.062390   1.091210
    32  H    2.750114   2.090575   3.194349   3.694149   1.091800
                   31         32
    31  H    0.000000
    32  H    1.844373   0.000000
 Stoichiometry    C15H15ClO
 Framework group  C1[X(C15H15ClO)]
 Deg. of freedom    90
 Full point group                 C1      NOp   1
 Largest Abelian subgroup         C1      NOp   1
 Largest concise Abelian subgroup C1      NOp   1
                         Standard orientation:                         
 ---------------------------------------------------------------------
 Center     Atomic      Atomic             Coordinates (Angstroms)
 Number     Number       Type             X           Y           Z
 ---------------------------------------------------------------------
      1          6           0       -2.266045    2.695596    0.334888
      2          6           0       -2.595451    1.354746    0.326109
      3          6           0       -1.652517    0.383115   -0.085266
      4          6           0       -0.355802    0.809434   -0.476534
      5          6           0       -0.051905    2.186550   -0.477589
      6          6           0       -0.986645    3.119553   -0.075685
      7          1           0       -3.005635    3.430693    0.655983
      8          1           0       -3.589888    1.031726    0.633352
      9          1           0        0.944001    2.485981   -0.806071
     10          1           0       -0.739076    4.182000   -0.076714
     11          6           0        0.655783   -0.156018   -0.927934
     12          6           0       -1.951570   -1.028444   -0.146150
     13          6           0        0.302892   -1.534204   -0.883265
     14          1           0        0.957711   -2.240519   -1.390650
     15          6           0       -1.031667   -1.940836   -0.561633
     16          1           0       -1.303871   -2.995378   -0.620102
     17          8           0        1.831804    0.213546   -1.218104
     18         17           0       -3.554299   -1.573930    0.286619
     19          6           0        3.096889   -0.144460    0.423399
     20          6           0        2.723739   -1.488048    0.570543
     21          1           0        3.331263   -2.233787    0.050029
     22          6           0        4.382550    0.185375   -0.267842
     23          1           0        4.705197   -0.625717   -0.931915
     24          1           0        4.262487    1.107410   -0.851829
     25          1           0        5.169422    0.364514    0.482782
     26          6           0        2.547385    0.932068    1.310123
     27          1           0        1.490953    0.782127    1.564147
     28          1           0        3.124434    0.934472    2.249405
     29          1           0        2.662672    1.917307    0.841360
     30          6           0        1.467719   -1.868038    1.005831
     31          1           0        1.205746   -2.926260    1.053537
     32          1           0        0.841098   -1.204458    1.605027
 ---------------------------------------------------------------------
 Rotational constants (GHZ):      0.6879358      0.3309204      0.2489187
 Standard basis: def2SVP (5D, 7F)
 There are   334 symmetry adapted cartesian basis functions of A   symmetry.
 There are   317 symmetry adapted basis functions of A   symmetry.
   317 basis functions,   542 primitive gaussians,   334 cartesian basis functions
    65 alpha electrons       65 beta electrons
       nuclear repulsion energy      1297.3521877140 Hartrees.
 NAtoms=   32 NActive=   32 NUniq=   32 SFac= 1.00D+00 NAtFMM=   60 NAOKFM=F Big=F
 Integral buffers will be    131072 words long.
 Raffenetti 2 integral format.
 Two-electron integral symmetry is turned on.
 Nuclear repulsion after empirical dispersion term =     1297.3501934245 Hartrees.
 Force inversion solution in PCM.
 ------------------------------------------------------------------------------
 Polarizable Continuum Model (PCM)
 =================================
 Model                : C-PCM.
 Atomic radii         : UFF (Universal Force Field).
 Polarization charges : Total charges.
 Charge compensation  : None.
 Solution method      : Matrix inversion.
 Cavity type          : Scaled VdW (van der Waals Surface) (Alpha=1.100).
 Cavity algorithm     : GePol (No added spheres)
                        Default sphere list used, NSphG=   32.
                        Lebedev-Laikov grids with approx.  5.0 points / Ang**2.
                        Smoothing algorithm: Karplus/York (Gamma=1.0000).
                        Polarization charges: spherical gaussians, with
                                              point-specific exponents (IZeta= 3).
                        Self-potential: point-specific (ISelfS= 7).
                        Self-field    : sphere-specific E.n sum rule (ISelfD= 2).
 1st derivatives      : Analytical E(r).r(x)/FMM algorithm (CHGder, D1EAlg=3).
                        Cavity 1st derivative terms included.
 2nd derivatives      : Analytical E(r).r(xy)/FMM algorithm (CHGder, D2EAlg=3).
                        Cavity 2nd derivative terms included.
 Solvent              : Water, Eps=  78.355300 Eps(inf)=   1.777849
 ------------------------------------------------------------------------------
 One-electron integrals computed using PRISM.
   1 Symmetry operations used in ECPInt.
 ECPInt:  NShTT=   11175 NPrTT=   41031 LenC2=   10629 LenP2D=   28322.
 LDataN:  DoStor=T MaxTD1= 4 Len=   56
 NBasis=   317 RedAO= T EigKep=  2.47D-04  NBF=   317
 NBsUse=   317 1.00D-06 EigRej= -1.00D+00 NBFU=   317
 ExpMin= 1.22D-01 ExpMax= 1.04D+04 ExpMxC= 1.57D+03 IAcc=1 IRadAn=         1 AccDes= 0.00D+00
 Harris functional with IExCor= 1009 and IRadAn=       1 diagonalized for initial guess.
 HarFok:  IExCor= 1009 AccDes= 0.00D+00 IRadAn=         1 IDoV= 1 UseB2=F ITyADJ=14
 ICtDFT=  3500011 ScaDFX=  1.000000  1.000000  1.000000  1.000000
 FoFCou: FMM=F IPFlag=           0 FMFlag=      100000 FMFlg1=           0
         NFxFlg=           0 DoJE=T BraDBF=F KetDBF=T FulRan=T
         wScrn=  0.000000 ICntrl=     500 IOpCl=  0 I1Cent=   200000004 NGrid=           0
         NMat0=    1 NMatS0=      1 NMatT0=    0 NMatD0=    1 NMtDS0=    0 NMtDT0=    0
 Petite list used in FoFCou.
 Requested convergence on RMS density matrix=1.00D-08 within 128 cycles.
 Requested convergence on MAX density matrix=1.00D-06.
 Requested convergence on             energy=1.00D-06.
 No special actions if energy rises.
 Inv3:  Mode=1 IEnd=    15336363.
 Iteration    1 A*A^-1 deviation from unit magnitude is 6.66D-15 for   2246.
 Iteration    1 A*A^-1 deviation from orthogonality  is 3.53D-15 for   2239    957.
 Iteration    1 A^-1*A deviation from unit magnitude is 6.44D-15 for   2246.
 Iteration    1 A^-1*A deviation from orthogonality  is 1.84D-15 for   2255   2189.
 Error on total polarization charges =  0.01143
 SCF Done:  E(RM062X) =  -1115.07449230     A.U. after   15 cycles
            NFock= 15  Conv=0.39D-08     -V/T= 2.0071
 DoSCS=F DFT=T ScalE2(SS,OS)=  1.000000  1.000000
 Range of M.O.s used for correlation:     1   317
 NBasis=   317 NAE=    65 NBE=    65 NFC=     0 NFV=     0
 NROrb=    317 NOA=    65 NOB=    65 NVA=   252 NVB=   252

 **** Warning!!: The largest alpha MO coefficient is  0.11863408D+02

   1 Symmetry operations used in ECPInt.
 ECPInt:  NShTT=   11175 NPrTT=   41031 LenC2=   10629 LenP2D=   28322.
 LDataN:  DoStor=T MaxTD1= 5 Len=  102
 Number of processors reduced to   2 by ecpmxn.
 Symmetrizing basis deriv contribution to polar:
 IMax=3 JMax=2 DiffMx= 0.00D+00
 G2DrvN: will do    17 centers at a time, making    2 passes.
 Calling FoFCou, ICntrl=  3107 FMM=F I1Cent=   0 AccDes= 0.00D+00.
 Calling FoFCou, ICntrl=  3107 FMM=F I1Cent=   0 AccDes= 0.00D+00.
 NEqPCM:  Using equilibrium solvation (IEInf=0, Eps=  78.3553, EpsInf=   1.7778)
 G2PCM: DoFxE=T DoFxN=T DoGrad=T DoDP/DQ/DG/TGxP=FFFF NFrqRd=   0 IEInf=0 SqF1=F DoCFld=F IF1Alg=4.
 End of G2Drv F.D. properties file   721 does not exist.
 End of G2Drv F.D. properties file   722 does not exist.
 End of G2Drv F.D. properties file   788 does not exist.
          IDoAtm=11111111111111111111111111111111
 NEqPCM:  Using equilibrium solvation (IEInf=0, Eps=  78.3553, EpsInf=   1.7778)
          Differentiating once with respect to electric field.
                with respect to dipole field.
          Differentiating once with respect to nuclear coordinates.
 PrRfSu:  requested number of processors reduced to:   3 ShMem   1 Linda.
 CalDSu:  requested number of processors reduced to:   3 ShMem   1 Linda.
          There are    99 degrees of freedom in the 1st order CPHF.  IDoFFX=6 NUNeed=     3.
     97 vectors produced by pass  0 Test12= 1.65D-14 1.01D-09 XBig12= 2.25D+02 1.00D+01.
 AX will form    97 AO Fock derivatives at one time.
 PrRfSu:  requested number of processors reduced to:   3 ShMem   1 Linda.
 CalDSu:  requested number of processors reduced to:   3 ShMem   1 Linda.
     96 vectors produced by pass  1 Test12= 1.65D-14 1.01D-09 XBig12= 2.06D+01 4.66D-01.
 PrRfSu:  requested number of processors reduced to:   3 ShMem   1 Linda.
 CalDSu:  requested number of processors reduced to:   3 ShMem   1 Linda.
     96 vectors produced by pass  2 Test12= 1.65D-14 1.01D-09 XBig12= 3.52D-01 7.92D-02.
 PrRfSu:  requested number of processors reduced to:   3 ShMem   1 Linda.
 CalDSu:  requested number of processors reduced to:   3 ShMem   1 Linda.
     96 vectors produced by pass  3 Test12= 1.65D-14 1.01D-09 XBig12= 3.07D-03 5.65D-03.
 PrRfSu:  requested number of processors reduced to:   3 ShMem   1 Linda.
 CalDSu:  requested number of processors reduced to:   3 ShMem   1 Linda.
     96 vectors produced by pass  4 Test12= 1.65D-14 1.01D-09 XBig12= 1.93D-05 5.38D-04.
 PrRfSu:  requested number of processors reduced to:   3 ShMem   1 Linda.
 CalDSu:  requested number of processors reduced to:   3 ShMem   1 Linda.
     96 vectors produced by pass  5 Test12= 1.65D-14 1.01D-09 XBig12= 7.71D-08 2.72D-05.
 PrRfSu:  requested number of processors reduced to:   3 ShMem   1 Linda.
 CalDSu:  requested number of processors reduced to:   3 ShMem   1 Linda.
     61 vectors produced by pass  6 Test12= 1.65D-14 1.01D-09 XBig12= 2.55D-10 1.18D-06.
      9 vectors produced by pass  7 Test12= 1.65D-14 1.01D-09 XBig12= 7.41D-13 5.98D-08.
      3 vectors produced by pass  8 Test12= 1.65D-14 1.01D-09 XBig12= 2.41D-15 3.84D-09.
 InvSVY:  IOpt=1 It=  1 EMax= 2.13D-14
 Solved reduced A of dimension   650 with    99 vectors.
 Isotropic polarizability for W=    0.000000      266.30 Bohr**3.
 End of Minotr F.D. properties file   721 does not exist.
 End of Minotr F.D. properties file   722 does not exist.
 End of Minotr F.D. properties file   788 does not exist.

 **********************************************************************

            Population analysis using the SCF density.

 **********************************************************************

 Orbital symmetries:
       Occupied  (A) (A) (A) (A) (A) (A) (A) (A) (A) (A) (A) (A)
                 (A) (A) (A) (A) (A) (A) (A) (A) (A) (A) (A) (A)
                 (A) (A) (A) (A) (A) (A) (A) (A) (A) (A) (A) (A)
                 (A) (A) (A) (A) (A) (A) (A) (A) (A) (A) (A) (A)
                 (A) (A) (A) (A) (A) (A) (A) (A) (A) (A) (A) (A)
                 (A) (A) (A) (A) (A)
       Virtual   (A) (A) (A) (A) (A) (A) (A) (A) (A) (A) (A) (A)
                 (A) (A) (A) (A) (A) (A) (A) (A) (A) (A) (A) (A)
                 (A) (A) (A) (A) (A) (A) (A) (A) (A) (A) (A) (A)
                 (A) (A) (A) (A) (A) (A) (A) (A) (A) (A) (A) (A)
                 (A) (A) (A) (A) (A) (A) (A) (A) (A) (A) (A) (A)
                 (A) (A) (A) (A) (A) (A) (A) (A) (A) (A) (A) (A)
                 (A) (A) (A) (A) (A) (A) (A) (A) (A) (A) (A) (A)
                 (A) (A) (A) (A) (A) (A) (A) (A) (A) (A) (A) (A)
                 (A) (A) (A) (A) (A) (A) (A) (A) (A) (A) (A) (A)
                 (A) (A) (A) (A) (A) (A) (A) (A) (A) (A) (A) (A)
                 (A) (A) (A) (A) (A) (A) (A) (A) (A) (A) (A) (A)
                 (A) (A) (A) (A) (A) (A) (A) (A) (A) (A) (A) (A)
                 (A) (A) (A) (A) (A) (A) (A) (A) (A) (A) (A) (A)
                 (A) (A) (A) (A) (A) (A) (A) (A) (A) (A) (A) (A)
                 (A) (A) (A) (A) (A) (A) (A) (A) (A) (A) (A) (A)
                 (A) (A) (A) (A) (A) (A) (A) (A) (A) (A) (A) (A)
                 (A) (A) (A) (A) (A) (A) (A) (A) (A) (A) (A) (A)
                 (A) (A) (A) (A) (A) (A) (A) (A) (A) (A) (A) (A)
                 (A) (A) (A) (A) (A) (A) (A) (A) (A) (A) (A) (A)
                 (A) (A) (A) (A) (A) (A) (A) (A) (A) (A) (A) (A)
                 (A) (A) (A) (A) (A) (A) (A) (A) (A) (A) (A) (A)
 The electronic state is 1-A.
 Alpha  occ. eigenvalues -- -102.64328 -19.61830 -10.61592 -10.61569 -10.61097
 Alpha  occ. eigenvalues --  -10.58940 -10.58166 -10.57236 -10.57034 -10.56907
 Alpha  occ. eigenvalues --  -10.56573 -10.56504 -10.56361 -10.56288 -10.55445
 Alpha  occ. eigenvalues --  -10.55201 -10.55187  -9.81319  -7.54017  -7.53351
 Alpha  occ. eigenvalues --   -7.53346  -1.12555  -0.99532  -0.95140  -0.92653
 Alpha  occ. eigenvalues --   -0.90684  -0.84834  -0.84545  -0.83161  -0.78442
 Alpha  occ. eigenvalues --   -0.78147  -0.71053  -0.70660  -0.70162  -0.65272
 Alpha  occ. eigenvalues --   -0.60472  -0.59270  -0.58950  -0.56885  -0.55172
 Alpha  occ. eigenvalues --   -0.53855  -0.52984  -0.52692  -0.50681  -0.49999
 Alpha  occ. eigenvalues --   -0.49794  -0.48116  -0.47820  -0.46549  -0.45627
 Alpha  occ. eigenvalues --   -0.45118  -0.44775  -0.44184  -0.43032  -0.42355
 Alpha  occ. eigenvalues --   -0.42148  -0.41354  -0.40457  -0.37812  -0.36870
 Alpha  occ. eigenvalues --   -0.34704  -0.33140  -0.32278  -0.29190  -0.25182
 Alpha virt. eigenvalues --   -0.03947  -0.01221   0.01567   0.06032   0.08262
 Alpha virt. eigenvalues --    0.09263   0.09738   0.11688   0.12107   0.12365
 Alpha virt. eigenvalues --    0.14057   0.14371   0.16011   0.16642   0.17416
 Alpha virt. eigenvalues --    0.18034   0.18604   0.19538   0.20529   0.21665
 Alpha virt. eigenvalues --    0.22265   0.22928   0.24797   0.25069   0.27643
 Alpha virt. eigenvalues --    0.28704   0.29456   0.30013   0.31864   0.32227
 Alpha virt. eigenvalues --    0.33973   0.34653   0.34902   0.36373   0.37592
 Alpha virt. eigenvalues --    0.37901   0.39595   0.40813   0.42594   0.44026
 Alpha virt. eigenvalues --    0.45642   0.45817   0.46659   0.48076   0.48950
 Alpha virt. eigenvalues --    0.49817   0.50504   0.51136   0.52020   0.52573
 Alpha virt. eigenvalues --    0.53576   0.53829   0.54524   0.55228   0.56505
 Alpha virt. eigenvalues --    0.57794   0.58695   0.59847   0.61507   0.62433
 Alpha virt. eigenvalues --    0.62981   0.64328   0.64723   0.65352   0.67508
 Alpha virt. eigenvalues --    0.67855   0.68393   0.68932   0.69604   0.69989
 Alpha virt. eigenvalues --    0.70448   0.71622   0.71768   0.72226   0.72552
 Alpha virt. eigenvalues --    0.73442   0.74120   0.74450   0.74958   0.75813
 Alpha virt. eigenvalues --    0.76349   0.77342   0.77403   0.77999   0.78067
 Alpha virt. eigenvalues --    0.78983   0.79228   0.80441   0.80759   0.81608
 Alpha virt. eigenvalues --    0.82551   0.83698   0.83985   0.84891   0.85320
 Alpha virt. eigenvalues --    0.86565   0.87351   0.87840   0.89213   0.90799
 Alpha virt. eigenvalues --    0.91975   0.92215   0.96465   0.98527   0.99874
 Alpha virt. eigenvalues --    1.00176   1.00917   1.03495   1.05083   1.08020
 Alpha virt. eigenvalues --    1.10708   1.12849   1.13956   1.16367   1.19325
 Alpha virt. eigenvalues --    1.20699   1.22959   1.23554   1.25008   1.27078
 Alpha virt. eigenvalues --    1.28237   1.29364   1.30832   1.31703   1.32217
 Alpha virt. eigenvalues --    1.33771   1.34506   1.35520   1.36735   1.37244
 Alpha virt. eigenvalues --    1.38385   1.40173   1.42889   1.45078   1.48664
 Alpha virt. eigenvalues --    1.50518   1.51746   1.56007   1.56051   1.58599
 Alpha virt. eigenvalues --    1.59483   1.61341   1.61835   1.62922   1.66485
 Alpha virt. eigenvalues --    1.67971   1.70089   1.71593   1.72818   1.73531
 Alpha virt. eigenvalues --    1.73736   1.76077   1.76793   1.77924   1.78915
 Alpha virt. eigenvalues --    1.79201   1.79537   1.80530   1.81315   1.82380
 Alpha virt. eigenvalues --    1.82805   1.83997   1.84607   1.85347   1.86351
 Alpha virt. eigenvalues --    1.86573   1.87833   1.88511   1.88777   1.90678
 Alpha virt. eigenvalues --    1.92538   1.92914   1.94688   1.96180   1.97443
 Alpha virt. eigenvalues --    1.98193   1.99182   2.00227   2.01039   2.02353
 Alpha virt. eigenvalues --    2.03338   2.05609   2.06566   2.08127   2.08491
 Alpha virt. eigenvalues --    2.10017   2.12568   2.13742   2.14919   2.15380
 Alpha virt. eigenvalues --    2.17413   2.19244   2.20856   2.21062   2.22884
 Alpha virt. eigenvalues --    2.24516   2.25737   2.27446   2.28251   2.30380
 Alpha virt. eigenvalues --    2.30720   2.32383   2.32487   2.34315   2.37470
 Alpha virt. eigenvalues --    2.38471   2.39360   2.40478   2.40840   2.43811
 Alpha virt. eigenvalues --    2.46491   2.49106   2.50569   2.53522   2.54824
 Alpha virt. eigenvalues --    2.58117   2.58614   2.59537   2.60446   2.63231
 Alpha virt. eigenvalues --    2.64717   2.66109   2.66862   2.68322   2.72452
 Alpha virt. eigenvalues --    2.75489   2.76568   2.78120   2.78988   2.80580
 Alpha virt. eigenvalues --    2.83146   2.86446   2.87864   2.88074   2.91481
 Alpha virt. eigenvalues --    2.91960   2.93088   2.94161   2.96278   2.98106
 Alpha virt. eigenvalues --    2.99696   3.02949   3.05977   3.10606   3.13522
 Alpha virt. eigenvalues --    3.16004   3.18530   3.31222   3.39185   3.43433
 Alpha virt. eigenvalues --    3.62400   3.69899
          Condensed to atoms (all electrons):
               1          2          3          4          5          6
     1  C    5.112896   0.310336   0.090154  -0.153553   0.108010   0.204312
     2  C    0.310336   5.190770   0.288719   0.032139  -0.142658   0.091416
     3  C    0.090154   0.288719   5.388960   0.184642   0.002307  -0.143411
     4  C   -0.153553   0.032139   0.184642   5.895995   0.260759   0.087787
     5  C    0.108010  -0.142658   0.002307   0.260759   5.246970   0.233615
     6  C    0.204312   0.091416  -0.143411   0.087787   0.233615   5.192362
     7  H    0.454909  -0.066246   0.014798  -0.001135   0.013447  -0.073370
     8  H   -0.063290   0.453832  -0.068001   0.015872  -0.002149   0.013615
     9  H    0.013794  -0.002081   0.015186  -0.078165   0.464138  -0.071477
    10  H   -0.073887   0.013790  -0.001305   0.015123  -0.072884   0.460872
    11  C   -0.003036   0.017658   0.030446   0.062746  -0.115151   0.022347
    12  C    0.015118  -0.121399   0.231808   0.011628   0.023340  -0.002154
    13  C    0.000116  -0.003636  -0.123416  -0.018771   0.028865  -0.000711
    14  H    0.000002   0.000041  -0.001522   0.018917  -0.000484  -0.000005
    15  C   -0.000520   0.015346   0.069788  -0.106265  -0.005366   0.000255
    16  H    0.000003  -0.000359   0.016058  -0.002105   0.000039   0.000002
    17  O   -0.000045  -0.000039   0.004534  -0.142140   0.010512   0.002009
    18  Cl   0.000086  -0.005183  -0.071651   0.003110  -0.000135   0.000021
    19  C   -0.000011   0.000010   0.000999  -0.012726  -0.000055   0.000188
    20  C    0.000000   0.000006   0.000381   0.001873  -0.000271   0.000005
    21  H    0.000000   0.000000   0.000000  -0.000107  -0.000011   0.000000
    22  C    0.000000   0.000000  -0.000003   0.000714  -0.000166  -0.000010
    23  H    0.000000   0.000000   0.000000   0.000049  -0.000002   0.000000
    24  H    0.000000   0.000000  -0.000008  -0.000334   0.000008   0.000011
    25  H    0.000000   0.000000   0.000000   0.000000   0.000007   0.000000
    26  C    0.000055  -0.000061  -0.000317  -0.004374   0.001551  -0.000693
    27  H    0.000173   0.000085  -0.000751   0.002533   0.001874  -0.000642
    28  H   -0.000004  -0.000001   0.000063  -0.000492   0.000139   0.000074
    29  H    0.000030  -0.000016  -0.000143  -0.000606   0.002789   0.000019
    30  C   -0.000001  -0.000065  -0.000867  -0.009559   0.000010   0.000011
    31  H    0.000000   0.000002   0.000293  -0.000214   0.000017  -0.000001
    32  H   -0.000044  -0.000055   0.002191   0.000767  -0.000748   0.000022
               7          8          9         10         11         12
     1  C    0.454909  -0.063290   0.013794  -0.073887  -0.003036   0.015118
     2  C   -0.066246   0.453832  -0.002081   0.013790   0.017658  -0.121399
     3  C    0.014798  -0.068001   0.015186  -0.001305   0.030446   0.231808
     4  C   -0.001135   0.015872  -0.078165   0.015123   0.062746   0.011628
     5  C    0.013447  -0.002149   0.464138  -0.072884  -0.115151   0.023340
     6  C   -0.073370   0.013615  -0.071477   0.460872   0.022347  -0.002154
     7  H    0.640222  -0.011547  -0.000213  -0.010872   0.000038  -0.000397
     8  H   -0.011547   0.644027   0.000023  -0.000207  -0.000067  -0.027666
     9  H   -0.000213   0.000023   0.647750  -0.010996  -0.022929  -0.000052
    10  H   -0.010872  -0.000207  -0.010996   0.642001  -0.000352   0.000042
    11  C    0.000038  -0.000067  -0.022929  -0.000352   5.194396  -0.155526
    12  C   -0.000397  -0.027666  -0.000052   0.000042  -0.155526   5.355717
    13  C    0.000000  -0.000087   0.002572   0.000002   0.159953   0.126104
    14  H    0.000000   0.000001  -0.000039   0.000000  -0.045098   0.013198
    15  C    0.000002   0.000502  -0.000294   0.000001   0.133799   0.352711
    16  H    0.000000  -0.000006   0.000002   0.000000   0.012531  -0.070287
    17  O    0.000000   0.000001   0.016775  -0.000010   0.612077  -0.000452
    18  Cl  -0.000023   0.022130   0.000001   0.000000   0.000452   0.236591
    19  C    0.000000   0.000000  -0.001073   0.000003  -0.037623  -0.000354
    20  C    0.000000   0.000000  -0.000031   0.000000  -0.021954   0.000146
    21  H    0.000000   0.000000  -0.000001   0.000000  -0.000637   0.000003
    22  C    0.000000   0.000000  -0.000347   0.000000   0.001157   0.000002
    23  H    0.000000   0.000000  -0.000013   0.000000  -0.000121   0.000000
    24  H    0.000000   0.000000   0.000483   0.000000   0.000621   0.000001
    25  H    0.000000   0.000000  -0.000006   0.000000  -0.000080   0.000000
    26  C    0.000000   0.000001   0.000938  -0.000004  -0.000757  -0.000060
    27  H   -0.000001  -0.000006  -0.001106   0.000000   0.002191  -0.000324
    28  H    0.000000   0.000000   0.000102   0.000000  -0.000051   0.000003
    29  H    0.000000   0.000000   0.000708   0.000012   0.000757   0.000015
    30  C    0.000000   0.000000   0.000107   0.000000  -0.016795  -0.005351
    31  H    0.000000   0.000000   0.000001   0.000000   0.001063  -0.001596
    32  H    0.000000   0.000007  -0.000028   0.000000  -0.005023   0.003543
              13         14         15         16         17         18
     1  C    0.000116   0.000002  -0.000520   0.000003  -0.000045   0.000086
     2  C   -0.003636   0.000041   0.015346  -0.000359  -0.000039  -0.005183
     3  C   -0.123416  -0.001522   0.069788   0.016058   0.004534  -0.071651
     4  C   -0.018771   0.018917  -0.106265  -0.002105  -0.142140   0.003110
     5  C    0.028865  -0.000484  -0.005366   0.000039   0.010512  -0.000135
     6  C   -0.000711  -0.000005   0.000255   0.000002   0.002009   0.000021
     7  H    0.000000   0.000000   0.000002   0.000000   0.000000  -0.000023
     8  H   -0.000087   0.000001   0.000502  -0.000006   0.000001   0.022130
     9  H    0.002572  -0.000039  -0.000294   0.000002   0.016775   0.000001
    10  H    0.000002   0.000000   0.000001   0.000000  -0.000010   0.000000
    11  C    0.159953  -0.045098   0.133799   0.012531   0.612077   0.000452
    12  C    0.126104   0.013198   0.352711  -0.070287  -0.000452   0.236591
    13  C    5.614833   0.410628   0.069273  -0.057901  -0.094118   0.003505
    14  H    0.410628   0.636200  -0.056172  -0.011185   0.004148  -0.000113
    15  C    0.069273  -0.056172   5.143337   0.445459   0.006851  -0.065395
    16  H   -0.057901  -0.011185   0.445459   0.632612  -0.000090   0.000791
    17  O   -0.094118   0.004148   0.006851  -0.000090   7.913773   0.000000
    18  Cl   0.003505  -0.000113  -0.065395   0.000791   0.000000  16.992077
    19  C   -0.044925  -0.005623   0.003109   0.000013   0.106034   0.000000
    20  C   -0.051379   0.001105   0.005111   0.000008  -0.015914  -0.000001
    21  H   -0.001881   0.002315   0.000237  -0.000002  -0.000221   0.000000
    22  C    0.000597   0.000070  -0.000013  -0.000001  -0.022235   0.000000
    23  H   -0.000038   0.000051   0.000005   0.000000   0.000906   0.000000
    24  H    0.000403  -0.000019  -0.000012   0.000000   0.004501   0.000000
    25  H   -0.000063   0.000010   0.000001   0.000000   0.001381   0.000000
    26  C    0.000460   0.000270   0.000053   0.000001  -0.018700   0.000000
    27  H   -0.001093  -0.000081   0.000283  -0.000004  -0.004279   0.000002
    28  H   -0.000202  -0.000008   0.000007   0.000000   0.001820   0.000000
    29  H    0.000267   0.000010  -0.000025   0.000000  -0.002328   0.000000
    30  C    0.152889  -0.009151  -0.034167  -0.000141  -0.033314   0.000073
    31  H   -0.004105  -0.005775   0.001620   0.001212   0.000264  -0.000021
    32  H   -0.016468   0.002736  -0.000996  -0.000256   0.000076  -0.000118
              19         20         21         22         23         24
     1  C   -0.000011   0.000000   0.000000   0.000000   0.000000   0.000000
     2  C    0.000010   0.000006   0.000000   0.000000   0.000000   0.000000
     3  C    0.000999   0.000381   0.000000  -0.000003   0.000000  -0.000008
     4  C   -0.012726   0.001873  -0.000107   0.000714   0.000049  -0.000334
     5  C   -0.000055  -0.000271  -0.000011  -0.000166  -0.000002   0.000008
     6  C    0.000188   0.000005   0.000000  -0.000010   0.000000   0.000011
     7  H    0.000000   0.000000   0.000000   0.000000   0.000000   0.000000
     8  H    0.000000   0.000000   0.000000   0.000000   0.000000   0.000000
     9  H   -0.001073  -0.000031  -0.000001  -0.000347  -0.000013   0.000483
    10  H    0.000003   0.000000   0.000000   0.000000   0.000000   0.000000
    11  C   -0.037623  -0.021954  -0.000637   0.001157  -0.000121   0.000621
    12  C   -0.000354   0.000146   0.000003   0.000002   0.000000   0.000001
    13  C   -0.044925  -0.051379  -0.001881   0.000597  -0.000038   0.000403
    14  H   -0.005623   0.001105   0.002315   0.000070   0.000051  -0.000019
    15  C    0.003109   0.005111   0.000237  -0.000013   0.000005  -0.000012
    16  H    0.000013   0.000008  -0.000002  -0.000001   0.000000   0.000000
    17  O    0.106034  -0.015914  -0.000221  -0.022235   0.000906   0.004501
    18  Cl   0.000000  -0.000001   0.000000   0.000000   0.000000   0.000000
    19  C    5.108639   0.439922  -0.042455   0.403224  -0.013615  -0.015908
    20  C    0.439922   4.937473   0.416839  -0.065037  -0.012850   0.007841
    21  H   -0.042455   0.416839   0.629942  -0.013729   0.005826   0.000346
    22  C    0.403224  -0.065037  -0.013729   4.573028   0.392474   0.379078
    23  H   -0.013615  -0.012850   0.005826   0.392474   0.605726  -0.020568
    24  H   -0.015908   0.007841   0.000346   0.379078  -0.020568   0.604091
    25  H   -0.014742  -0.004541   0.000218   0.388155  -0.017991  -0.017848
    26  C    0.385777  -0.068335   0.008524  -0.058348   0.007442  -0.006540
    27  H   -0.002911  -0.020488  -0.000155   0.007440  -0.000357  -0.000143
    28  H   -0.014398  -0.003920  -0.000113  -0.004110  -0.000167  -0.000397
    29  H   -0.022385   0.010125  -0.000270  -0.005374   0.000054   0.005122
    30  C   -0.040260   0.513911  -0.040424   0.011745   0.000506  -0.000357
    31  H    0.011719  -0.012909  -0.011705  -0.000300  -0.000023   0.000008
    32  H   -0.021704  -0.006919   0.006861   0.000075  -0.000001  -0.000008
              25         26         27         28         29         30
     1  C    0.000000   0.000055   0.000173  -0.000004   0.000030  -0.000001
     2  C    0.000000  -0.000061   0.000085  -0.000001  -0.000016  -0.000065
     3  C    0.000000  -0.000317  -0.000751   0.000063  -0.000143  -0.000867
     4  C    0.000000  -0.004374   0.002533  -0.000492  -0.000606  -0.009559
     5  C    0.000007   0.001551   0.001874   0.000139   0.002789   0.000010
     6  C    0.000000  -0.000693  -0.000642   0.000074   0.000019   0.000011
     7  H    0.000000   0.000000  -0.000001   0.000000   0.000000   0.000000
     8  H    0.000000   0.000001  -0.000006   0.000000   0.000000   0.000000
     9  H   -0.000006   0.000938  -0.001106   0.000102   0.000708   0.000107
    10  H    0.000000  -0.000004   0.000000   0.000000   0.000012   0.000000
    11  C   -0.000080  -0.000757   0.002191  -0.000051   0.000757  -0.016795
    12  C    0.000000  -0.000060  -0.000324   0.000003   0.000015  -0.005351
    13  C   -0.000063   0.000460  -0.001093  -0.000202   0.000267   0.152889
    14  H    0.000010   0.000270  -0.000081  -0.000008   0.000010  -0.009151
    15  C    0.000001   0.000053   0.000283   0.000007  -0.000025  -0.034167
    16  H    0.000000   0.000001  -0.000004   0.000000   0.000000  -0.000141
    17  O    0.001381  -0.018700  -0.004279   0.001820  -0.002328  -0.033314
    18  Cl   0.000000   0.000000   0.000002   0.000000   0.000000   0.000073
    19  C   -0.014742   0.385777  -0.002911  -0.014398  -0.022385  -0.040260
    20  C   -0.004541  -0.068335  -0.020488  -0.003920   0.010125   0.513911
    21  H    0.000218   0.008524  -0.000155  -0.000113  -0.000270  -0.040424
    22  C    0.388155  -0.058348   0.007440  -0.004110  -0.005374   0.011745
    23  H   -0.017991   0.007442  -0.000357  -0.000167   0.000054   0.000506
    24  H   -0.017848  -0.006540  -0.000143  -0.000397   0.005122  -0.000357
    25  H    0.594089  -0.002133   0.000032   0.002080  -0.000861  -0.000517
    26  C   -0.002133   4.597225   0.388359   0.383008   0.390653  -0.007307
    27  H    0.000032   0.388359   0.595481  -0.016643  -0.022217   0.009537
    28  H    0.002080   0.383008  -0.016643   0.593761  -0.017493  -0.001535
    29  H   -0.000861   0.390653  -0.022217  -0.017493   0.601903  -0.000013
    30  C   -0.000517  -0.007307   0.009537  -0.001535  -0.000013   4.760565
    31  H    0.000010  -0.000043  -0.000051   0.000016  -0.000004   0.380301
    32  H    0.000012   0.005581   0.000799   0.000363  -0.000229   0.386262
              31         32
     1  C    0.000000  -0.000044
     2  C    0.000002  -0.000055
     3  C    0.000293   0.002191
     4  C   -0.000214   0.000767
     5  C    0.000017  -0.000748
     6  C   -0.000001   0.000022
     7  H    0.000000   0.000000
     8  H    0.000000   0.000007
     9  H    0.000001  -0.000028
    10  H    0.000000   0.000000
    11  C    0.001063  -0.005023
    12  C   -0.001596   0.003543
    13  C   -0.004105  -0.016468
    14  H   -0.005775   0.002736
    15  C    0.001620  -0.000996
    16  H    0.001212  -0.000256
    17  O    0.000264   0.000076
    18  Cl  -0.000021  -0.000118
    19  C    0.011719  -0.021704
    20  C   -0.012909  -0.006919
    21  H   -0.011705   0.006861
    22  C   -0.000300   0.000075
    23  H   -0.000023  -0.000001
    24  H    0.000008  -0.000008
    25  H    0.000010   0.000012
    26  C   -0.000043   0.005581
    27  H   -0.000051   0.000799
    28  H    0.000016   0.000363
    29  H   -0.000004  -0.000229
    30  C    0.380301   0.386262
    31  H    0.591957  -0.033616
    32  H   -0.033616   0.600289
 Mulliken charges:
               1
     1  C   -0.015604
     2  C   -0.072351
     3  C    0.070069
     4  C   -0.064110
     5  C   -0.058316
     6  C   -0.016469
     7  H    0.040387
     8  H    0.023018
     9  H    0.026270
    10  H    0.038672
    11  C    0.172968
    12  C    0.015645
    13  C   -0.151674
    14  H    0.045574
    15  C    0.021476
    16  H    0.033606
    17  O   -0.351777
    18  Cl  -0.116202
    19  C   -0.168869
    20  C   -0.050199
    21  H    0.040599
    22  C    0.011912
    23  H    0.052709
    24  H    0.059630
    25  H    0.072785
    26  C   -0.002225
    27  H    0.062463
    28  H    0.078097
    29  H    0.059500
    30  C   -0.016094
    31  H    0.081880
    32  H    0.076630
 Sum of Mulliken charges =   0.00000
 Mulliken charges with hydrogens summed into heavy atoms:
               1
     1  C    0.024783
     2  C   -0.049333
     3  C    0.070069
     4  C   -0.064110
     5  C   -0.032046
     6  C    0.022203
    11  C    0.172968
    12  C    0.015645
    13  C   -0.106100
    15  C    0.055082
    17  O   -0.351777
    18  Cl  -0.116202
    19  C   -0.168869
    20  C   -0.009600
    22  C    0.197036
    26  C    0.197834
    30  C    0.142416
 APT charges:
               1
     1  C   -0.028577
     2  C   -0.147676
     3  C   -0.003601
     4  C   -0.038026
     5  C   -0.102910
     6  C   -0.031970
     7  H    0.052543
     8  H    0.090067
     9  H    0.100043
    10  H    0.052634
    11  C    0.487428
    12  C    0.387872
    13  C   -0.412121
    14  H    0.066297
    15  C    0.089151
    16  H    0.080024
    17  O   -0.814192
    18  Cl  -0.488067
    19  C    0.684618
    20  C   -0.642245
    21  H    0.050532
    22  C   -0.110509
    23  H    0.009633
    24  H    0.036904
    25  H   -0.011080
    26  C   -0.139383
    27  H    0.037825
    28  H    0.030509
    29  H    0.048096
    30  C    0.613243
    31  H    0.050558
    32  H    0.002378
 Sum of APT charges =   0.00000
 APT charges with hydrogens summed into heavy atoms:
               1
     1  C    0.023966
     2  C   -0.057609
     3  C   -0.003601
     4  C   -0.038026
     5  C   -0.002867
     6  C    0.020664
    11  C    0.487428
    12  C    0.387872
    13  C   -0.345824
    15  C    0.169175
    17  O   -0.814192
    18  Cl  -0.488067
    19  C    0.684618
    20  C   -0.591713
    22  C   -0.075051
    26  C   -0.022953
    30  C    0.666179
 Electronic spatial extent (au):  <R**2>=           4420.1435
 Charge=              0.0000 electrons
 Dipole moment (field-independent basis, Debye):
    X=              2.9252    Y=             -0.2930    Z=              2.5240  Tot=              3.8747
 Quadrupole moment (field-independent basis, Debye-Ang):
   XX=           -101.5864   YY=            -93.9871   ZZ=           -112.2065
   XY=             -4.3328   XZ=              2.2585   YZ=              3.1109
 Traceless Quadrupole moment (field-independent basis, Debye-Ang):
   XX=              1.0069   YY=              8.6062   ZZ=             -9.6132
   XY=             -4.3328   XZ=              2.2585   YZ=              3.1109
 Octapole moment (field-independent basis, Debye-Ang**2):
  XXX=             45.4708  YYY=             -1.3829  ZZZ=              6.3900  XYY=              1.7396
  XXY=             16.7900  XXZ=             14.3754  XZZ=              0.1102  YZZ=             -6.2578
  YYZ=             -1.9110  XYZ=              0.5935
 Hexadecapole moment (field-independent basis, Debye-Ang**3):
 XXXX=          -3530.1698 YYYY=          -1583.3234 ZZZZ=           -442.8236 XXXY=             -5.5224
 XXXZ=            -29.0674 YYYX=            -14.0526 YYYZ=             14.5856 ZZZX=             -5.2883
 ZZZY=              3.3074 XXYY=           -882.7439 XXZZ=           -712.2153 YYZZ=           -383.9559
 XXYZ=             36.3755 YYXZ=            -27.7454 ZZXY=             20.6211
 N-N= 1.297350193425D+03 E-N=-5.207022941376D+03  KE= 1.107232567192D+03
  Exact polarizability: 356.404 -10.232 289.749  -5.176   5.464 152.756
 Approx polarizability: 317.200  -0.517 275.396 -11.147   1.761 162.754
   1 Symmetry operations used in ECPInt.
 ECPInt:  NShTT=   11175 NPrTT=   41031 LenC2=   10629 LenP2D=   28322.
 LDataN:  DoStor=T MaxTD1= 6 Len=  172
 D2PCM: C-PCM CHGder 2nd derivatives, FixD1E=F FixD2E=F DoIter=F DoCFld=F I1PDM=0
 Calling FoFJK, ICntrl=    100127 FMM=F ISym2X=0 I1Cent= 0 IOpClX= 0 NMat=1 NMatS=1 NMatT=0.
 Full mass-weighted force constant matrix:
 Low frequencies --- -412.7591  -12.9409   -6.7307   -0.0012    0.0015    0.0025
 Low frequencies ---    7.4764   52.7746   72.7906
 ******    1 imaginary frequencies (negative Signs) ****** 
 Diagonal vibrational polarizability:
       87.0136385      18.6988450      38.2431659
 Harmonic frequencies (cm**-1), IR intensities (KM/Mole), Raman scattering
 activities (A**4/AMU), depolarization ratios for plane and unpolarized
 incident light, reduced masses (AMU), force constants (mDyne/A),
 and normal coordinates:
                      1                      2                      3
                      A                      A                      A
 Frequencies --   -412.7587                52.6950                72.7727
 Red. masses --      8.7276                 4.1007                 4.3096
 Frc consts  --      0.8761                 0.0067                 0.0134
 IR Inten    --    119.4691                 0.0673                 1.3565
  Atom  AN      X      Y      Z        X      Y      Z        X      Y      Z
     1   6     0.00  -0.01   0.00     0.04   0.02  -0.05     0.13  -0.04   0.19
     2   6     0.00   0.01   0.00     0.04   0.02  -0.01     0.10  -0.03   0.15
     3   6     0.00  -0.02  -0.01     0.03   0.01  -0.01     0.05  -0.03   0.00
     4   6     0.03  -0.03  -0.01     0.02   0.01  -0.05     0.02  -0.03  -0.09
     5   6     0.02   0.00   0.01     0.02   0.01  -0.09     0.03  -0.04  -0.08
     6   6     0.02  -0.01  -0.01     0.03   0.02  -0.09     0.09  -0.04   0.06
     7   1     0.00   0.00   0.00     0.04   0.03  -0.05     0.18  -0.05   0.31
     8   1     0.00   0.01   0.00     0.05   0.03   0.03     0.13  -0.03   0.23
     9   1     0.02   0.01   0.02     0.01   0.00  -0.11     0.01  -0.04  -0.16
    10   1     0.01  -0.01  -0.01     0.03   0.02  -0.12     0.10  -0.04   0.07
    11   6    -0.03  -0.04   0.05     0.01   0.00  -0.05     0.00  -0.04  -0.11
    12   6    -0.01   0.03  -0.01     0.02   0.01   0.01     0.02  -0.02  -0.04
    13   6    -0.15   0.09  -0.30    -0.01   0.00  -0.09    -0.01  -0.03  -0.09
    14   1     0.03   0.00   0.07    -0.03   0.01  -0.13     0.02  -0.05  -0.03
    15   6    -0.01   0.03  -0.10     0.00   0.01  -0.05    -0.01  -0.02  -0.09
    16   1     0.00   0.03  -0.08    -0.01   0.01  -0.04    -0.02  -0.02  -0.11
    17   8     0.20  -0.06   0.28     0.02   0.00  -0.02     0.01  -0.05  -0.09
    18  17     0.00   0.00   0.01     0.06   0.02   0.14     0.02  -0.01   0.00
    19   6    -0.26   0.13  -0.32    -0.07   0.00   0.05    -0.08   0.06   0.03
    20   6    -0.03  -0.05   0.05     0.00  -0.04  -0.08    -0.11   0.08   0.11
    21   1     0.07  -0.04   0.14     0.06   0.04  -0.12    -0.08   0.02   0.23
    22   6    -0.09   0.02  -0.08    -0.06   0.14   0.16    -0.03  -0.02   0.08
    23   1    -0.10   0.04  -0.12     0.04   0.22   0.11     0.01  -0.09   0.18
    24   1     0.15   0.11   0.01    -0.08   0.18   0.23     0.02  -0.07  -0.02
    25   1    -0.21  -0.21   0.09    -0.11   0.13   0.22    -0.08   0.05   0.12
    26   6    -0.02   0.01  -0.03    -0.21  -0.11   0.10    -0.11   0.14  -0.09
    27   1    -0.02   0.06   0.03    -0.22  -0.19   0.00    -0.12   0.17  -0.12
    28   1     0.07  -0.22  -0.09    -0.29  -0.17   0.15    -0.14   0.20  -0.07
    29   1     0.02   0.07   0.11    -0.22  -0.06   0.20    -0.07   0.10  -0.16
    30   6     0.25  -0.08   0.34     0.02  -0.14  -0.13    -0.15   0.13   0.05
    31   1     0.13  -0.06   0.19     0.07  -0.16  -0.24    -0.17   0.14   0.12
    32   1     0.05   0.04  -0.01    -0.02  -0.23  -0.08    -0.20   0.19  -0.08
                      4                      5                      6
                      A                      A                      A
 Frequencies --     83.0349               134.1410               159.9250
 Red. masses --      5.2431                 3.8717                 1.2859
 Frc consts  --      0.0213                 0.0410                 0.0194
 IR Inten    --      1.1632                 1.0083                 3.3046
  Atom  AN      X      Y      Z        X      Y      Z        X      Y      Z
     1   6     0.10   0.00   0.07    -0.02   0.00   0.06    -0.03   0.00   0.01
     2   6     0.05   0.01   0.07     0.06  -0.02   0.24    -0.01   0.00   0.03
     3   6     0.01  -0.02   0.05     0.05   0.00   0.14    -0.01   0.00   0.01
     4   6     0.01  -0.06   0.02     0.00   0.03   0.01    -0.01   0.01   0.00
     5   6     0.05  -0.07  -0.01    -0.10   0.06  -0.19    -0.03   0.01  -0.01
     6   6     0.10  -0.04   0.02    -0.12   0.04  -0.21    -0.04   0.01  -0.01
     7   1     0.14   0.02   0.10    -0.01  -0.02   0.11    -0.03  -0.01   0.02
     8   1     0.05   0.05   0.10     0.13  -0.06   0.42     0.00  -0.01   0.04
     9   1     0.05  -0.11  -0.05    -0.16   0.09  -0.35    -0.03   0.02  -0.01
    10   1     0.13  -0.05   0.00    -0.21   0.06  -0.41    -0.05   0.01  -0.03
    11   6    -0.02  -0.10   0.03     0.01   0.04   0.03    -0.01   0.01   0.00
    12   6    -0.03  -0.01   0.05     0.04   0.01   0.08    -0.01   0.01   0.00
    13   6    -0.02  -0.10   0.13     0.03   0.04   0.03    -0.02   0.01  -0.03
    14   1    -0.05  -0.12   0.12     0.02   0.05   0.00    -0.01   0.01  -0.01
    15   6    -0.03  -0.05   0.13     0.03   0.02   0.01    -0.01   0.01  -0.02
    16   1    -0.07  -0.05   0.15     0.01   0.03  -0.07    -0.02   0.01  -0.04
    17   8    -0.04  -0.11  -0.05     0.02   0.04   0.05     0.00   0.00   0.00
    18  17    -0.12   0.07  -0.14     0.00   0.00  -0.09    -0.01   0.01   0.00
    19   6     0.00   0.08  -0.02     0.00  -0.04   0.00     0.04  -0.02   0.00
    20   6     0.12   0.05  -0.05     0.00  -0.04   0.00     0.04  -0.02   0.00
    21   1     0.16   0.12  -0.10     0.00  -0.04  -0.01     0.05  -0.03   0.02
    22   6    -0.05   0.24  -0.04     0.01  -0.06   0.01     0.07  -0.02   0.05
    23   1     0.05   0.28  -0.04    -0.10  -0.01  -0.11     0.36  -0.20   0.42
    24   1    -0.19   0.22  -0.05     0.09   0.03   0.14    -0.08  -0.27  -0.33
    25   1    -0.06   0.36  -0.06     0.05  -0.26   0.01    -0.09   0.49   0.09
    26   6    -0.10   0.01   0.00     0.01  -0.04   0.01     0.00  -0.01  -0.05
    27   1    -0.10  -0.07  -0.03     0.04  -0.10   0.11    -0.07   0.09  -0.26
    28   1    -0.13   0.02   0.02     0.09   0.03  -0.04    -0.18  -0.12   0.06
    29   1    -0.16   0.04   0.04    -0.10  -0.06  -0.04     0.19   0.00   0.02
    30   6     0.17  -0.06   0.02     0.00  -0.05   0.00     0.05  -0.02   0.03
    31   1     0.26  -0.09   0.00     0.00  -0.05  -0.03     0.03  -0.01   0.02
    32   1     0.17  -0.14   0.09     0.01  -0.06   0.01     0.05   0.00   0.01
                      7                      8                      9
                      A                      A                      A
 Frequencies --    184.3068               194.5310               208.0733
 Red. masses --      3.2568                 1.5712                 2.7217
 Frc consts  --      0.0652                 0.0350                 0.0694
 IR Inten    --     27.7579                 7.4618                14.2602
  Atom  AN      X      Y      Z        X      Y      Z        X      Y      Z
     1   6     0.01   0.03  -0.04    -0.03  -0.01   0.03    -0.06  -0.02  -0.09
     2   6     0.02   0.03  -0.01    -0.02  -0.01  -0.02     0.00  -0.03   0.00
     3   6     0.04   0.02   0.04    -0.01   0.01  -0.02     0.05  -0.03   0.11
     4   6     0.04   0.04   0.05    -0.01   0.01  -0.02     0.06  -0.02   0.13
     5   6     0.04   0.04   0.05    -0.02   0.02   0.01     0.03  -0.01   0.13
     6   6     0.03   0.04   0.01    -0.02   0.00   0.04    -0.03  -0.02   0.00
     7   1    -0.01   0.03  -0.08    -0.03  -0.02   0.05    -0.12  -0.02  -0.23
     8   1     0.01   0.02  -0.04    -0.02  -0.02  -0.03    -0.01  -0.05  -0.06
     9   1     0.05   0.04   0.08    -0.02   0.03   0.02     0.03   0.01   0.15
    10   1     0.02   0.04   0.01    -0.02   0.00   0.08    -0.06  -0.01  -0.06
    11   6     0.02   0.03   0.04     0.00   0.01  -0.01     0.02  -0.01   0.04
    12   6     0.07   0.01   0.06     0.00   0.01   0.01     0.04  -0.02   0.06
    13   6     0.08   0.02   0.11     0.01   0.01   0.03     0.01  -0.01  -0.02
    14   1     0.06   0.04   0.06     0.01   0.00   0.05    -0.02   0.02  -0.10
    15   6     0.08   0.01   0.11     0.02   0.00   0.06     0.00  -0.01  -0.01
    16   1     0.09   0.01   0.13     0.03   0.00   0.09    -0.02   0.00  -0.09
    17   8     0.02   0.02   0.02     0.00   0.00  -0.05     0.02  -0.03   0.01
    18  17     0.07  -0.05  -0.05    -0.01   0.01   0.00     0.00   0.06  -0.01
    19   6    -0.12  -0.04  -0.07     0.01  -0.01  -0.04    -0.05   0.02  -0.06
    20   6    -0.08  -0.04   0.00     0.03  -0.01  -0.02    -0.01   0.01  -0.02
    21   1    -0.10  -0.05   0.01     0.04  -0.01   0.00     0.05   0.02   0.04
    22   6    -0.15  -0.02  -0.12     0.08  -0.05   0.07     0.04  -0.02   0.08
    23   1    -0.07  -0.10   0.01    -0.07   0.07  -0.15     0.12  -0.05   0.15
    24   1    -0.28  -0.15  -0.30     0.31   0.15   0.34     0.14  -0.04   0.03
    25   1    -0.15   0.21  -0.18     0.09  -0.45   0.15    -0.06  -0.01   0.18
    26   6    -0.14  -0.05  -0.06    -0.08   0.00  -0.10    -0.08   0.08  -0.16
    27   1    -0.23   0.09  -0.34    -0.17   0.12  -0.42     0.02  -0.08   0.13
    28   1    -0.39  -0.26   0.09    -0.36  -0.14   0.07     0.16   0.40  -0.30
    29   1     0.12  -0.01   0.09     0.17   0.02   0.00    -0.37   0.00  -0.39
    30   6    -0.10   0.00  -0.01     0.05   0.00   0.03    -0.03  -0.04  -0.11
    31   1    -0.11   0.00   0.03     0.05   0.00   0.05     0.02  -0.05  -0.12
    32   1    -0.07   0.01   0.01     0.07   0.01   0.03    -0.08  -0.08  -0.11
                     10                     11                     12
                      A                      A                      A
 Frequencies --    215.0548               224.3922               275.0551
 Red. masses --      2.2261                 6.0576                 4.7544
 Frc consts  --      0.0607                 0.1797                 0.2119
 IR Inten    --      0.4583                 7.8868                25.1858
  Atom  AN      X      Y      Z        X      Y      Z        X      Y      Z
     1   6    -0.01  -0.01   0.10     0.12   0.18  -0.03     0.06  -0.03   0.07
     2   6    -0.03   0.00  -0.05     0.01   0.19   0.01     0.00  -0.02  -0.04
     3   6    -0.03   0.03  -0.12    -0.08   0.08   0.05    -0.04  -0.03  -0.09
     4   6    -0.03   0.05  -0.11    -0.04   0.02   0.04    -0.03  -0.03  -0.08
     5   6    -0.05   0.05  -0.06     0.07   0.00  -0.01    -0.01  -0.04  -0.11
     6   6    -0.03   0.02   0.09     0.15   0.09  -0.03     0.04  -0.04   0.00
     7   1     0.01  -0.04   0.22     0.18   0.24  -0.05     0.12  -0.03   0.19
     8   1    -0.02  -0.03  -0.06    -0.03   0.28   0.02     0.00   0.00  -0.02
     9   1    -0.07   0.10  -0.09     0.09  -0.11  -0.04    -0.02  -0.07  -0.14
    10   1    -0.02   0.02   0.19     0.23   0.07  -0.07     0.07  -0.05   0.05
    11   6     0.00   0.02  -0.01    -0.05   0.02   0.03     0.02  -0.01   0.07
    12   6     0.01   0.02  -0.04    -0.08   0.06   0.05    -0.02  -0.04   0.01
    13   6     0.04   0.01   0.07    -0.07   0.04   0.00     0.04  -0.01   0.11
    14   1     0.05   0.01   0.09    -0.10   0.02   0.00     0.00  -0.02   0.06
    15   6     0.04   0.01   0.08    -0.06   0.08   0.04     0.02  -0.04   0.12
    16   1     0.08  -0.01   0.18    -0.08   0.09   0.05     0.08  -0.05   0.21
    17   8     0.02   0.00   0.01    -0.06   0.01  -0.01     0.07   0.04   0.25
    18  17     0.03   0.02   0.00    -0.02  -0.28  -0.03    -0.05   0.01   0.01
    19   6    -0.02  -0.04   0.00     0.00   0.00  -0.02    -0.08   0.07  -0.14
    20   6     0.03  -0.05   0.04     0.01   0.00  -0.04    -0.08   0.05  -0.16
    21   1     0.05  -0.04   0.05     0.04   0.01  -0.03    -0.09   0.09  -0.22
    22   6    -0.02  -0.03   0.00     0.08  -0.03   0.10     0.07   0.00   0.08
    23   1     0.05  -0.08   0.10     0.14  -0.03   0.15     0.21  -0.05   0.21
    24   1    -0.06  -0.11  -0.11     0.19  -0.02   0.09     0.23  -0.03   0.00
    25   1    -0.05   0.10   0.01    -0.01  -0.05   0.21    -0.11   0.03   0.26
    26   6    -0.06  -0.02  -0.06    -0.02   0.04  -0.09     0.10   0.06   0.00
    27   1     0.06  -0.23   0.28     0.05  -0.08   0.12     0.07   0.21  -0.03
    28   1     0.22   0.32  -0.23     0.15   0.26  -0.19     0.10  -0.16   0.00
    29   1    -0.44  -0.08  -0.29    -0.23  -0.02  -0.25     0.27   0.10   0.12
    30   6     0.04  -0.09   0.03     0.04  -0.04   0.00    -0.10   0.04  -0.24
    31   1     0.07  -0.10   0.01     0.06  -0.05  -0.04    -0.07   0.03  -0.22
    32   1     0.02  -0.13   0.06     0.04  -0.07   0.02    -0.06   0.00  -0.14
                     13                     14                     15
                      A                      A                      A
 Frequencies --    300.1080               333.7807               345.8653
 Red. masses --      2.9869                 3.1329                 6.1946
 Frc consts  --      0.1585                 0.2056                 0.4366
 IR Inten    --     20.4049                18.9159                32.8472
  Atom  AN      X      Y      Z        X      Y      Z        X      Y      Z
     1   6     0.04   0.02   0.02     0.00   0.00  -0.03     0.12  -0.05  -0.06
     2   6     0.00   0.02   0.01    -0.01   0.00  -0.01     0.01  -0.03  -0.01
     3   6    -0.03   0.00  -0.02     0.01  -0.01   0.02    -0.05  -0.10   0.03
     4   6    -0.02  -0.01   0.03    -0.02   0.00  -0.04    -0.09  -0.09   0.02
     5   6     0.00  -0.02  -0.02     0.00  -0.01   0.00     0.05  -0.14  -0.03
     6   6     0.02   0.00  -0.03     0.02  -0.01   0.03     0.14  -0.09  -0.03
     7   1     0.06   0.03   0.06    -0.01   0.00  -0.05     0.15   0.00  -0.09
     8   1    -0.01   0.05   0.02    -0.01   0.00  -0.02    -0.03   0.08  -0.01
     9   1     0.00  -0.05  -0.03     0.01  -0.02   0.01     0.07  -0.28  -0.06
    10   1     0.03   0.00  -0.05     0.03  -0.01   0.07     0.18  -0.10  -0.04
    11   6     0.01  -0.01   0.09    -0.04   0.01  -0.09    -0.02   0.08  -0.01
    12   6    -0.04   0.00  -0.10     0.05  -0.01   0.11     0.01  -0.11   0.03
    13   6     0.03  -0.02   0.04    -0.02   0.01  -0.10     0.09   0.05  -0.06
    14   1     0.02   0.02  -0.04    -0.03   0.00  -0.10     0.14   0.06  -0.01
    15   6    -0.04   0.01  -0.13     0.05  -0.02   0.11     0.10  -0.03  -0.01
    16   1    -0.06   0.02  -0.21     0.07  -0.03   0.18     0.19  -0.05  -0.03
    17   8    -0.01   0.03   0.14    -0.05   0.05  -0.09    -0.11   0.41   0.03
    18  17    -0.01   0.00   0.03     0.01   0.02  -0.03    -0.07   0.05   0.02
    19   6     0.05   0.01   0.11    -0.07   0.10   0.06     0.01  -0.03  -0.02
    20   6     0.09   0.01   0.11    -0.04   0.07   0.00     0.03  -0.02   0.00
    21   1     0.18   0.06   0.15     0.04   0.19  -0.06    -0.01  -0.07   0.03
    22   6    -0.04  -0.04  -0.10    -0.05  -0.14   0.02     0.02  -0.06  -0.02
    23   1    -0.24  -0.05  -0.18    -0.16  -0.29   0.15     0.03  -0.11   0.05
    24   1    -0.11  -0.03  -0.07     0.09  -0.22  -0.14     0.05  -0.10  -0.08
    25   1     0.14  -0.10  -0.27    -0.02  -0.13  -0.01     0.00  -0.03  -0.01
    26   6    -0.05   0.12  -0.08     0.06   0.14   0.10    -0.12  -0.11  -0.03
    27   1    -0.12   0.20  -0.33     0.03   0.26   0.07    -0.07  -0.30   0.05
    28   1    -0.29   0.18   0.07     0.05   0.00   0.11    -0.06   0.06  -0.06
    29   1     0.11   0.07  -0.15     0.22   0.15   0.15    -0.37  -0.10  -0.08
    30   6     0.03  -0.12  -0.10     0.06  -0.19  -0.01     0.05   0.06   0.11
    31   1     0.15  -0.16  -0.20     0.24  -0.24  -0.21    -0.04   0.09   0.18
    32   1    -0.06  -0.25  -0.04    -0.09  -0.36   0.05     0.08   0.15   0.05
                     16                     17                     18
                      A                      A                      A
 Frequencies --    370.1394               391.0985               409.6929
 Red. masses --      5.1410                 4.8478                 2.5557
 Frc consts  --      0.4150                 0.4369                 0.2527
 IR Inten    --      0.9131                 1.1926                 4.8182
  Atom  AN      X      Y      Z        X      Y      Z        X      Y      Z
     1   6     0.01   0.02   0.02     0.01  -0.06  -0.02     0.02  -0.02  -0.02
     2   6    -0.03   0.02   0.06     0.12  -0.08   0.03     0.04  -0.03   0.01
     3   6    -0.06   0.02  -0.02     0.08  -0.03  -0.07     0.02  -0.02  -0.02
     4   6    -0.05  -0.03   0.08     0.11   0.05   0.01     0.01   0.02  -0.01
     5   6     0.01  -0.05   0.04     0.06   0.08   0.07     0.03   0.02   0.02
     6   6     0.00  -0.02  -0.07    -0.03   0.04  -0.05     0.01   0.01  -0.02
     7   1     0.05   0.05   0.03    -0.04  -0.11  -0.02     0.00  -0.04  -0.02
     8   1    -0.02   0.05   0.11     0.15  -0.13   0.09     0.05  -0.03   0.04
     9   1     0.02  -0.10   0.05     0.07   0.13   0.14     0.04   0.01   0.05
    10   1     0.00  -0.02  -0.17    -0.13   0.06  -0.11    -0.02   0.02  -0.02
    11   6    -0.09  -0.06   0.11     0.11   0.07   0.01     0.01   0.04  -0.02
    12   6     0.00   0.03  -0.22    -0.10  -0.02  -0.15    -0.01  -0.02  -0.02
    13   6     0.03  -0.09   0.17     0.06   0.08   0.16     0.03   0.04   0.02
    14   1     0.10  -0.04   0.19     0.06   0.06   0.18     0.04   0.04   0.03
    15   6    -0.03  -0.04  -0.13    -0.01   0.03  -0.06     0.03   0.00   0.00
    16   1    -0.12  -0.01  -0.16     0.09   0.01  -0.11     0.07  -0.01   0.00
    17   8    -0.16   0.01  -0.02     0.11   0.00  -0.10     0.00   0.07  -0.04
    18  17     0.17   0.05  -0.01    -0.16  -0.06   0.07    -0.04  -0.01   0.01
    19   6    -0.08   0.04  -0.07    -0.04   0.08  -0.02    -0.04  -0.11   0.01
    20   6    -0.10   0.05  -0.16    -0.05   0.09  -0.09    -0.06  -0.11   0.01
    21   1    -0.22   0.11  -0.40    -0.14   0.16  -0.29    -0.09  -0.10  -0.03
    22   6     0.00  -0.03   0.06     0.00  -0.10  -0.03    -0.08   0.13   0.07
    23   1     0.07  -0.07   0.14    -0.10  -0.25   0.11     0.10   0.33  -0.09
    24   1     0.16  -0.03   0.02     0.13  -0.18  -0.19    -0.25   0.23   0.27
    25   1    -0.10  -0.06   0.18     0.01  -0.08  -0.05    -0.15   0.14   0.13
    26   6     0.02   0.03   0.01    -0.07   0.01   0.06     0.14   0.06  -0.10
    27   1     0.03   0.08   0.08    -0.05  -0.11   0.11     0.10   0.36  -0.09
    28   1     0.10  -0.02  -0.04    -0.03   0.00   0.04     0.15   0.05  -0.11
    29   1     0.05   0.04   0.03    -0.19   0.05   0.13     0.41  -0.03  -0.24
    30   6     0.04  -0.05   0.14     0.04  -0.03   0.06    -0.04  -0.12   0.07
    31   1     0.12  -0.08   0.12     0.14  -0.06  -0.04    -0.07  -0.12   0.03
    32   1     0.15  -0.13   0.36     0.09  -0.17   0.28    -0.01  -0.12   0.11
                     19                     20                     21
                      A                      A                      A
 Frequencies --    438.2378               470.6609               487.4171
 Red. masses --      2.9393                 2.4079                 5.9227
 Frc consts  --      0.3326                 0.3143                 0.8290
 IR Inten    --      3.9078                 7.0750                 0.5142
  Atom  AN      X      Y      Z        X      Y      Z        X      Y      Z
     1   6    -0.03   0.03  -0.04     0.00  -0.02  -0.02     0.13  -0.06   0.06
     2   6     0.03   0.01   0.18     0.03  -0.02   0.04     0.14  -0.07  -0.12
     3   6    -0.07   0.03  -0.13     0.00   0.00  -0.05     0.08  -0.09  -0.10
     4   6    -0.04  -0.02  -0.06     0.00   0.01  -0.05     0.04   0.15   0.14
     5   6     0.05  -0.04   0.19     0.03   0.00   0.05     0.05   0.21   0.01
     6   6    -0.04   0.00  -0.11     0.00  -0.01  -0.02     0.01   0.20  -0.07
     7   1    -0.01   0.04  -0.02     0.00  -0.03  -0.02     0.06  -0.20   0.21
     8   1     0.13  -0.01   0.46     0.06  -0.05   0.13     0.11  -0.02  -0.14
     9   1     0.14  -0.07   0.44     0.06   0.00   0.13     0.04   0.18  -0.07
    10   1    -0.04   0.00  -0.20    -0.02  -0.01  -0.01    -0.17   0.24  -0.16
    11   6    -0.02  -0.01  -0.07    -0.01   0.00  -0.02    -0.17   0.05   0.12
    12   6    -0.04   0.02  -0.12     0.00   0.01   0.03     0.03  -0.14  -0.06
    13   6     0.01  -0.01  -0.04    -0.08   0.01  -0.10    -0.16   0.01  -0.08
    14   1     0.00  -0.05   0.00    -0.06  -0.02  -0.03    -0.04   0.20  -0.19
    15   6     0.04  -0.01   0.12    -0.01  -0.02   0.07    -0.02  -0.25   0.06
    16   1     0.10  -0.04   0.39     0.02  -0.03   0.19     0.07  -0.28   0.19
    17   8     0.00   0.02   0.01     0.02  -0.02   0.11    -0.19  -0.02   0.04
    18  17     0.01   0.01   0.00     0.02   0.00  -0.01     0.00   0.00   0.00
    19   6    -0.02   0.01  -0.04     0.09  -0.04   0.15     0.00   0.01  -0.01
    20   6     0.06  -0.01   0.09    -0.06  -0.02  -0.17     0.04   0.00   0.04
    21   1     0.17  -0.05   0.27    -0.27   0.05  -0.50     0.12  -0.03   0.18
    22   6     0.01   0.00   0.00    -0.01  -0.01   0.00     0.02  -0.01   0.00
    23   1     0.03  -0.01   0.01    -0.11   0.00  -0.07     0.02  -0.01   0.01
    24   1     0.04   0.00   0.00    -0.17  -0.02   0.00     0.07   0.00   0.01
    25   1    -0.03  -0.01   0.04     0.14   0.03  -0.16     0.00  -0.03   0.03
    26   6     0.00  -0.02   0.00    -0.04   0.05  -0.02     0.00  -0.02   0.01
    27   1     0.02  -0.04   0.05    -0.07   0.02  -0.13     0.00  -0.03   0.01
    28   1     0.05  -0.08  -0.02    -0.16   0.36   0.05     0.00  -0.06   0.00
    29   1    -0.01   0.01   0.06    -0.09  -0.06  -0.26    -0.01   0.01   0.05
    30   6     0.00   0.01  -0.07     0.02   0.04   0.06     0.02   0.03  -0.03
    31   1     0.01   0.01  -0.02    -0.13   0.07  -0.05     0.00   0.03   0.03
    32   1    -0.09   0.04  -0.21     0.20   0.07   0.21    -0.04   0.08  -0.15
                     22                     23                     24
                      A                      A                      A
 Frequencies --    493.1371               530.5016               537.4393
 Red. masses --      4.0532                 3.1183                 4.4588
 Frc consts  --      0.5807                 0.5171                 0.7588
 IR Inten    --      2.9133                 3.0860                 6.2412
  Atom  AN      X      Y      Z        X      Y      Z        X      Y      Z
     1   6     0.04  -0.03   0.20     0.01  -0.10  -0.03    -0.02   0.19   0.04
     2   6    -0.10   0.02  -0.11    -0.01  -0.08   0.01     0.02   0.14  -0.01
     3   6    -0.05   0.04  -0.05     0.03   0.02  -0.02    -0.06  -0.05   0.00
     4   6     0.10  -0.08   0.27     0.02   0.03  -0.03    -0.05  -0.05   0.03
     5   6     0.00  -0.08  -0.01     0.08   0.00  -0.02    -0.14  -0.01   0.06
     6   6    -0.05  -0.08  -0.14     0.02  -0.08  -0.01    -0.03   0.15   0.00
     7   1     0.15   0.01   0.39     0.03  -0.09  -0.03    -0.05   0.15   0.09
     8   1    -0.15   0.01  -0.26     0.02  -0.12   0.03     0.00   0.22   0.01
     9   1    -0.08  -0.06  -0.21     0.08   0.01   0.01    -0.13  -0.05   0.05
    10   1    -0.11  -0.07  -0.43    -0.05  -0.06   0.04     0.10   0.12  -0.08
    11   6     0.08   0.00   0.05    -0.02   0.03   0.02     0.04  -0.04  -0.02
    12   6    -0.05   0.07  -0.09    -0.03   0.07   0.03     0.07  -0.14  -0.01
    13   6    -0.01   0.05  -0.12    -0.10   0.05   0.02     0.13  -0.07  -0.10
    14   1    -0.07   0.00  -0.14    -0.12   0.01   0.04     0.20  -0.02  -0.09
    15   6     0.05   0.08   0.12    -0.08   0.06   0.04     0.14  -0.14  -0.03
    16   1     0.12   0.05   0.37    -0.10   0.06   0.06     0.20  -0.16   0.01
    17   8     0.05   0.01  -0.09    -0.02   0.04   0.02     0.06  -0.05   0.01
    18  17     0.01   0.00   0.00     0.04   0.00  -0.01    -0.05   0.01   0.01
    19   6     0.01  -0.01   0.03     0.11   0.04  -0.05     0.08   0.02  -0.02
    20   6    -0.03  -0.01  -0.01    -0.13   0.09   0.10    -0.15   0.08   0.01
    21   1    -0.04   0.00  -0.03    -0.17   0.02   0.14    -0.27   0.04  -0.09
    22   6    -0.02   0.00   0.00     0.16   0.08  -0.07     0.12   0.06  -0.05
    23   1    -0.03   0.01  -0.02     0.20   0.13  -0.12     0.13   0.10  -0.09
    24   1    -0.07   0.00   0.00     0.11   0.10  -0.03     0.05   0.07  -0.02
    25   1     0.02   0.02  -0.04     0.16   0.09  -0.08     0.14   0.08  -0.08
    26   6     0.00   0.01   0.00     0.01  -0.06  -0.03     0.00  -0.04  -0.02
    27   1    -0.01   0.03  -0.01     0.02  -0.30  -0.13     0.01  -0.21  -0.11
    28   1    -0.02   0.02   0.02    -0.08  -0.09   0.02    -0.08  -0.02   0.03
    29   1     0.02   0.00  -0.02    -0.14   0.01   0.09    -0.10   0.00   0.04
    30   6    -0.02   0.00   0.00    -0.12  -0.10   0.06    -0.09  -0.07   0.09
    31   1    -0.06   0.01  -0.07     0.17  -0.19  -0.18     0.12  -0.14  -0.08
    32   1    -0.04   0.01  -0.02    -0.35  -0.41   0.16    -0.25  -0.29   0.18
                     25                     26                     27
                      A                      A                      A
 Frequencies --    586.5562               617.7336               661.8505
 Red. masses --      5.1573                 3.2884                 7.0061
 Frc consts  --      1.0454                 0.7393                 1.8082
 IR Inten    --      8.2738                 1.5604                42.9405
  Atom  AN      X      Y      Z        X      Y      Z        X      Y      Z
     1   6     0.09  -0.08  -0.06     0.03  -0.01   0.10     0.04   0.08   0.01
     2   6    -0.14  -0.04   0.06    -0.03   0.01  -0.10     0.24   0.01  -0.10
     3   6    -0.17  -0.07   0.02    -0.04   0.03  -0.16     0.01  -0.19  -0.02
     4   6    -0.17   0.06   0.02    -0.01   0.01  -0.07    -0.06  -0.15  -0.01
     5   6     0.04  -0.04  -0.01     0.05  -0.01   0.12    -0.26  -0.15   0.09
     6   6     0.09  -0.03  -0.03    -0.06   0.00  -0.15    -0.02   0.12   0.00
     7   1     0.18   0.00  -0.05     0.17  -0.05   0.50    -0.11  -0.11   0.09
     8   1    -0.16   0.13   0.17     0.07  -0.04   0.17     0.23   0.07  -0.08
     9   1     0.11  -0.24   0.03     0.15  -0.02   0.41    -0.22  -0.28   0.11
    10   1     0.06  -0.03   0.05    -0.05   0.00  -0.13     0.21   0.06  -0.08
    11   6    -0.07   0.19   0.09     0.02  -0.02   0.04     0.09   0.09  -0.03
    12   6     0.01  -0.11   0.01     0.09  -0.02   0.28    -0.18  -0.10   0.07
    13   6     0.01   0.28   0.03     0.03  -0.03   0.04    -0.21   0.17   0.13
    14   1     0.16   0.49  -0.05    -0.01   0.00  -0.05    -0.28   0.04   0.24
    15   6     0.13   0.03  -0.04    -0.03   0.04  -0.11    -0.19  -0.01   0.03
    16   1     0.34  -0.02  -0.14    -0.16   0.09  -0.47    -0.06  -0.04  -0.11
    17   8     0.04  -0.24  -0.06    -0.02   0.01  -0.02     0.14   0.07  -0.06
    18  17     0.02   0.03   0.00    -0.01   0.00  -0.01     0.12   0.03  -0.03
    19   6     0.01   0.00   0.01    -0.01   0.00  -0.01    -0.01   0.00   0.00
[...]
 0,-0.00036375,-0.00000363,-0.00001298,0.00000643,0.00000668,0.00000505
 ,0.00000888,0.00020550,-0.00015015,0.00029342,0.00001498,-0.00000623,-
 0.00000167,0.00113807,0.00058604,-0.00033709,-0.00005117,0.00037934,-0
 .00001394,-0.00016083,-0.00056152,0.00032209,-0.00000911,0.00001020,-0
 .00005699,0.00030268,-0.00020026,-0.00013696,0.00001798,0.00001307,-0.
 00001298,-0.00100186,-0.00008983,-0.00050319,0.00010266,0.00002015,-0.
 00002999,-0.00808362,-0.00186185,0.00151544,0.00029800,-0.00034031,0.0
 0054253,-0.00000616,0.00007808,-0.00007923,0.00043974,0.00213003,0.000
 72904,-0.00038558,-0.00029942,0.00020617,0.00004541,-0.00002877,-0.000
 07437,0.00024484,-0.00003868,-0.00021110,-0.30771741,-0.03965163,0.063
 87805,0.32897561,-0.00018795,-0.00019098,0.00006618,-0.00011163,0.0002
 4161,0.00010897,0.00003358,-0.00021266,-0.00007510,-0.00002053,0.00000
 578,-0.00009388,-0.00007262,0.00016576,0.00007022,0.00025978,-0.000191
 98,-0.00025235,-0.00001602,-0.00000289,0.00001320,-0.00000107,0.000001
 78,-0.00000721,-0.00019793,-0.00018410,0.00016984,-0.00000072,0.000007
 05,-0.00000980,-0.00080803,-0.00011467,-0.00018793,-0.00006577,0.00032
 335,0.00008740,-0.00067270,0.00019513,-0.00049606,0.00005382,-0.000035
 62,0.00009754,0.00024838,-0.00013943,-0.00016909,0.00000523,0.00000128
 ,-0.00001297,0.00108968,-0.00020459,0.00065231,0.00000412,-0.00002489,
 -0.00000344,0.02375653,0.00867751,-0.00313910,-0.00176680,-0.00043822,
 0.00116150,-0.00012890,0.00022931,-0.00018989,0.00029251,-0.00300059,-
 0.00268856,0.00084461,0.00034935,-0.00079766,0.00010098,0.00008681,-0.
 00023375,-0.00028829,-0.00016416,0.00019922,-0.04062396,-0.05438591,0.
 00915243,0.04408861,0.05652452,-0.00002276,-0.00005293,-0.00004917,0.0
 0004863,0.00003112,-0.00005407,-0.00025677,-0.00022512,0.00019579,-0.0
 0030668,-0.00016091,-0.00007510,-0.00014753,0.00047676,-0.00006997,0.0
 0006884,-0.00000015,0.00010791,0.00003182,-0.00001736,-0.00000833,0.00
 002969,-0.00000956,-0.00000085,0.00013826,0.00026158,-0.00015846,0.000
 01436,-0.00004050,-0.00001615,-0.00088217,-0.00116848,-0.00146301,-0.0
 0022308,0.00011107,0.00009290,-0.00021094,0.00028476,-0.00007748,0.000
 03189,0.00003553,0.00002824,0.00010256,-0.00000846,-0.00003707,0.00002
 217,0.00002206,-0.00000478,0.00087342,0.00034960,0.00118220,0.00020185
 ,0.00008597,-0.00005835,0.01938066,0.00478635,-0.00742939,-0.00094809,
 0.00044231,0.00022651,-0.00001928,0.00007588,-0.00015398,0.00060638,-0
 .00399311,-0.00184854,0.00115963,0.00002392,-0.00035024,-0.00027986,-0
 .00008850,0.00026981,0.00005790,0.00013150,0.00025960,0.06077778,0.009
 11250,-0.05572444,-0.06765798,-0.00726844,0.05948123,-0.00021723,-0.00
 017644,0.00009672,-0.00009776,0.00023485,0.00010720,0.00028760,0.00009
 113,-0.00017659,-0.00020843,0.00011373,-0.00001217,-0.00035973,0.00023
 676,-0.00031539,0.00026887,-0.00020471,-0.00024055,-0.00001304,-0.0000
 0261,0.00000645,-0.00000646,0.00000881,0.00000619,-0.00003540,-0.00008
 582,0.00015023,0.00000166,0.00001376,0.00000640,0.00027832,0.00065578,
 0.00071802,0.00011610,0.00007088,-0.00008327,0.00037798,-0.00022142,0.
 00023029,-0.00001051,-0.00000330,-0.00007282,-0.00010335,-0.00018775,0
 .00004181,0.00001042,0.00000943,-0.00000522,0.00061092,0.00014496,0.00
 070007,0.00009158,0.00000605,-0.00003657,0.00542902,-0.00164686,0.0089
 9952,0.00067295,0.00084299,-0.00003231,-0.00026040,-0.00003034,-0.0004
 5404,-0.00056932,-0.00052632,-0.00060451,0.00007700,0.00001500,-0.0002
 6473,0.00009148,0.00021486,0.00005730,-0.00026368,0.00022985,0.0002305
 3,-0.11814023,0.00196211,-0.12009453,-0.01250198,0.00047439,-0.0252552
 5,0.12346559,-0.00015597,-0.00010093,-0.00000464,0.00001442,0.00022092
 ,0.00002418,-0.00020296,-0.00054726,-0.00005287,0.00026327,-0.00036813
 ,0.00010731,-0.00005192,0.00000901,0.00027364,0.00024082,0.00007745,-0
 .00002475,0.00000520,0.00000967,-0.00001050,-0.00000625,-0.00000163,0.
 00001060,0.00006828,0.00011883,-0.00020114,0.00000909,0.00000624,0.000
 02390,0.00043555,-0.00018486,0.00025184,-0.00007915,0.00058074,0.00013
 158,-0.00111195,0.00021214,-0.00043451,0.00005764,-0.00003330,0.000145
 12,0.00064574,0.00008942,-0.00026771,-0.00002670,-0.00002368,-0.000007
 47,0.00014741,0.00003995,-0.00163362,-0.00023148,-0.00007564,0.0000710
 0,-0.01285873,-0.00163685,-0.01901056,0.00017136,-0.00145648,0.0002145
 4,0.00048912,-0.00008263,0.00084860,-0.00020732,0.00027688,0.00054998,
 -0.00001769,-0.00009283,0.00026650,-0.00004540,0.00007607,0.00010611,0
 .00013658,0.00009327,-0.00003829,0.00047710,-0.04298377,-0.00037556,-0
 .00224883,-0.00105900,-0.00402289,-0.00211492,0.04439224,0.00005527,0.
 00001854,-0.00000640,-0.00001405,-0.00000872,-0.00001697,-0.00006110,-
 0.00009032,0.00003235,0.00000487,0.00004710,0.00012924,-0.00000688,0.0
 0007287,-0.00005965,-0.00005340,0.00002761,0.00001212,-0.00001092,0.00
 000878,0.00000641,-0.00000491,-0.00000403,-0.00000539,-0.00000988,-0.0
 0008801,0.00006470,-0.00000537,0.00001029,-0.00000099,0.00127827,0.000
 06825,-0.00044193,0.00007332,-0.00003193,-0.00001512,-0.00015375,-0.00
 018281,0.00024967,0.00000496,0.00000371,-0.00000246,0.00005810,0.00017
 925,0.00001269,-0.00003486,-0.00002441,0.00000612,-0.00086749,-0.00105
 159,-0.00115413,-0.00022527,-0.00006007,0.00007393,-0.00941145,-0.0015
 2211,-0.01615791,0.00186071,0.00108187,0.00052002,0.00026390,-0.000156
 75,0.00040878,-0.00004319,0.00002482,0.00068137,0.00026462,-0.00014987
 ,0.00034443,-0.00014992,-0.00019642,0.00018420,0.00049876,0.00001950,-
 0.00012768,-0.12271190,0.00226075,-0.23976890,0.00456715,0.00002235,0.
 00755307,0.13171771,0.00123476,0.25766465,0.00019619,0.00015167,-0.000
 07691,0.00014793,-0.00022476,-0.00007906,0.00003083,0.00038112,0.00002
 570,-0.00012670,0.00008809,-0.00005042,-0.00035043,-0.00045121,0.00012
 515,-0.00015914,0.00025423,0.00023709,0.00003351,0.00000145,-0.0000217
 1,0.00000684,-0.00000114,-0.00000457,-0.00041363,0.00044846,-0.0009599
 9,-0.00000327,-0.00001538,-0.00000368,0.00039468,-0.00016492,-0.000141
 62,0.00003341,-0.00048054,-0.00008706,0.00070039,-0.00011821,0.0005115
 5,-0.00001732,0.00002300,-0.00009271,-0.00043359,0.00008857,0.00019978
 ,0.00000894,0.00000994,0.00001374,-0.00087721,0.00020629,-0.00021130,0
 .00009427,0.00006466,-0.00002739,0.00079385,0.00786406,-0.00716162,0.0
 0088396,0.00234608,0.00191138,0.00044989,0.00038633,0.00031787,0.00004
 124,0.00062928,-0.00027354,0.00002482,-0.00013817,-0.00014298,0.000014
 43,0.00024853,0.00038808,-0.00009799,0.00005216,-0.00011514,-0.0509718
 1,-0.02745348,0.01641992,-0.00042959,-0.02594658,0.01234701,0.00161066
 ,0.01516509,-0.00601856,0.04953564,-0.00012590,-0.00002385,-0.00004708
 ,0.00006881,0.00010765,-0.00001620,-0.00008013,-0.00035752,0.00001834,
 0.00012112,-0.00036723,-0.00040634,0.00028104,-0.00022654,0.00060448,0
 .00018327,0.00004489,-0.00002823,0.00001429,0.00000183,-0.00000838,-0.
 00000149,-0.00000174,0.00001719,0.00030785,0.00024766,0.00009769,0.000
 01006,-0.00000534,0.00003512,-0.00169740,-0.00089740,0.00032520,-0.000
 02647,0.00032313,0.00010500,-0.00041181,0.00078561,-0.00068429,0.00002
 609,-0.00001157,0.00012314,0.00026782,0.00006453,-0.00013995,-0.000007
 30,-0.00000616,0.00000088,0.00183370,0.00106269,0.00097970,-0.00010683
 ,-0.00003443,0.00002062,-0.00346829,-0.01996397,0.00978960,0.00166168,
 -0.00267717,-0.00237729,-0.00059597,-0.00090433,-0.00044278,-0.0012311
 8,0.00105675,0.00088156,-0.00032775,0.00032339,-0.00012870,0.00058429,
 0.00039208,-0.00055020,-0.00000952,-0.00006417,-0.00009190,-0.02724755
 ,-0.27039096,0.11011248,0.00086574,-0.00194316,0.00026739,0.00036703,0
 .00217820,-0.00155635,0.02700245,0.29083226,-0.00002819,-0.00011732,0.
 00004969,-0.00004042,0.00010270,0.00000200,-0.00001930,-0.00006656,0.0
 0000629,0.00015313,-0.00007840,0.00009526,-0.00060387,0.00019494,-0.00
 020699,0.00015173,0.00002815,-0.00008829,0.00001151,0.00000077,0.00000
 450,0.00000371,-0.00000008,-0.00000994,-0.00066855,0.00025978,-0.00054
 564,0.00000044,-0.00000921,-0.00001923,-0.00049886,-0.00026068,0.00003
 424,-0.00000790,0.00007884,0.00001151,-0.00000644,0.00015454,-0.000220
 87,0.00001229,-0.00000647,0.00000628,0.00011177,-0.00000497,0.00000719
 ,0.00000346,0.00000397,-0.00000914,0.00075515,0.00005757,0.00059233,0.
 00003198,0.00001510,-0.00000188,-0.00298779,-0.02030785,0.00751192,0.0
 0203679,-0.00245028,-0.00193773,-0.00053149,-0.00086230,-0.00023391,-0
 .00046346,-0.00042345,0.00059397,-0.00018056,0.00002567,0.00008660,0.0
 0009499,0.00007922,-0.00033103,-0.00000495,0.00011486,0.00005891,0.015
 45328,0.11442531,-0.09796534,-0.00079344,0.00398605,-0.00292338,0.0042
 3283,0.02227648,-0.00965196,-0.01646330,-0.11727702,0.10478207,0.00378
 288,0.00370295,-0.00094948,0.00160614,-0.00595500,-0.00114722,0.003070
 74,0.01224195,0.00063175,-0.00796731,0.00756386,0.00464672,0.00128928,
 -0.00522426,-0.00121930,-0.00451421,0.00071952,0.00175524,0.00008837,-
 0.00004221,-0.00005185,0.00009579,-0.00005068,-0.00001880,-0.00005643,
 -0.00013991,0.00002249,-0.00003510,-0.00014771,0.00001243,0.04412988,0
 .04009175,-0.02083443,0.00453735,-0.01765682,-0.00637309,0.03222891,-0
 .03040446,0.05137908,-0.00302151,0.00172752,-0.00628674,-0.03192157,0.
 00294636,0.00090200,0.00052448,0.00030777,0.00043629,-0.05994786,-0.00
 724992,-0.01549927,0.00141484,0.00066171,0.00004500,0.00232812,-0.0747
 6443,0.03523713,-0.33077115,-0.02880291,0.11816066,-0.01423649,-0.0072
 1575,0.00294466,0.00496878,0.00102964,0.00363943,0.00031355,0.00009435
 ,-0.00058940,-0.00005515,0.00000964,-0.00147372,0.00117321,0.00112064,
 -0.00164278,-0.00157133,0.00338176,-0.00076260,-0.00105885,0.00092899,
 0.00061408,-0.00073094,0.00116453,-0.00090446,-0.00181535,0.00184546,0
 .00044964,0.56262080,0.00003928,-0.00011858,0.00001694,0.00000963,0.00
 007342,-0.00001625,0.00013503,-0.00067751,0.00007118,0.00058811,-0.000
 17195,-0.00083144,-0.00020741,0.00020717,0.00017742,0.00032183,0.00016
 550,-0.00000506,-0.00000189,0.00001485,-0.00000254,0.00002229,-0.00002
 104,-0.00001016,-0.00000943,0.00017624,-0.00000544,-0.00001308,-0.0000
 0970,-0.00004432,0.00070209,-0.00013495,0.00551838,0.00012041,-0.00011
 805,-0.00003634,0.00124526,-0.01529799,-0.00123222,-0.00221622,0.00072
 693,-0.00414767,-0.00020067,0.00042048,-0.00086358,-0.00009434,-0.0000
 9057,-0.00008487,-0.00369405,-0.00354169,0.00128029,-0.00035766,-0.000
 09863,0.00013703,-0.03093065,-0.01373258,0.01621258,-0.08572458,-0.127
 78538,0.02068151,0.01857153,0.00912724,-0.00827753,0.00049813,-0.00467
 734,0.00020346,0.00002110,0.00025160,0.00014179,-0.00111837,-0.0000933
 7,0.00032530,-0.00022178,0.00003958,-0.00008418,0.00018675,-0.00078636
 ,0.00141492,-0.00147089,-0.00144141,0.00023699,-0.00030192,0.00032669,
 0.00012474,-0.00048381,0.00028396,0.00002406,0.06841154,0.66279658,0.0
 0278145,0.00261361,-0.00071213,0.00114139,-0.00444203,-0.00094847,0.00
 244127,0.00927399,0.00095823,-0.00443763,0.00504521,0.00206123,0.00105
 490,-0.00365672,-0.00068914,-0.00325633,0.00056584,0.00118164,0.000073
 26,-0.00004219,-0.00003915,0.00007038,-0.00002010,-0.00002253,-0.00006
 095,-0.00003390,0.00000931,-0.00002644,-0.00011898,0.00002348,0.018721
 97,0.01885238,-0.01481901,0.00488810,-0.01303126,-0.00246128,0.0312780
 4,-0.01588593,0.01546781,-0.00648241,0.00263863,-0.01132130,-0.0181939
 1,0.00089423,0.00376006,0.00030125,0.00020270,0.00026872,-0.02216655,-
 0.00314252,-0.00202325,0.00133017,0.00078597,-0.00053136,0.00639203,-0
 .00970382,0.01065129,0.14605971,0.03436023,-0.10853293,0.01459379,0.00
 595969,-0.00354507,0.00334949,-0.00047123,0.00429714,-0.00031779,0.000
 08870,0.00023227,-0.00046121,-0.00008342,0.00025404,0.00086867,0.00080
 378,-0.00058125,-0.00316418,0.00198894,-0.00270600,0.00042193,-0.00006
 009,0.00040407,0.00065145,-0.00034579,-0.00053441,-0.00020875,0.000539
 67,0.00031646,-0.28755316,0.06321665,0.27401364,0.00005187,0.00012158,
 -0.00000566,0.00004851,-0.00012297,-0.00000168,-0.00004307,0.00026807,
 -0.00011678,-0.00028601,0.00025645,0.00007959,0.00006812,-0.00023114,-
 0.00003015,-0.00019427,-0.00001659,0.00005369,0.00000093,-0.00000203,-
 0.00000211,-0.00001199,0.00000862,0.00000097,0.00000320,-0.00002711,0.
 00000330,-0.00000215,0.00000741,0.00000529,-0.00042493,-0.00165568,0.0
 0071680,-0.00014121,0.00010382,0.00019905,-0.00174270,0.00450960,-0.00
 317030,0.00043017,-0.00008630,0.00044690,0.00045878,0.00058053,-0.0004
 1609,-0.00012682,-0.00016266,-0.00001022,0.00118704,0.00073165,-0.0002
 1883,0.00012650,0.00003842,-0.00005374,-0.00433390,0.00017900,0.004242
 46,-0.00098003,-0.02990395,0.00187547,-0.00025698,0.00083944,-0.002482
 94,-0.00023299,-0.00102425,-0.00043578,0.00004648,0.00008894,-0.000019
 90,-0.00025043,-0.00012995,0.00010073,-0.00022162,-0.00011574,0.000129
 78,-0.00024863,0.00065024,0.00020379,0.00029373,-0.00003403,-0.0001501
 5,0.00007963,-0.00002851,-0.00004027,0.00017807,-0.00008473,-0.0000548
 5,-0.06375112,-0.06488049,0.01050266,0.06483867,0.00010727,0.00014334,
 -0.00002264,0.00008847,-0.00018269,-0.00004803,0.00000789,0.00041480,0
 .00010991,-0.00010188,0.00020098,0.00013667,0.00000225,-0.00010357,0.0
 0003436,-0.00013572,0.00005306,0.00003848,0.00000070,0.00000407,-0.000
 00108,0.00000080,-0.00000579,0.00000153,0.00000287,0.00001078,-0.00000
 327,-0.00000318,0.00000181,-0.00000490,-0.00046694,-0.00013625,-0.0002
 8477,0.00032902,-0.00062340,-0.00027808,0.00074257,-0.00014316,0.00022
 405,-0.00019665,0.00026862,-0.00006921,-0.00075985,0.00051798,-0.00007
 706,0.00014579,-0.00006358,0.00016359,0.00036478,0.00014302,-0.0001728
 6,-0.00007960,-0.00000767,0.00002593,-0.00127988,0.00099131,-0.0008453
 4,0.00241580,-0.00106847,-0.00158791,0.00031241,0.00053186,0.00044119,
 0.00035000,-0.00034265,0.00024154,-0.00001398,0.00001515,-0.00000628,-
 0.00014474,-0.00001386,0.00004772,0.00002689,0.00000810,-0.00004635,0.
 00020977,-0.00002713,0.00014706,-0.00022076,0.00012527,0.00010073,-0.0
 0007127,-0.00000374,0.00001189,-0.00009484,-0.00003178,-0.00000700,-0.
 07084738,-0.33821520,0.00844774,0.07504293,0.34762917,-0.00039491,-0.0
 0029192,0.00010264,-0.00015681,0.00050404,0.00013110,-0.00032077,-0.00
 087299,-0.00006674,0.00048543,-0.00073556,0.00013598,-0.00004222,0.000
 44804,0.00007909,0.00032283,-0.00017916,-0.00015785,-0.00000525,-0.000
 00611,0.00000273,-0.00002027,0.00001656,0.00000280,0.00000962,-0.00005
 521,0.00000078,0.00000411,0.00001683,0.00000309,-0.00243485,-0.0036219
 9,0.00048139,-0.00055822,0.00148120,0.00048608,-0.00466572,0.00895253,
 -0.00714911,0.00050970,0.00033063,0.00065591,0.00250666,-0.00001636,-0
 .00072187,-0.00018616,-0.00010608,-0.00001470,0.00420545,0.00150797,0.
 00037548,0.00009165,-0.00000927,-0.00005235,0.00266075,0.00223828,0.00
 275352,-0.00093206,0.00368832,0.00429242,-0.00234461,0.00108563,-0.003
 11436,-0.00057801,0.00051460,-0.00053152,-0.00001399,-0.00000687,-0.00
 000272,0.00011914,-0.00005182,-0.00005283,-0.00010387,-0.00011141,0.00
 020904,0.00020302,-0.00018832,0.00014900,-0.00019809,0.00028218,-0.000
 02084,0.00006753,-0.00001411,-0.00004101,-0.00027487,-0.00004445,0.000
 02632,0.01646565,0.00902250,-0.03839010,-0.01029375,-0.00907467,0.0358
 4227,-0.00008906,-0.00019771,0.00000327,-0.00013282,0.00024251,0.00005
 724,0.00003878,-0.00014661,0.00019475,0.00043177,-0.00033466,-0.000444
 50,-0.00004783,0.00021371,0.00018325,0.00020481,0.00003603,-0.00008011
 ,-0.00000844,-0.00000107,-0.00000023,0.00000624,0.00000028,-0.00000628
 ,0.00000299,-0.00001605,-0.00000394,-0.00000520,0.00000156,-0.00000503
 ,-0.00157472,-0.00191085,-0.00019453,0.00014564,0.00022395,0.00121802,
 -0.00152523,-0.00072282,-0.00666551,-0.00030113,0.00006080,-0.00040734
 ,0.00218787,-0.00029161,-0.00115259,-0.00003299,-0.00003396,-0.0000024
 0,0.00194622,0.00062926,0.00034149,-0.00014678,0.00001071,-0.00003274,
 -0.00074596,0.00369644,-0.00340703,-0.01184155,0.01744160,0.01598566,-
 0.00202606,-0.00300296,0.00434103,-0.00017612,-0.00020019,-0.00029783,
 0.00012347,-0.00006001,-0.00008934,-0.00001792,-0.00005506,0.00006692,
 -0.00008408,-0.00009185,0.00001783,-0.00013888,-0.00003701,-0.00015053
 ,0.00081122,-0.00123768,-0.00014636,0.00004868,-0.00010339,0.00007998,
 0.00051649,-0.00001835,-0.00014931,-0.14271876,0.10105423,0.09940738,0
 .00543714,-0.00573354,-0.00412711,0.14971219,0.00014555,0.00024328,-0.
 00002548,0.00012874,-0.00030035,-0.00003708,0.00003809,0.00056020,-0.0
 0024573,-0.00057498,0.00053871,0.00018949,0.00004907,-0.00035862,-0.00
 015611,-0.00027402,-0.00004006,0.00010395,0.00000206,-0.00000003,-0.00
 000322,-0.00000598,0.00000070,0.00000262,-0.00000219,-0.00000993,0.000
 01775,0.00000125,0.00000568,0.00000962,0.00167502,0.00121520,0.0015087
 7,-0.00008856,-0.00040168,-0.00054296,0.00134138,-0.00026098,0.0041297
 8,0.00002106,0.00004749,0.00022200,-0.00146695,-0.00004354,0.00055924,
 0.00003893,0.00001325,-0.00002168,-0.00136514,-0.00047894,-0.00049578,
 0.00008262,0.00000771,-0.00001390,0.00091481,-0.00117688,0.00138306,-0
 .00255433,0.01081794,0.00470392,-0.00229415,0.00038904,-0.00017558,-0.
 00005625,0.00007278,-0.00029191,0.00008046,0.00003511,-0.00006742,0.00
 007120,0.00003303,-0.00006377,-0.00002336,-0.00000993,-0.00003355,-0.0
 0068769,-0.00099371,-0.00021998,-0.00145474,-0.00320024,0.00022040,-0.
 00011868,-0.00005698,-0.00009366,0.00016157,0.00020268,0.00004357,0.10
 055150,-0.16759793,-0.10523998,0.01507941,-0.01009036,-0.01470304,-0.1
 0941571,0.17083738,-0.00036414,-0.00041365,0.00009941,-0.00020574,0.00
 057508,0.00009802,-0.00038415,-0.00095625,-0.00003875,0.00075673,-0.00
 073549,-0.00042809,-0.00018062,0.00068372,0.00016144,0.00054410,-0.000
 06320,-0.00021605,-0.00000417,-0.00000509,0.00000424,0.00000598,-0.000
 00085,-0.00000318,-0.00000023,0.00001379,-0.00000666,0.00000009,0.0000
 0048,-0.00001792,-0.00411227,-0.00342119,-0.00068566,-0.00059196,0.001
 46276,0.00107421,-0.00274526,0.00015408,-0.01077120,-0.00037678,0.0000
 8804,-0.00044965,0.00351236,-0.00019598,-0.00065653,-0.00005051,-0.000
 02679,-0.00001456,0.00393120,0.00112033,0.00099048,-0.00012223,-0.0000
 1626,-0.00003952,-0.00199307,0.00355446,-0.00476125,-0.00228329,-0.008
 12989,0.00238503,0.00306762,-0.00067138,0.00547226,-0.00019611,-0.0001
 3848,-0.00014463,-0.00001691,0.00002181,0.00006430,-0.00005505,0.00005
 081,0.00013017,-0.00004309,-0.00009405,0.00003069,0.00092470,-0.000791
 69,0.00005821,-0.00093550,-0.00038407,0.00072227,-0.00037228,-0.000091
 74,0.00004114,-0.00008209,-0.00011890,-0.00004022,0.10796407,-0.103164
 14,-0.12604200,-0.00105727,0.00235708,0.00458634,-0.10453412,0.1093366
 3,0.12839765\\-0.00000213,-0.00000227,-0.00000254,-0.00000153,-0.00000
 425,0.00000505,-0.00000121,-0.00000394,0.00000724,-0.00000329,-0.00000
 463,0.00000059,-0.00000485,-0.00000428,-0.00000733,-0.00000473,-0.0000
 0351,-0.00000822,-0.00000277,-0.00000280,-0.00000371,0.00000100,-0.000
 00362,0.00001033,-0.00000651,-0.00000419,-0.00001287,-0.00000625,-0.00
 000300,-0.00001493,-0.00000241,-0.00000546,0.00000203,0.00000219,-0.00
 000388,0.00001305,-0.00000191,-0.00000556,0.00001003,-0.00000102,-0.00
 000764,0.00001085,0.00000014,-0.00000538,0.00001621,0.00000247,-0.0000
 0635,0.00002239,-0.00000454,-0.00000461,-0.00000385,0.00000251,-0.0000
 0598,0.00002458,0.00000141,0.00000576,-0.00000625,0.00000248,0.0000051
 7,0.00000221,0.00000350,0.00000347,0.00000338,-0.00000099,0.00000276,-
 0.00001250,-0.00000213,0.00000075,-0.00000922,-0.00000485,0.00000032,-
 0.00001625,0.00000092,0.00000806,-0.00001554,0.00000305,0.00000815,-0.
 00001005,0.00000374,0.00000839,-0.00000483,0.00000645,0.00001389,-0.00
 001174,-0.00000005,0.00000635,-0.00001511,0.00000660,0.00000488,0.0000
 0706,0.00000769,0.00000588,0.00001381,0.00000703,0.00000754,0.00000612
 \\\@


 "TIGER, TIGER BURNING BRIGHT
 IN THE FOREST OF THE NIGHT.
 WHAT IMMORTAL HAND OR EYE
 CAN FRAME THY FEARFUL SYMMETRYE?"
                     - WILLIAM BLAKE
 Job cpu time:       0 days  1 hours 37 minutes 37.9 seconds.
 File lengths (MBytes):  RWF=    424 Int=      0 D2E=      0 Chk=     14 Scr=      1
 Normal termination of Gaussian 09 at Wed Sep 16 18:35:40 2020.
