 Entering Gaussian System, Link 0=g09
 Input=m062x_pr_claisen_PM6_toluene_water_gd3.com
 Output=m062x_pr_claisen_PM6_toluene_water_gd3.log
 Initial command:
 /apps/applications/gaussian/G09.D01/2/default/g09/l1.exe "/local/730610.1.40core-192G.q/Gau-419266.inp" -scrdir="/local/730610.1.40core-192G.q/"
 Entering Link 1 = /apps/applications/gaussian/G09.D01/2/default/g09/l1.exe PID=    419267.
  
 Copyright (c) 1988,1990,1992,1993,1995,1998,2003,2009,2013,
            Gaussian, Inc.  All Rights Reserved.
  
 This is part of the Gaussian(R) 09 program.  It is based on
 the Gaussian(R) 03 system (copyright 2003, Gaussian, Inc.),
 the Gaussian(R) 98 system (copyright 1998, Gaussian, Inc.),
 the Gaussian(R) 94 system (copyright 1995, Gaussian, Inc.),
 the Gaussian 92(TM) system (copyright 1992, Gaussian, Inc.),
 the Gaussian 90(TM) system (copyright 1990, Gaussian, Inc.),
 the Gaussian 88(TM) system (copyright 1988, Gaussian, Inc.),
 the Gaussian 86(TM) system (copyright 1986, Carnegie Mellon
 University), and the Gaussian 82(TM) system (copyright 1983,
 Carnegie Mellon University). Gaussian is a federally registered
 trademark of Gaussian, Inc.
  
 This software contains proprietary and confidential information,
 including trade secrets, belonging to Gaussian, Inc.
  
 This software is provided under written license and may be
 used, copied, transmitted, or stored only in accord with that
 written license.
  
 The following legend is applicable only to US Government
 contracts under FAR:
  
                    RESTRICTED RIGHTS LEGEND
  
 Use, reproduction and disclosure by the US Government is
 subject to restrictions as set forth in subparagraphs (a)
 and (c) of the Commercial Computer Software - Restricted
 Rights clause in FAR 52.227-19.
  
 Gaussian, Inc.
 340 Quinnipiac St., Bldg. 40, Wallingford CT 06492
  
  
 ---------------------------------------------------------------
 Warning -- This program may not be used in any manner that
 competes with the business of Gaussian, Inc. or will provide
 assistance to any competitor of Gaussian, Inc.  The licensee
 of this program is prohibited from giving any competitor of
 Gaussian, Inc. access to this program.  By using this program,
 the user acknowledges that Gaussian, Inc. is engaged in the
 business of creating and licensing software in the field of
 computational chemistry and represents and warrants to the
 licensee that it is not a competitor of Gaussian, Inc. and that
 it will not use this program in any manner prohibited above.
 ---------------------------------------------------------------
  

 Cite this work as:
 Gaussian 09, Revision D.01,
 M. J. Frisch, G. W. Trucks, H. B. Schlegel, G. E. Scuseria, 
 M. A. Robb, J. R. Cheeseman, G. Scalmani, V. Barone, B. Mennucci, 
 G. A. Petersson, H. Nakatsuji, M. Caricato, X. Li, H. P. Hratchian, 
 A. F. Izmaylov, J. Bloino, G. Zheng, J. L. Sonnenberg, M. Hada, 
 M. Ehara, K. Toyota, R. Fukuda, J. Hasegawa, M. Ishida, T. Nakajima, 
 Y. Honda, O. Kitao, H. Nakai, T. Vreven, J. A. Montgomery, Jr., 
 J. E. Peralta, F. Ogliaro, M. Bearpark, J. J. Heyd, E. Brothers, 
 K. N. Kudin, V. N. Staroverov, T. Keith, R. Kobayashi, J. Normand, 
 K. Raghavachari, A. Rendell, J. C. Burant, S. S. Iyengar, J. Tomasi, 
 M. Cossi, N. Rega, J. M. Millam, M. Klene, J. E. Knox, J. B. Cross, 
 V. Bakken, C. Adamo, J. Jaramillo, R. Gomperts, R. E. Stratmann, 
 O. Yazyev, A. J. Austin, R. Cammi, C. Pomelli, J. W. Ochterski, 
 R. L. Martin, K. Morokuma, V. G. Zakrzewski, G. A. Voth, 
 P. Salvador, J. J. Dannenberg, S. Dapprich, A. D. Daniels, 
 O. Farkas, J. B. Foresman, J. V. Ortiz, J. Cioslowski, 
 and D. J. Fox, Gaussian, Inc., Wallingford CT, 2013.
 
 ******************************************
 Gaussian 09:  ES64L-G09RevD.01 24-Apr-2013
                 9-Sep-2020 
 ******************************************
 %nprocshared=4
 Will use up to    4 processors via shared memory.
 %chk=m062x_pr_claisen_PM6_toluene_water_gd3.chk
 ----------------------------------------------------------------------
 # opt freq scrf=(cpcm,solvent=water) geom=connectivity def2svp m062x e
 mpiricaldispersion=gd3
 ----------------------------------------------------------------------
 1/14=-1,18=20,19=15,26=3,38=1,57=2/1,3;
 2/9=110,12=2,17=6,18=5,40=1/2;
 3/5=43,7=101,11=2,16=1,25=1,30=1,70=2101,71=1,72=1,74=-55,124=31/1,2,3;
 4//1;
 5/5=2,38=5,53=1/2;
 6/7=2,8=2,9=2,10=2,28=1/1;
 7//1,2,3,16;
 1/14=-1,18=20,19=15,26=3/3(2);
 2/9=110/2;
 99//99;
 2/9=110/2;
 3/5=43,7=101,11=2,16=1,25=1,30=1,70=2105,71=1,72=1,74=-55,124=31/1,2,3;
 4/5=5,16=3,69=1/1;
 5/5=2,38=5,53=1/2;
 7//1,2,3,16;
 1/14=-1,18=20,19=15,26=3/3(-5);
 2/9=110/2;
 6/7=2,8=2,9=2,10=2,19=2,28=1/1;
 99/9=1/99;
 -------------------
 Title Card Required
 -------------------
 Symbolic Z-matrix:
 Charge =  0 Multiplicity = 1
 C                     4.37247  -0.33362   0.05866 
 C                     3.40175   0.66323  -0.00595 
 C                     2.04349   0.32863  -0.05915 
 C                     1.67935  -1.03524  -0.04844 
 C                     2.66276  -2.02612   0.01855 
 C                     4.00891  -1.68212   0.07282 
 H                     5.42594  -0.05275   0.09887 
 H                     3.69738   1.71162  -0.01641 
 H                     2.34141  -3.06849   0.02615 
 H                     4.77371  -2.4576    0.12622 
 C                     0.25091  -1.45304  -0.1058 
 C                     0.97498   1.34109  -0.12658 
 C                    -0.82343  -0.38021  -0.15778 
 C                    -0.32437   1.02941  -0.17943 
 H                    -1.07038   1.82535  -0.23301 
 O                    -0.06688  -2.62414  -0.10285 
 Cl                    1.45593   3.01966  -0.13902 
 C                    -4.12174  -0.02009   0.06111 
 C                    -3.07605   0.2464    0.85873 
 H                    -3.10227   1.16947   1.44695 
 C                    -5.30373   0.90688  -0.01935 
 H                    -6.22957   0.37797   0.25791 
 H                    -5.18555   1.77586   0.64103 
 H                    -5.44348   1.26661  -1.05123 
 C                    -4.21012  -1.23973  -0.81663 
 H                    -3.34707  -1.91047  -0.72044 
 H                    -5.12124  -1.81276  -0.58206 
 H                    -4.29306  -0.93848  -1.87329 
 C                    -1.84445  -0.60934   0.98934 
 H                    -1.33969  -0.40297   1.94493 
 H                    -2.09734  -1.67859   0.98231 
 H                    -1.36895  -0.56251  -1.10249 
 

 GradGradGradGradGradGradGradGradGradGradGradGradGradGradGradGradGradGrad
 Berny optimization.
 Initialization pass.
                           ----------------------------
                           !    Initial Parameters    !
                           ! (Angstroms and Degrees)  !
 --------------------------                            --------------------------
 ! Name  Definition              Value          Derivative Info.                !
 --------------------------------------------------------------------------------
 ! R1    R(1,2)                  1.3929         estimate D2E/DX2                !
 ! R2    R(1,6)                  1.3967         estimate D2E/DX2                !
 ! R3    R(1,7)                  1.091          estimate D2E/DX2                !
 ! R4    R(2,3)                  1.3999         estimate D2E/DX2                !
 ! R5    R(2,8)                  1.0893         estimate D2E/DX2                !
 ! R6    R(3,4)                  1.4117         estimate D2E/DX2                !
 ! R7    R(3,12)                 1.4736         estimate D2E/DX2                !
 ! R8    R(4,5)                  1.3977         estimate D2E/DX2                !
 ! R9    R(4,11)                 1.4894         estimate D2E/DX2                !
 ! R10   R(5,6)                  1.3905         estimate D2E/DX2                !
 ! R11   R(5,9)                  1.0908         estimate D2E/DX2                !
 ! R12   R(6,10)                 1.0905         estimate D2E/DX2                !
 ! R13   R(11,13)                1.5192         estimate D2E/DX2                !
 ! R14   R(11,16)                1.2135         estimate D2E/DX2                !
 ! R15   R(12,14)                1.3373         estimate D2E/DX2                !
 ! R16   R(12,17)                1.7462         estimate D2E/DX2                !
 ! R17   R(13,14)                1.4955         estimate D2E/DX2                !
 ! R18   R(13,29)                1.5527         estimate D2E/DX2                !
 ! R19   R(13,32)                1.106          estimate D2E/DX2                !
 ! R20   R(14,15)                1.0922         estimate D2E/DX2                !
 ! R21   R(18,19)                1.3419         estimate D2E/DX2                !
 ! R22   R(18,21)                1.5043         estimate D2E/DX2                !
 ! R23   R(18,25)                1.5052         estimate D2E/DX2                !
 ! R24   R(19,20)                1.0949         estimate D2E/DX2                !
 ! R25   R(19,29)                1.5054         estimate D2E/DX2                !
 ! R26   R(21,22)                1.1017         estimate D2E/DX2                !
 ! R27   R(21,23)                1.0978         estimate D2E/DX2                !
 ! R28   R(21,24)                1.1017         estimate D2E/DX2                !
 ! R29   R(25,26)                1.0973         estimate D2E/DX2                !
 ! R30   R(25,27)                1.1016         estimate D2E/DX2                !
 ! R31   R(25,28)                1.1019         estimate D2E/DX2                !
 ! R32   R(29,30)                1.1002         estimate D2E/DX2                !
 ! R33   R(29,31)                1.0988         estimate D2E/DX2                !
 ! A1    A(2,1,6)              120.6654         estimate D2E/DX2                !
 ! A2    A(2,1,7)              119.3668         estimate D2E/DX2                !
 ! A3    A(6,1,7)              119.9678         estimate D2E/DX2                !
 ! A4    A(1,2,3)              120.457          estimate D2E/DX2                !
 ! A5    A(1,2,8)              120.0056         estimate D2E/DX2                !
 ! A6    A(3,2,8)              119.5374         estimate D2E/DX2                !
 ! A7    A(2,3,4)              118.7457         estimate D2E/DX2                !
 ! A8    A(2,3,12)             122.7572         estimate D2E/DX2                !
 ! A9    A(4,3,12)             118.4971         estimate D2E/DX2                !
 ! A10   A(3,4,5)              120.2523         estimate D2E/DX2                !
 ! A11   A(3,4,11)             121.2066         estimate D2E/DX2                !
 ! A12   A(5,4,11)             118.541          estimate D2E/DX2                !
 ! A13   A(4,5,6)              120.5085         estimate D2E/DX2                !
 ! A14   A(4,5,9)              118.0686         estimate D2E/DX2                !
 ! A15   A(6,5,9)              121.4229         estimate D2E/DX2                !
 ! A16   A(1,6,5)              119.3707         estimate D2E/DX2                !
 ! A17   A(1,6,10)             120.3002         estimate D2E/DX2                !
 ! A18   A(5,6,10)             120.329          estimate D2E/DX2                !
 ! A19   A(4,11,13)            118.7808         estimate D2E/DX2                !
 ! A20   A(4,11,16)            121.4538         estimate D2E/DX2                !
 ! A21   A(13,11,16)           119.7636         estimate D2E/DX2                !
 ! A22   A(3,12,14)            123.1091         estimate D2E/DX2                !
 ! A23   A(3,12,17)            117.4577         estimate D2E/DX2                !
 ! A24   A(14,12,17)           119.4331         estimate D2E/DX2                !
 ! A25   A(11,13,14)           115.4765         estimate D2E/DX2                !
 ! A26   A(11,13,29)           109.6055         estimate D2E/DX2                !
 ! A27   A(11,13,32)           105.1666         estimate D2E/DX2                !
 ! A28   A(14,13,29)           111.6679         estimate D2E/DX2                !
 ! A29   A(14,13,32)           107.9136         estimate D2E/DX2                !
 ! A30   A(29,13,32)           106.4024         estimate D2E/DX2                !
 ! A31   A(12,14,13)           122.9131         estimate D2E/DX2                !
 ! A32   A(12,14,15)           119.7187         estimate D2E/DX2                !
 ! A33   A(13,14,15)           117.3664         estimate D2E/DX2                !
 ! A34   A(19,18,21)           121.4481         estimate D2E/DX2                !
 ! A35   A(19,18,25)           123.5917         estimate D2E/DX2                !
 ! A36   A(21,18,25)           114.9594         estimate D2E/DX2                !
 ! A37   A(18,19,20)           117.9113         estimate D2E/DX2                !
 ! A38   A(18,19,29)           125.1851         estimate D2E/DX2                !
 ! A39   A(20,19,29)           116.8872         estimate D2E/DX2                !
 ! A40   A(18,21,22)           110.5502         estimate D2E/DX2                !
 ! A41   A(18,21,23)           111.7787         estimate D2E/DX2                !
 ! A42   A(18,21,24)           110.5475         estimate D2E/DX2                !
 ! A43   A(22,21,23)           108.6074         estimate D2E/DX2                !
 ! A44   A(22,21,24)           106.6104         estimate D2E/DX2                !
 ! A45   A(23,21,24)           108.5789         estimate D2E/DX2                !
 ! A46   A(18,25,26)           113.4531         estimate D2E/DX2                !
 ! A47   A(18,25,27)           110.2361         estimate D2E/DX2                !
 ! A48   A(18,25,28)           110.0041         estimate D2E/DX2                !
 ! A49   A(26,25,27)           108.2938         estimate D2E/DX2                !
 ! A50   A(26,25,28)           108.0825         estimate D2E/DX2                !
 ! A51   A(27,25,28)           106.5077         estimate D2E/DX2                !
 ! A52   A(13,29,19)           112.9542         estimate D2E/DX2                !
 ! A53   A(13,29,30)           108.1983         estimate D2E/DX2                !
 ! A54   A(13,29,31)           106.8712         estimate D2E/DX2                !
 ! A55   A(19,29,30)           110.1249         estimate D2E/DX2                !
 ! A56   A(19,29,31)           111.366          estimate D2E/DX2                !
 ! A57   A(30,29,31)           107.0785         estimate D2E/DX2                !
 ! D1    D(6,1,2,3)             -0.0626         estimate D2E/DX2                !
 ! D2    D(6,1,2,8)           -179.9992         estimate D2E/DX2                !
 ! D3    D(7,1,2,3)            179.9648         estimate D2E/DX2                !
 ! D4    D(7,1,2,8)              0.0282         estimate D2E/DX2                !
 ! D5    D(2,1,6,5)              0.1482         estimate D2E/DX2                !
 ! D6    D(2,1,6,10)          -179.8347         estimate D2E/DX2                !
 ! D7    D(7,1,6,5)           -179.8794         estimate D2E/DX2                !
 ! D8    D(7,1,6,10)             0.1377         estimate D2E/DX2                !
 ! D9    D(1,2,3,4)             -0.1133         estimate D2E/DX2                !
 ! D10   D(1,2,3,12)           179.9143         estimate D2E/DX2                !
 ! D11   D(8,2,3,4)            179.8237         estimate D2E/DX2                !
 ! D12   D(8,2,3,12)            -0.1488         estimate D2E/DX2                !
 ! D13   D(2,3,4,5)              0.2046         estimate D2E/DX2                !
 ! D14   D(2,3,4,11)          -179.8786         estimate D2E/DX2                !
 ! D15   D(12,3,4,5)          -179.8218         estimate D2E/DX2                !
 ! D16   D(12,3,4,11)            0.0951         estimate D2E/DX2                !
 ! D17   D(2,3,12,14)          179.9088         estimate D2E/DX2                !
 ! D18   D(2,3,12,17)           -0.001          estimate D2E/DX2                !
 ! D19   D(4,3,12,14)           -0.0637         estimate D2E/DX2                !
 ! D20   D(4,3,12,17)         -179.9735         estimate D2E/DX2                !
 ! D21   D(3,4,5,6)             -0.1213         estimate D2E/DX2                !
 ! D22   D(3,4,5,9)            179.913          estimate D2E/DX2                !
 ! D23   D(11,4,5,6)           179.9596         estimate D2E/DX2                !
 ! D24   D(11,4,5,9)            -0.006          estimate D2E/DX2                !
 ! D25   D(3,4,11,13)           -0.8207         estimate D2E/DX2                !
 ! D26   D(3,4,11,16)          179.6678         estimate D2E/DX2                !
 ! D27   D(5,4,11,13)          179.0975         estimate D2E/DX2                !
 ! D28   D(5,4,11,16)           -0.4139         estimate D2E/DX2                !
 ! D29   D(4,5,6,1)             -0.0557         estimate D2E/DX2                !
 ! D30   D(4,5,6,10)           179.9272         estimate D2E/DX2                !
 ! D31   D(9,5,6,1)            179.9087         estimate D2E/DX2                !
 ! D32   D(9,5,6,10)            -0.1083         estimate D2E/DX2                !
 ! D33   D(4,11,13,14)           1.4263         estimate D2E/DX2                !
 ! D34   D(4,11,13,29)        -125.7222         estimate D2E/DX2                !
 ! D35   D(4,11,13,32)         120.2531         estimate D2E/DX2                !
 ! D36   D(16,11,13,14)       -179.0538         estimate D2E/DX2                !
 ! D37   D(16,11,13,29)         53.7977         estimate D2E/DX2                !
 ! D38   D(16,11,13,32)        -60.227          estimate D2E/DX2                !
 ! D39   D(3,12,14,13)           0.8005         estimate D2E/DX2                !
 ! D40   D(3,12,14,15)        -179.7095         estimate D2E/DX2                !
 ! D41   D(17,12,14,13)       -179.2914         estimate D2E/DX2                !
 ! D42   D(17,12,14,15)          0.1986         estimate D2E/DX2                !
 ! D43   D(11,13,14,12)         -1.459          estimate D2E/DX2                !
 ! D44   D(11,13,14,15)        179.0397         estimate D2E/DX2                !
 ! D45   D(29,13,14,12)        124.6445         estimate D2E/DX2                !
 ! D46   D(29,13,14,15)        -54.8567         estimate D2E/DX2                !
 ! D47   D(32,13,14,12)       -118.7554         estimate D2E/DX2                !
 ! D48   D(32,13,14,15)         61.7434         estimate D2E/DX2                !
 ! D49   D(11,13,29,19)       -169.218          estimate D2E/DX2                !
 ! D50   D(11,13,29,30)         68.6031         estimate D2E/DX2                !
 ! D51   D(11,13,29,31)        -46.4053         estimate D2E/DX2                !
 ! D52   D(14,13,29,19)         61.5216         estimate D2E/DX2                !
 ! D53   D(14,13,29,30)        -60.6573         estimate D2E/DX2                !
 ! D54   D(14,13,29,31)       -175.6657         estimate D2E/DX2                !
 ! D55   D(32,13,29,19)        -55.992          estimate D2E/DX2                !
 ! D56   D(32,13,29,30)       -178.1709         estimate D2E/DX2                !
 ! D57   D(32,13,29,31)         66.8207         estimate D2E/DX2                !
 ! D58   D(21,18,19,20)         -0.5907         estimate D2E/DX2                !
 ! D59   D(21,18,19,29)       -179.0677         estimate D2E/DX2                !
 ! D60   D(25,18,19,20)        179.07           estimate D2E/DX2                !
 ! D61   D(25,18,19,29)          0.593          estimate D2E/DX2                !
 ! D62   D(19,18,21,22)       -121.5074         estimate D2E/DX2                !
 ! D63   D(19,18,21,23)         -0.3935         estimate D2E/DX2                !
 ! D64   D(19,18,21,24)        120.6821         estimate D2E/DX2                !
 ! D65   D(25,18,21,22)         58.8044         estimate D2E/DX2                !
 ! D66   D(25,18,21,23)        179.9182         estimate D2E/DX2                !
 ! D67   D(25,18,21,24)        -59.0061         estimate D2E/DX2                !
 ! D68   D(19,18,25,26)          1.7271         estimate D2E/DX2                !
 ! D69   D(19,18,25,27)        123.3683         estimate D2E/DX2                !
 ! D70   D(19,18,25,28)       -119.4711         estimate D2E/DX2                !
 ! D71   D(21,18,25,26)       -178.5922         estimate D2E/DX2                !
 ! D72   D(21,18,25,27)        -56.951          estimate D2E/DX2                !
 ! D73   D(21,18,25,28)         60.2096         estimate D2E/DX2                !
 ! D74   D(18,19,29,13)         80.6609         estimate D2E/DX2                !
 ! D75   D(18,19,29,30)       -158.247          estimate D2E/DX2                !
 ! D76   D(18,19,29,31)        -39.6126         estimate D2E/DX2                !
 ! D77   D(20,19,29,13)        -97.8302         estimate D2E/DX2                !
 ! D78   D(20,19,29,30)         23.2619         estimate D2E/DX2                !
 ! D79   D(20,19,29,31)        141.8963         estimate D2E/DX2                !
 --------------------------------------------------------------------------------
 Trust Radius=3.00D-01 FncErr=1.00D-07 GrdErr=1.00D-06
 Number of steps in this run=    179 maximum allowed number of steps=    192.
 GradGradGradGradGradGradGradGradGradGradGradGradGradGradGradGradGradGrad

                          Input orientation:                          
 ---------------------------------------------------------------------
 Center     Atomic      Atomic             Coordinates (Angstroms)
 Number     Number       Type             X           Y           Z
 ---------------------------------------------------------------------
      1          6           0        4.372472   -0.333620    0.058659
      2          6           0        3.401750    0.663226   -0.005951
      3          6           0        2.043494    0.328626   -0.059146
      4          6           0        1.679345   -1.035238   -0.048444
      5          6           0        2.662760   -2.026122    0.018546
      6          6           0        4.008913   -1.682123    0.072821
      7          1           0        5.425944   -0.052753    0.098874
      8          1           0        3.697376    1.711619   -0.016407
      9          1           0        2.341409   -3.068489    0.026146
     10          1           0        4.773707   -2.457603    0.126223
     11          6           0        0.250911   -1.453044   -0.105799
     12          6           0        0.974977    1.341093   -0.126584
     13          6           0       -0.823430   -0.380209   -0.157776
     14          6           0       -0.324374    1.029405   -0.179425
     15          1           0       -1.070375    1.825351   -0.233006
     16          8           0       -0.066883   -2.624140   -0.102854
     17         17           0        1.455932    3.019655   -0.139016
     18          6           0       -4.121738   -0.020085    0.061108
     19          6           0       -3.076047    0.246403    0.858729
     20          1           0       -3.102274    1.169465    1.446953
     21          6           0       -5.303726    0.906876   -0.019346
     22          1           0       -6.229571    0.377971    0.257912
     23          1           0       -5.185555    1.775863    0.641027
     24          1           0       -5.443482    1.266606   -1.051231
     25          6           0       -4.210122   -1.239725   -0.816625
     26          1           0       -3.347074   -1.910466   -0.720436
     27          1           0       -5.121239   -1.812763   -0.582064
     28          1           0       -4.293063   -0.938482   -1.873286
     29          6           0       -1.844450   -0.609340    0.989343
     30          1           0       -1.339692   -0.402971    1.944934
     31          1           0       -2.097344   -1.678593    0.982305
     32          1           0       -1.368949   -0.562509   -1.102491
 ---------------------------------------------------------------------
                    Distance matrix (angstroms):
                    1          2          3          4          5
     1  C    0.000000
     2  C    1.392903   0.000000
     3  C    2.424167   1.399874   0.000000
     4  C    2.785080   2.419352   1.411681   0.000000
     5  C    2.406094   2.789139   2.436055   1.397657   0.000000
     6  C    1.396723   2.423946   2.814853   2.420755   1.390471
     7  H    1.091012   2.149645   3.407549   3.876078   3.396443
     8  H    2.155085   1.089326   2.156345   3.408621   3.878448
     9  H    3.406726   3.879568   3.411219   2.139627   1.090804
    10  H    2.162604   3.411643   3.905316   3.410089   2.157282
    11  C    4.274040   3.796888   2.527821   1.489388   2.482115
    12  C    3.792354   2.522555   1.473556   2.479756   3.769325
    13  C    5.200617   4.354762   2.954899   2.589382   3.859228
    14  C    4.896415   3.748090   2.472318   2.880069   4.277664
    15  H    5.862662   4.626229   3.459276   3.972152   5.369676
    16  O    4.998044   4.779914   3.629660   2.361542   2.797019
    17  Cl   4.448565   3.058868   2.755584   4.062053   5.190484
    18  C    8.499995   7.554752   6.176257   5.890255   7.074985
    19  C    7.513786   6.548532   5.201822   5.007926   6.229300
    20  H    7.749739   6.683527   5.427179   5.473647   6.744460
    21  C    9.755702   8.708895   7.370047   7.248168   8.489335
    22  H   10.627765   9.639157   8.279285   8.040023   9.214690
    23  H    9.805353   8.683222   7.405666   7.450135   8.742918
    24  H   10.007274   8.927195   7.610443   7.552399   8.814626
    25  C    8.674564   7.887903   6.491626   5.942873   6.967958
    26  H    7.917375   7.258168   5.874441   5.146114   6.056201
    27  H    9.629587   8.894030   7.496158   6.865656   7.810051
    28  H    8.898863   8.078524   6.711827   6.245724   7.290093
    29  C    6.292242   5.489321   4.134636   3.698043   4.823345
    30  H    6.015951   5.236793   3.999690   3.672588   4.729187
    31  H    6.672375   6.058119   4.718060   3.967333   4.869106
    32  H    5.862131   5.046226   3.677969   3.259844   4.433234
                    6          7          8          9         10
     6  C    0.000000
     7  H    2.159514   0.000000
     8  H    3.409179   2.472700   0.000000
     9  H    2.169046   4.314430   4.968892   0.000000
    10  H    1.090473   2.491880   4.308276   2.509835   0.000000
    11  C    3.769212   5.365042   4.679872   2.645232   4.638821
    12  C    4.287699   4.669555   2.749706   4.618969   5.378137
    13  C    5.009959   6.263208   4.983314   4.156547   5.976969
    14  C    5.117948   5.857873   4.082458   4.892994   6.184099
    15  H    6.180216   6.770493   4.774023   5.971357   7.254380
    16  O    4.186929   6.068268   5.742467   2.452337   4.848868
    17  Cl   5.354372   5.025662   2.598088   6.154417   6.409238
    18  C    8.298795   9.547813   8.008954   7.146066   9.223593
    19  C    7.384682   8.541120   6.985126   6.405508   8.334678
    20  H    7.783879   8.720186   6.976431   7.043623   8.771033
    21  C    9.666264  10.773146   9.037005   8.617058  10.625232
    22  H   10.445324  11.664555  10.019887   9.240860  11.363536
    23  H    9.839653  10.781543   8.907458   8.972236  10.833935
    24  H    9.965253  11.009445   9.210004   8.975429  10.938331
    25  C    8.278851   9.751964   8.478166   6.853991   9.114898
    26  H    7.402158   9.004899   7.952322   5.852969   8.183109
    27  H    9.154541  10.714681   9.513633   7.591962   9.941199
    28  H    8.559389   9.956557   8.620798   7.222257   9.408086
    29  C    6.021024   7.345839   6.091816   4.949402   6.925392
    30  H    5.809356   7.021711   5.804343   4.933279   6.700960
    31  H    6.173617   7.747494   6.787470   4.748534   6.967860
    32  H    5.617499   6.919082   5.658523   4.617414   6.544719
                   11         12         13         14         15
    11  C    0.000000
    12  C    2.886504   0.000000
    13  C    1.519173   2.489603   0.000000
    14  C    2.549299   1.337256   1.495506   0.000000
    15  H    3.536927   2.104589   2.220616   1.092208   0.000000
    16  O    1.213453   4.099891   2.368672   3.663408   4.563103
    17  Cl   4.632301   1.746151   4.093277   2.670621   2.795966
    18  C    4.604486   5.278687   3.325122   3.947057   3.578121
    19  C    3.858378   4.310450   2.549551   3.043445   2.776271
    20  H    4.531274   4.373723   3.189008   3.222026   2.716811
    21  C    6.035784   6.294613   4.663561   4.983431   4.337108
    22  H    6.744001   7.278802   5.474851   5.957095   5.380819
    23  H    6.367005   6.223376   4.931011   4.986123   4.207266
    24  H    6.380944   6.485147   4.985493   5.198228   4.483944
    25  C    4.522344   5.832841   3.555634   4.544669   4.426433
    26  H    3.678656   5.441086   3.004505   4.251147   4.401963
    27  H    5.405203   6.878817   4.550098   5.590166   5.455934
    28  H    4.902702   5.999973   3.910626   4.742598   4.551374
    29  C    2.510321   3.605364   1.552696   2.522327   2.832146
    30  H    2.799674   3.562392   2.165279   2.755989   3.127519
    31  H    2.597912   4.448291   2.146728   3.438938   3.848281
    32  H    2.100094   3.173340   1.106034   2.115982   2.558716
                   16         17         18         19         20
    16  O    0.000000
    17  Cl   5.845742   0.000000
    18  C    4.821808   6.355350   0.000000
    19  C    4.268457   5.406039   1.341896   0.000000
    20  H    5.099700   5.168727   2.091627   1.094869   0.000000
    21  C    6.316611   7.083158   1.504269   2.483907   2.658078
    22  H    6.864514   8.136523   2.154099   3.212943   3.438062
    23  H    6.790743   6.801826   2.166435   2.614702   2.314583
    24  H    6.704114   7.176854   2.154038   3.208350   3.425144
    25  C    4.426342   7.120789   1.505240   2.510282   3.486446
    26  H    3.413267   6.907460   2.187340   2.686876   3.774053
    27  H    5.141448   8.173600   2.150899   3.240194   4.133620
    28  H    4.882261   7.192043   2.148182   3.216984   4.109186
    29  C    2.900355   5.033420   2.528810   1.505386   2.226135
    30  H    3.278272   4.885973   3.381595   2.148594   2.413967
    31  H    2.488855   5.996388   2.774423   2.163040   3.055686
    32  H    2.635332   4.662632   3.037439   2.723033   3.536073
                   21         22         23         24         25
    21  C    0.000000
    22  H    1.101727   0.000000
    23  H    1.097814   1.786295   0.000000
    24  H    1.101691   1.766766   1.785947   0.000000
    25  C    2.537621   2.801740   3.488551   2.803197   0.000000
    26  H    3.501061   3.808267   4.338504   3.820751   1.097268
    27  H    2.783234   2.594855   3.791876   3.131529   1.101601
    28  H    2.804261   3.166246   3.806045   2.619475   1.101889
    29  C    3.909342   4.554016   4.119891   4.542703   3.042254
    30  H    4.613855   5.231332   4.608487   5.348419   4.070102
    31  H    4.238967   4.672205   4.646158   4.899603   2.809375
    32  H    4.337599   5.134281   4.803574   4.466554   2.934724
                   26         27         28         29         30
    26  H    0.000000
    27  H    1.782233   0.000000
    28  H    1.780087   1.765644   0.000000
    29  C    2.621860   3.828171   3.781360   0.000000
    30  H    3.661464   4.761652   4.856745   1.100238   0.000000
    31  H    2.124833   3.407227   3.677410   1.098775   1.768588
    32  H    2.424032   3.989193   3.047281   2.145708   3.051738
                   31         32
    31  H    0.000000
    32  H    2.474384   0.000000
 Stoichiometry    C15H15ClO
 Framework group  C1[X(C15H15ClO)]
 Deg. of freedom    90
 Full point group                 C1      NOp   1
 Largest Abelian subgroup         C1      NOp   1
 Largest concise Abelian subgroup C1      NOp   1
                         Standard orientation:                         
 ---------------------------------------------------------------------
 Center     Atomic      Atomic             Coordinates (Angstroms)
 Number     Number       Type             X           Y           Z
 ---------------------------------------------------------------------
      1          6           0        4.372472   -0.333620    0.058659
      2          6           0        3.401750    0.663226   -0.005951
      3          6           0        2.043494    0.328626   -0.059146
      4          6           0        1.679345   -1.035238   -0.048444
      5          6           0        2.662760   -2.026122    0.018546
      6          6           0        4.008913   -1.682123    0.072821
      7          1           0        5.425944   -0.052753    0.098874
      8          1           0        3.697376    1.711619   -0.016407
      9          1           0        2.341409   -3.068489    0.026146
     10          1           0        4.773707   -2.457603    0.126223
     11          6           0        0.250911   -1.453044   -0.105799
     12          6           0        0.974977    1.341093   -0.126584
     13          6           0       -0.823430   -0.380209   -0.157776
     14          6           0       -0.324374    1.029405   -0.179425
     15          1           0       -1.070375    1.825351   -0.233006
     16          8           0       -0.066883   -2.624140   -0.102854
     17         17           0        1.455932    3.019655   -0.139016
     18          6           0       -4.121738   -0.020085    0.061108
     19          6           0       -3.076047    0.246403    0.858729
     20          1           0       -3.102274    1.169465    1.446953
     21          6           0       -5.303726    0.906876   -0.019346
     22          1           0       -6.229571    0.377971    0.257912
     23          1           0       -5.185555    1.775863    0.641027
     24          1           0       -5.443482    1.266606   -1.051231
     25          6           0       -4.210122   -1.239725   -0.816625
     26          1           0       -3.347074   -1.910466   -0.720436
     27          1           0       -5.121239   -1.812763   -0.582064
     28          1           0       -4.293063   -0.938482   -1.873286
     29          6           0       -1.844450   -0.609340    0.989343
     30          1           0       -1.339692   -0.402971    1.944934
     31          1           0       -2.097344   -1.678593    0.982305
     32          1           0       -1.368949   -0.562509   -1.102491
 ---------------------------------------------------------------------
 Rotational constants (GHZ):      0.7101198      0.2501242      0.1912475
 Standard basis: def2SVP (5D, 7F)
 There are   334 symmetry adapted cartesian basis functions of A   symmetry.
 There are   317 symmetry adapted basis functions of A   symmetry.
   317 basis functions,   542 primitive gaussians,   334 cartesian basis functions
    65 alpha electrons       65 beta electrons
       nuclear repulsion energy      1235.2870507723 Hartrees.
 NAtoms=   32 NActive=   32 NUniq=   32 SFac= 1.00D+00 NAtFMM=   60 NAOKFM=F Big=F
 Integral buffers will be    131072 words long.
 Raffenetti 2 integral format.
 Two-electron integral symmetry is turned on.
 Nuclear repulsion after empirical dispersion term =     1235.2853375359 Hartrees.
 ------------------------------------------------------------------------------
 Polarizable Continuum Model (PCM)
 =================================
 Model                : C-PCM.
 Atomic radii         : UFF (Universal Force Field).
 Polarization charges : Total charges.
 Charge compensation  : None.
 Solution method      : On-the-fly selection.
 Cavity type          : Scaled VdW (van der Waals Surface) (Alpha=1.100).
 Cavity algorithm     : GePol (No added spheres)
                        Default sphere list used, NSphG=   32.
                        Lebedev-Laikov grids with approx.  5.0 points / Ang**2.
                        Smoothing algorithm: Karplus/York (Gamma=1.0000).
                        Polarization charges: spherical gaussians, with
                                              point-specific exponents (IZeta= 3).
                        Self-potential: point-specific (ISelfS= 7).
                        Self-field    : sphere-specific E.n sum rule (ISelfD= 2).
 1st derivatives      : Analytical E(r).r(x)/FMM algorithm (CHGder, D1EAlg=3).
                        Cavity 1st derivative terms included.
 Solvent              : Water, Eps=  78.355300 Eps(inf)=   1.777849
 ------------------------------------------------------------------------------
 One-electron integrals computed using PRISM.
   1 Symmetry operations used in ECPInt.
 ECPInt:  NShTT=   11175 NPrTT=   41031 LenC2=   10159 LenP2D=   26599.
 LDataN:  DoStor=T MaxTD1= 4 Len=   56
 NBasis=   317 RedAO= T EigKep=  2.51D-04  NBF=   317
 NBsUse=   317 1.00D-06 EigRej= -1.00D+00 NBFU=   317
 ExpMin= 1.22D-01 ExpMax= 1.04D+04 ExpMxC= 1.57D+03 IAcc=1 IRadAn=         1 AccDes= 0.00D+00
 Harris functional with IExCor= 1009 and IRadAn=       1 diagonalized for initial guess.
 HarFok:  IExCor= 1009 AccDes= 0.00D+00 IRadAn=         1 IDoV= 1 UseB2=F ITyADJ=14
 ICtDFT=  3500011 ScaDFX=  1.000000  1.000000  1.000000  1.000000
 FoFCou: FMM=F IPFlag=           0 FMFlag=      100000 FMFlg1=           0
         NFxFlg=           0 DoJE=T BraDBF=F KetDBF=T FulRan=T
         wScrn=  0.000000 ICntrl=     500 IOpCl=  0 I1Cent=   200000004 NGrid=           0
         NMat0=    1 NMatS0=      1 NMatT0=    0 NMatD0=    1 NMtDS0=    0 NMtDT0=    0
 Petite list used in FoFCou.
 Requested convergence on RMS density matrix=1.00D-08 within 128 cycles.
 Requested convergence on MAX density matrix=1.00D-06.
 Requested convergence on             energy=1.00D-06.
 No special actions if energy rises.
 Inv3:  Mode=1 IEnd=    17352075.
 Iteration    1 A*A^-1 deviation from unit magnitude is 5.44D-15 for   2405.
 Iteration    1 A*A^-1 deviation from orthogonality  is 2.11D-15 for   2382    918.
 Iteration    1 A^-1*A deviation from unit magnitude is 5.33D-15 for   2405.
 Iteration    1 A^-1*A deviation from orthogonality  is 2.28D-15 for   2404   1310.
 Error on total polarization charges =  0.01188
 SCF Done:  E(RM062X) =  -1115.12177438     A.U. after   13 cycles
            NFock= 13  Conv=0.70D-08     -V/T= 2.0070

 **********************************************************************

            Population analysis using the SCF density.

 **********************************************************************

 Orbital symmetries:
       Occupied  (A) (A) (A) (A) (A) (A) (A) (A) (A) (A) (A) (A)
                 (A) (A) (A) (A) (A) (A) (A) (A) (A) (A) (A) (A)
                 (A) (A) (A) (A) (A) (A) (A) (A) (A) (A) (A) (A)
                 (A) (A) (A) (A) (A) (A) (A) (A) (A) (A) (A) (A)
                 (A) (A) (A) (A) (A) (A) (A) (A) (A) (A) (A) (A)
                 (A) (A) (A) (A) (A)
       Virtual   (A) (A) (A) (A) (A) (A) (A) (A) (A) (A) (A) (A)
                 (A) (A) (A) (A) (A) (A) (A) (A) (A) (A) (A) (A)
                 (A) (A) (A) (A) (A) (A) (A) (A) (A) (A) (A) (A)
                 (A) (A) (A) (A) (A) (A) (A) (A) (A) (A) (A) (A)
                 (A) (A) (A) (A) (A) (A) (A) (A) (A) (A) (A) (A)
                 (A) (A) (A) (A) (A) (A) (A) (A) (A) (A) (A) (A)
                 (A) (A) (A) (A) (A) (A) (A) (A) (A) (A) (A) (A)
                 (A) (A) (A) (A) (A) (A) (A) (A) (A) (A) (A) (A)
                 (A) (A) (A) (A) (A) (A) (A) (A) (A) (A) (A) (A)
                 (A) (A) (A) (A) (A) (A) (A) (A) (A) (A) (A) (A)
                 (A) (A) (A) (A) (A) (A) (A) (A) (A) (A) (A) (A)
                 (A) (A) (A) (A) (A) (A) (A) (A) (A) (A) (A) (A)
                 (A) (A) (A) (A) (A) (A) (A) (A) (A) (A) (A) (A)
                 (A) (A) (A) (A) (A) (A) (A) (A) (A) (A) (A) (A)
                 (A) (A) (A) (A) (A) (A) (A) (A) (A) (A) (A) (A)
                 (A) (A) (A) (A) (A) (A) (A) (A) (A) (A) (A) (A)
                 (A) (A) (A) (A) (A) (A) (A) (A) (A) (A) (A) (A)
                 (A) (A) (A) (A) (A) (A) (A) (A) (A) (A) (A) (A)
                 (A) (A) (A) (A) (A) (A) (A) (A) (A) (A) (A) (A)
                 (A) (A) (A) (A) (A) (A) (A) (A) (A) (A) (A) (A)
                 (A) (A) (A) (A) (A) (A) (A) (A) (A) (A) (A) (A)
 The electronic state is 1-A.
 Alpha  occ. eigenvalues -- -102.64704 -19.63510 -10.65491 -10.62491 -10.59443
 Alpha  occ. eigenvalues --  -10.57954 -10.57895 -10.57775 -10.57603 -10.57493
 Alpha  occ. eigenvalues --  -10.57306 -10.57110 -10.56451 -10.56040 -10.54834
 Alpha  occ. eigenvalues --  -10.54654 -10.54622  -9.81705  -7.54406  -7.53731
 Alpha  occ. eigenvalues --   -7.53727  -1.16534  -1.00251  -0.96120  -0.93048
 Alpha  occ. eigenvalues --   -0.90092  -0.86370  -0.85610  -0.82193  -0.78276
 Alpha  occ. eigenvalues --   -0.77374  -0.72958  -0.71491  -0.69277  -0.66031
 Alpha  occ. eigenvalues --   -0.61000  -0.60023  -0.57964  -0.57547  -0.55350
 Alpha  occ. eigenvalues --   -0.53498  -0.52556  -0.52184  -0.51246  -0.51052
 Alpha  occ. eigenvalues --   -0.49935  -0.49326  -0.48405  -0.47223  -0.46522
 Alpha  occ. eigenvalues --   -0.45235  -0.44608  -0.43743  -0.43342  -0.43039
 Alpha  occ. eigenvalues --   -0.42166  -0.41528  -0.40702  -0.38970  -0.38127
 Alpha  occ. eigenvalues --   -0.35175  -0.33601  -0.32502  -0.29742  -0.28649
 Alpha virt. eigenvalues --   -0.04587  -0.01172   0.04745   0.06578   0.07419
 Alpha virt. eigenvalues --    0.08886   0.10194   0.11434   0.12513   0.13539
 Alpha virt. eigenvalues --    0.14959   0.15029   0.16209   0.17298   0.17534
 Alpha virt. eigenvalues --    0.17897   0.18349   0.19712   0.20640   0.20993
 Alpha virt. eigenvalues --    0.21915   0.22589   0.24335   0.25347   0.26298
 Alpha virt. eigenvalues --    0.27100   0.27756   0.29602   0.31108   0.31244
 Alpha virt. eigenvalues --    0.32653   0.34073   0.34401   0.35833   0.37872
 Alpha virt. eigenvalues --    0.38638   0.39245   0.41551   0.43394   0.44136
 Alpha virt. eigenvalues --    0.46483   0.46930   0.47077   0.48144   0.48432
 Alpha virt. eigenvalues --    0.49159   0.50093   0.50299   0.51877   0.52356
 Alpha virt. eigenvalues --    0.52606   0.53291   0.54589   0.55421   0.57081
 Alpha virt. eigenvalues --    0.57480   0.58778   0.59077   0.61077   0.62328
 Alpha virt. eigenvalues --    0.62819   0.63397   0.65064   0.65949   0.67319
 Alpha virt. eigenvalues --    0.67621   0.68319   0.68997   0.69307   0.69963
 Alpha virt. eigenvalues --    0.70148   0.70223   0.70751   0.71568   0.71854
 Alpha virt. eigenvalues --    0.72276   0.72824   0.73439   0.73685   0.74238
 Alpha virt. eigenvalues --    0.74758   0.75418   0.75777   0.76673   0.76899
 Alpha virt. eigenvalues --    0.77208   0.77701   0.78957   0.79004   0.79071
 Alpha virt. eigenvalues --    0.80257   0.81090   0.82072   0.83256   0.83803
 Alpha virt. eigenvalues --    0.84669   0.85157   0.86035   0.87369   0.88168
 Alpha virt. eigenvalues --    0.90984   0.91387   0.94767   0.95610   0.97350
 Alpha virt. eigenvalues --    0.99422   1.00001   1.04826   1.05033   1.07072
 Alpha virt. eigenvalues --    1.09455   1.10307   1.13237   1.15188   1.16452
 Alpha virt. eigenvalues --    1.17476   1.20362   1.21235   1.24337   1.24690
 Alpha virt. eigenvalues --    1.25007   1.27078   1.27789   1.29344   1.29562
 Alpha virt. eigenvalues --    1.30909   1.32331   1.33668   1.34708   1.35840
 Alpha virt. eigenvalues --    1.39580   1.41469   1.43565   1.44684   1.46678
 Alpha virt. eigenvalues --    1.48048   1.51732   1.53987   1.55475   1.57030
 Alpha virt. eigenvalues --    1.57839   1.58866   1.59397   1.62367   1.63827
 Alpha virt. eigenvalues --    1.66757   1.70160   1.71015   1.71654   1.73871
 Alpha virt. eigenvalues --    1.74380   1.75520   1.75901   1.76338   1.77451
 Alpha virt. eigenvalues --    1.77850   1.78770   1.79540   1.80944   1.81877
 Alpha virt. eigenvalues --    1.81942   1.83608   1.84601   1.85538   1.86293
 Alpha virt. eigenvalues --    1.86388   1.86793   1.87022   1.88299   1.89709
 Alpha virt. eigenvalues --    1.91808   1.93467   1.93744   1.95102   1.95902
 Alpha virt. eigenvalues --    1.96475   1.98101   1.99647   2.00716   2.01025
 Alpha virt. eigenvalues --    2.01641   2.03606   2.04662   2.05906   2.06412
 Alpha virt. eigenvalues --    2.08492   2.10838   2.12404   2.13223   2.14660
 Alpha virt. eigenvalues --    2.17203   2.18307   2.19200   2.19851   2.22546
 Alpha virt. eigenvalues --    2.25241   2.25324   2.27038   2.27644   2.31353
 Alpha virt. eigenvalues --    2.31405   2.32813   2.34259   2.35403   2.35816
 Alpha virt. eigenvalues --    2.37897   2.38370   2.40512   2.40735   2.44230
 Alpha virt. eigenvalues --    2.46538   2.50815   2.52124   2.53535   2.56024
 Alpha virt. eigenvalues --    2.57119   2.58880   2.59887   2.61451   2.64039
 Alpha virt. eigenvalues --    2.64443   2.65798   2.66022   2.68253   2.71594
 Alpha virt. eigenvalues --    2.74357   2.75563   2.78326   2.79180   2.79905
 Alpha virt. eigenvalues --    2.80349   2.84633   2.85982   2.88298   2.90703
 Alpha virt. eigenvalues --    2.92064   2.93118   2.93972   2.96437   2.97380
 Alpha virt. eigenvalues --    2.98427   3.00485   3.03979   3.08900   3.13407
 Alpha virt. eigenvalues --    3.13763   3.20313   3.25973   3.32055   3.42794
 Alpha virt. eigenvalues --    3.62366   3.68954
          Condensed to atoms (all electrons):
               1          2          3          4          5          6
     1  C    5.082029   0.293749   0.091670  -0.153774   0.104439   0.233741
     2  C    0.293749   5.179517   0.325156   0.022703  -0.135662   0.087679
     3  C    0.091670   0.325156   5.352922   0.263138  -0.001135  -0.147422
     4  C   -0.153774   0.022703   0.263138   5.734764   0.281447   0.090329
     5  C    0.104439  -0.135662  -0.001135   0.281447   5.190250   0.231562
     6  C    0.233741   0.087679  -0.147422   0.090329   0.231562   5.161848
     7  H    0.454983  -0.064865   0.014652  -0.001200   0.013043  -0.071493
     8  H   -0.060674   0.453428  -0.067341   0.015584  -0.002080   0.013221
     9  H    0.013239  -0.001867   0.014692  -0.078405   0.463930  -0.069259
    10  H   -0.071170   0.013298  -0.001326   0.014501  -0.071553   0.460967
    11  C   -0.001900   0.013786  -0.019813   0.195144  -0.085861   0.018751
    12  C    0.013244  -0.111543   0.216052  -0.040166   0.022279  -0.001707
    13  C   -0.000020  -0.003680  -0.093643  -0.139924   0.028491  -0.000390
    14  C   -0.000383   0.016399   0.032527  -0.024086  -0.005400   0.000120
    15  H    0.000003  -0.000364   0.013565  -0.000855   0.000036   0.000002
    16  O   -0.000032  -0.000065   0.000855  -0.135199   0.013462   0.001648
    17  Cl   0.000074  -0.007129  -0.073748   0.003524  -0.000097   0.000011
    18  C    0.000000   0.000000   0.000004   0.000024   0.000000   0.000000
    19  C    0.000000   0.000000   0.000032  -0.000733   0.000015   0.000000
    20  H    0.000000   0.000000  -0.000001   0.000003   0.000000   0.000000
    21  C    0.000000   0.000000   0.000000   0.000000   0.000000   0.000000
    22  H    0.000000   0.000000   0.000000   0.000000   0.000000   0.000000
    23  H    0.000000   0.000000   0.000000   0.000000   0.000000   0.000000
    24  H    0.000000   0.000000   0.000000   0.000000   0.000000   0.000000
    25  C    0.000000   0.000000   0.000001  -0.000058   0.000000   0.000000
    26  H    0.000000   0.000000  -0.000004   0.000176  -0.000002   0.000000
    27  H    0.000000   0.000000   0.000000   0.000000   0.000000   0.000000
    28  H    0.000000   0.000000   0.000000   0.000003   0.000000   0.000000
    29  C    0.000002   0.000043   0.001743   0.002375  -0.000767   0.000005
    30  H   -0.000001   0.000006   0.001658   0.000350  -0.000213  -0.000003
    31  H    0.000000   0.000002  -0.000236   0.001714   0.000026  -0.000002
    32  H    0.000001   0.000100   0.004482   0.003518  -0.000948   0.000005
               7          8          9         10         11         12
     1  C    0.454983  -0.060674   0.013239  -0.071170  -0.001900   0.013244
     2  C   -0.064865   0.453428  -0.001867   0.013298   0.013786  -0.111543
     3  C    0.014652  -0.067341   0.014692  -0.001326  -0.019813   0.216052
     4  C   -0.001200   0.015584  -0.078405   0.014501   0.195144  -0.040166
     5  C    0.013043  -0.002080   0.463930  -0.071553  -0.085861   0.022279
     6  C   -0.071493   0.013221  -0.069259   0.460967   0.018751  -0.001707
     7  H    0.626682  -0.011008  -0.000202  -0.010802   0.000041  -0.000356
     8  H   -0.011008   0.629121   0.000022  -0.000188  -0.000044  -0.026167
     9  H   -0.000202   0.000022   0.632447  -0.009929  -0.019925  -0.000051
    10  H   -0.010802  -0.000188  -0.009929   0.628257  -0.000353   0.000045
    11  C    0.000041  -0.000044  -0.019925  -0.000353   4.938824  -0.071791
    12  C   -0.000356  -0.026167  -0.000051   0.000045  -0.071791   5.115807
    13  C    0.000000  -0.000080   0.002518   0.000003   0.121695   0.075589
    14  C    0.000002   0.000541  -0.000265   0.000000   0.017928   0.542146
    15  H    0.000000  -0.000010   0.000002   0.000000   0.007655  -0.042061
    16  O    0.000000   0.000001   0.016828  -0.000011   0.756901   0.000226
    17  Cl  -0.000023   0.022620   0.000001   0.000000   0.000186   0.251297
    18  C    0.000000   0.000000   0.000000   0.000000   0.001137  -0.000083
    19  C    0.000000   0.000000   0.000002   0.000000   0.009867  -0.000246
    20  H    0.000000   0.000000   0.000000   0.000000  -0.000642   0.000707
    21  C    0.000000   0.000000   0.000000   0.000000   0.000009   0.000001
    22  H    0.000000   0.000000   0.000000   0.000000   0.000000   0.000000
    23  H    0.000000   0.000000   0.000000   0.000000   0.000001   0.000001
    24  H    0.000000   0.000000   0.000000   0.000000  -0.000004   0.000001
    25  C    0.000000   0.000000   0.000000   0.000000  -0.001189   0.000022
    26  H    0.000000   0.000000  -0.000003   0.000000   0.000283   0.000001
    27  H    0.000000   0.000000   0.000000   0.000000   0.000036   0.000000
    28  H    0.000000   0.000000   0.000000   0.000000  -0.000016   0.000000
    29  C    0.000000   0.000000  -0.000049   0.000000  -0.025530  -0.002549
    30  H    0.000000   0.000000  -0.000002   0.000000   0.001811  -0.001675
    31  H    0.000000   0.000000  -0.000046   0.000000  -0.012738  -0.000146
    32  H    0.000000   0.000001  -0.000055   0.000000   0.020122  -0.007770
              13         14         15         16         17         18
     1  C   -0.000020  -0.000383   0.000003  -0.000032   0.000074   0.000000
     2  C   -0.003680   0.016399  -0.000364  -0.000065  -0.007129   0.000000
     3  C   -0.093643   0.032527   0.013565   0.000855  -0.073748   0.000004
     4  C   -0.139924  -0.024086  -0.000855  -0.135199   0.003524   0.000024
     5  C    0.028491  -0.005400   0.000036   0.013462  -0.000097   0.000000
     6  C   -0.000390   0.000120   0.000002   0.001648   0.000011   0.000000
     7  H    0.000000   0.000002   0.000000   0.000000  -0.000023   0.000000
     8  H   -0.000080   0.000541  -0.000010   0.000001   0.022620   0.000000
     9  H    0.002518  -0.000265   0.000002   0.016828   0.000001   0.000000
    10  H    0.000003   0.000000   0.000000  -0.000011   0.000000   0.000000
    11  C    0.121695   0.017928   0.007655   0.756901   0.000186   0.001137
    12  C    0.075589   0.542146  -0.042061   0.000226   0.251297  -0.000083
    13  C    5.652127   0.077650  -0.050898  -0.111090   0.004188  -0.010119
    14  C    0.077650   5.116049   0.419269   0.005362  -0.077294  -0.003205
    15  H   -0.050898   0.419269   0.607888  -0.000079   0.002128   0.001181
    16  O   -0.111090   0.005362  -0.000079   7.693821   0.000000   0.000168
    17  Cl   0.004188  -0.077294   0.002128   0.000000  16.979631   0.000001
    18  C   -0.010119  -0.003205   0.001181   0.000168   0.000001   5.003315
    19  C   -0.081313   0.000172   0.014035  -0.000297  -0.000033   0.635629
    20  H   -0.004322   0.004919   0.000499  -0.000007  -0.000004  -0.035473
    21  C   -0.000272  -0.000031   0.000039   0.000000   0.000000   0.403219
    22  H   -0.000030   0.000000   0.000010   0.000000   0.000000  -0.022825
    23  H   -0.000011  -0.000014   0.000017   0.000000   0.000000  -0.018745
    24  H    0.000105   0.000024  -0.000085   0.000000   0.000000  -0.022212
    25  C   -0.001924   0.000620   0.000094  -0.000775   0.000000   0.383000
    26  H   -0.005402   0.000683  -0.000016   0.003802   0.000000  -0.001351
    27  H   -0.000044  -0.000011   0.000006   0.000000   0.000000  -0.021664
    28  H    0.000563  -0.000029  -0.000063   0.000001   0.000000  -0.019874
    29  C    0.359798  -0.062890  -0.009245  -0.002247   0.000043  -0.051271
    30  H   -0.033009  -0.002383  -0.000577   0.000160  -0.000095   0.011776
    31  H   -0.030847   0.012285   0.000229   0.015224   0.000002  -0.021363
    32  H    0.299032   0.001474  -0.003501   0.001039  -0.000113   0.006587
              19         20         21         22         23         24
     1  C    0.000000   0.000000   0.000000   0.000000   0.000000   0.000000
     2  C    0.000000   0.000000   0.000000   0.000000   0.000000   0.000000
     3  C    0.000032  -0.000001   0.000000   0.000000   0.000000   0.000000
     4  C   -0.000733   0.000003   0.000000   0.000000   0.000000   0.000000
     5  C    0.000015   0.000000   0.000000   0.000000   0.000000   0.000000
     6  C    0.000000   0.000000   0.000000   0.000000   0.000000   0.000000
     7  H    0.000000   0.000000   0.000000   0.000000   0.000000   0.000000
     8  H    0.000000   0.000000   0.000000   0.000000   0.000000   0.000000
     9  H    0.000002   0.000000   0.000000   0.000000   0.000000   0.000000
    10  H    0.000000   0.000000   0.000000   0.000000   0.000000   0.000000
    11  C    0.009867  -0.000642   0.000009   0.000000   0.000001  -0.000004
    12  C   -0.000246   0.000707   0.000001   0.000000   0.000001   0.000001
    13  C   -0.081313  -0.004322  -0.000272  -0.000030  -0.000011   0.000105
    14  C    0.000172   0.004919  -0.000031   0.000000  -0.000014   0.000024
    15  H    0.014035   0.000499   0.000039   0.000010   0.000017  -0.000085
    16  O   -0.000297  -0.000007   0.000000   0.000000   0.000000   0.000000
    17  Cl  -0.000033  -0.000004   0.000000   0.000000   0.000000   0.000000
    18  C    0.635629  -0.035473   0.403219  -0.022825  -0.018745  -0.022212
    19  C    4.967608   0.413934  -0.063596   0.000940  -0.012014   0.000848
    20  H    0.413934   0.654253  -0.019818   0.000406   0.007030   0.000507
    21  C   -0.063596  -0.019818   4.587747   0.386172   0.393329   0.385920
    22  H    0.000940   0.000406   0.386172   0.621830  -0.019819  -0.023415
    23  H   -0.012014   0.007030   0.393329  -0.019819   0.617019  -0.020274
    24  H    0.000848   0.000507   0.385920  -0.023415  -0.020274   0.622290
    25  C   -0.064261   0.010895  -0.072002  -0.000868   0.007474  -0.001174
    26  H   -0.027422  -0.000057   0.007740  -0.000080  -0.000363  -0.000048
    27  H    0.003908  -0.000345  -0.003349   0.004953  -0.000041  -0.001532
    28  H    0.001978  -0.000312  -0.002794  -0.001490  -0.000084   0.004595
    29  C    0.359066  -0.051798   0.010997  -0.000548   0.000619  -0.000359
    30  H   -0.019598  -0.010969  -0.000287   0.000020  -0.000017   0.000001
    31  H   -0.002198   0.005967   0.000022   0.000056   0.000003  -0.000024
    32  H   -0.012870  -0.000306  -0.000327   0.000011  -0.000004  -0.000002
              25         26         27         28         29         30
     1  C    0.000000   0.000000   0.000000   0.000000   0.000002  -0.000001
     2  C    0.000000   0.000000   0.000000   0.000000   0.000043   0.000006
     3  C    0.000001  -0.000004   0.000000   0.000000   0.001743   0.001658
     4  C   -0.000058   0.000176   0.000000   0.000003   0.002375   0.000350
     5  C    0.000000  -0.000002   0.000000   0.000000  -0.000767  -0.000213
     6  C    0.000000   0.000000   0.000000   0.000000   0.000005  -0.000003
     7  H    0.000000   0.000000   0.000000   0.000000   0.000000   0.000000
     8  H    0.000000   0.000000   0.000000   0.000000   0.000000   0.000000
     9  H    0.000000  -0.000003   0.000000   0.000000  -0.000049  -0.000002
    10  H    0.000000   0.000000   0.000000   0.000000   0.000000   0.000000
    11  C   -0.001189   0.000283   0.000036  -0.000016  -0.025530   0.001811
    12  C    0.000022   0.000001   0.000000   0.000000  -0.002549  -0.001675
    13  C   -0.001924  -0.005402  -0.000044   0.000563   0.359798  -0.033009
    14  C    0.000620   0.000683  -0.000011  -0.000029  -0.062890  -0.002383
    15  H    0.000094  -0.000016   0.000006  -0.000063  -0.009245  -0.000577
    16  O   -0.000775   0.003802   0.000000   0.000001  -0.002247   0.000160
    17  Cl   0.000000   0.000000   0.000000   0.000000   0.000043  -0.000095
    18  C    0.383000  -0.001351  -0.021664  -0.019874  -0.051271   0.011776
    19  C   -0.064261  -0.027422   0.003908   0.001978   0.359066  -0.019598
    20  H    0.010895  -0.000057  -0.000345  -0.000312  -0.051798  -0.010969
    21  C   -0.072002   0.007740  -0.003349  -0.002794   0.010997  -0.000287
    22  H   -0.000868  -0.000080   0.004953  -0.001490  -0.000548   0.000020
    23  H    0.007474  -0.000363  -0.000041  -0.000084   0.000619  -0.000017
    24  H   -0.001174  -0.000048  -0.001532   0.004595  -0.000359   0.000001
    25  C    4.606096   0.379092   0.385104   0.384518  -0.007563   0.000190
    26  H    0.379092   0.626126  -0.020334  -0.021081   0.009108   0.000049
    27  H    0.385104  -0.020334   0.614496  -0.019952  -0.000114   0.000027
    28  H    0.384518  -0.021081  -0.019952   0.613513   0.000697  -0.000045
    29  C   -0.007563   0.009108  -0.000114   0.000697   4.719842   0.368608
    30  H    0.000190   0.000049   0.000027  -0.000045   0.368608   0.652465
    31  H    0.001859   0.003037   0.000409  -0.000360   0.371648  -0.025004
    32  H    0.002519   0.003452   0.000013  -0.000017  -0.012247   0.008411
              31         32
     1  C    0.000000   0.000001
     2  C    0.000002   0.000100
     3  C   -0.000236   0.004482
     4  C    0.001714   0.003518
     5  C    0.000026  -0.000948
     6  C   -0.000002   0.000005
     7  H    0.000000   0.000000
     8  H    0.000000   0.000001
     9  H   -0.000046  -0.000055
    10  H    0.000000   0.000000
    11  C   -0.012738   0.020122
    12  C   -0.000146  -0.007770
    13  C   -0.030847   0.299032
    14  C    0.012285   0.001474
    15  H    0.000229  -0.003501
    16  O    0.015224   0.001039
    17  Cl   0.000002  -0.000113
    18  C   -0.021363   0.006587
    19  C   -0.002198  -0.012870
    20  H    0.005967  -0.000306
    21  C    0.000022  -0.000327
    22  H    0.000056   0.000011
    23  H    0.000003  -0.000004
    24  H   -0.000024  -0.000002
    25  C    0.001859   0.002519
    26  H    0.003037   0.003452
    27  H    0.000409   0.000013
    28  H   -0.000360  -0.000017
    29  C    0.371648  -0.012247
    30  H   -0.025004   0.008411
    31  H    0.626860  -0.006546
    32  H   -0.006546   0.604910
 Mulliken charges:
               1
     1  C    0.000780
     2  C   -0.080690
     3  C    0.071520
     4  C   -0.054896
     5  C   -0.045264
     6  C   -0.009612
     7  H    0.050547
     8  H    0.033055
     9  H    0.036378
    10  H    0.048262
    11  C    0.135629
    12  C    0.068896
    13  C   -0.054739
    14  C   -0.072180
    15  H    0.041097
    16  O   -0.259695
    17  Cl  -0.105170
    18  C   -0.217854
    19  C   -0.123449
    20  H    0.024936
    21  C   -0.012720
    22  H    0.054678
    23  H    0.045895
    24  H    0.054838
    25  C   -0.011669
    26  H    0.042616
    27  H    0.058435
    28  H    0.060252
    29  C    0.022583
    30  H    0.048346
    31  H    0.060167
    32  H    0.089030
 Sum of Mulliken charges =   0.00000
 Mulliken charges with hydrogens summed into heavy atoms:
               1
     1  C    0.051326
     2  C   -0.047635
     3  C    0.071520
     4  C   -0.054896
     5  C   -0.008887
     6  C    0.038650
    11  C    0.135629
    12  C    0.068896
    13  C    0.034291
    14  C   -0.031083
    16  O   -0.259695
    17  Cl  -0.105170
    18  C   -0.217854
    19  C   -0.098514
    21  C    0.142691
    25  C    0.149633
    29  C    0.131096
 Electronic spatial extent (au):  <R**2>=           5534.9173
 Charge=              0.0000 electrons
 Dipole moment (field-independent basis, Debye):
    X=              0.1251    Y=              1.1293    Z=             -0.3035  Tot=              1.1760
 Quadrupole moment (field-independent basis, Debye-Ang):
   XX=            -84.6168   YY=           -114.9149   ZZ=           -109.2690
   XY=             -5.0335   XZ=              3.2983   YZ=              0.4831
 Traceless Quadrupole moment (field-independent basis, Debye-Ang):
   XX=             18.3168   YY=            -11.9814   ZZ=             -6.3354
   XY=             -5.0335   XZ=              3.2983   YZ=              0.4831
 Octapole moment (field-independent basis, Debye-Ang**2):
  XXX=             37.2138  YYY=             20.0664  ZZZ=             -3.0840  XYY=             10.7681
  XXY=            -12.1545  XXZ=            -10.2174  XZZ=            -11.5641  YZZ=              2.9098
  YYZ=              2.6451  XYZ=             -3.3960
 Hexadecapole moment (field-independent basis, Debye-Ang**3):
 XXXX=          -4896.3672 YYYY=          -1742.7559 ZZZZ=           -253.7166 XXXY=            -21.0150
 XXXZ=             73.0036 YYYX=            -28.9153 YYYZ=             -4.5829 ZZZX=             13.1429
 ZZZY=              2.1928 XXYY=          -1131.5082 XXZZ=          -1017.4897 YYZZ=           -332.9656
 XXYZ=              6.1607 YYXZ=             -0.8872 ZZXY=              8.3371
 N-N= 1.235285337536D+03 E-N=-5.082138484523D+03  KE= 1.107372079938D+03
   1 Symmetry operations used in ECPInt.
 ECPInt:  NShTT=   11175 NPrTT=   41031 LenC2=   10159 LenP2D=   26599.
 LDataN:  DoStor=T MaxTD1= 5 Len=  102
 D1PCM: C-PCM CHGder 1st derivatives, ID1Alg=3 FixD1E=F DoIter=F DoCFld=F I1PDM=0.
 Calling FoFJK, ICntrl=      2127 FMM=F ISym2X=0 I1Cent= 0 IOpClX= 0 NMat=1 NMatS=1 NMatT=0.
 ***** Axes restored to original set *****
 -------------------------------------------------------------------
 Center     Atomic                   Forces (Hartrees/Bohr)
 Number     Number              X              Y              Z
 -------------------------------------------------------------------
      1        6           0.000008242    0.000001520    0.000001786
      2        6          -0.000006880    0.000014981    0.000002853
      3        6          -0.000007424    0.000013707   -0.000002713
      4        6          -0.000010720   -0.000018318   -0.000005748
      5        6          -0.000004218   -0.000014063    0.000001142
      6        6           0.000010315   -0.000003133    0.000001355
      7        1          -0.000005441    0.000009805   -0.000000061
      8        1          -0.000004328    0.000007057    0.000000768
      9        1          -0.000010757    0.000004282    0.000000024
     10        1          -0.000005494    0.000004823   -0.000000625
     11        6           0.000007613   -0.000011270    0.000000601
     12        6           0.000003298    0.000021288   -0.000005662
     13        6          -0.000014416    0.000001217    0.000008215
     14        6          -0.000018019    0.000014910   -0.000003423
     15        1          -0.000001823    0.000003432   -0.000003458
     16        8           0.000005433   -0.000015666   -0.000009428
     17       17          -0.000023245    0.000011490    0.000003590
     18        6           0.000005357   -0.000009438   -0.000004186
     19        6          -0.000004988    0.000010250    0.000013545
     20        1           0.000012397    0.000004453    0.000011441
     21        6          -0.000008955    0.000000970   -0.000002012
     22        1           0.000003793   -0.000004191    0.000001988
     23        1           0.000012716   -0.000002375    0.000002648
     24        1           0.000010898   -0.000000420   -0.000000237
     25        6          -0.000004150   -0.000004823   -0.000000479
     26        1           0.000001829   -0.000010811   -0.000011718
     27        1           0.000006404   -0.000010270   -0.000004828
     28        1           0.000009067   -0.000005844   -0.000008942
     29        6           0.000017823   -0.000010210    0.000003350
     30        1           0.000000393    0.000004982    0.000013324
     31        1           0.000007191   -0.000007071    0.000008448
     32        1           0.000008090   -0.000001264   -0.000011558
 -------------------------------------------------------------------
 Cartesian Forces:  Max     0.000023245 RMS     0.000008684

 GradGradGradGradGradGradGradGradGradGradGradGradGradGradGradGradGradGrad
 Berny optimization.
 FormGI is forming the generalized inverse of G from B-inverse, IUseBI=4.
 GSVD:  received Info=                   1 from GESDD.
 Internal  Forces:  Max     0.000119546 RMS     0.000017453
 Search for a local minimum.
 Step number   1 out of a maximum of  179
 All quantities printed in internal units (Hartrees-Bohrs-Radians)
 Mixed Optimization -- En-DIIS/RFO-DIIS
 Second derivative matrix not updated -- first step.
 ITU=  0
     Eigenvalues ---    0.00230   0.00657   0.00695   0.00697   0.00709
     Eigenvalues ---    0.00730   0.01302   0.01400   0.01488   0.01570
     Eigenvalues ---    0.01688   0.01786   0.01877   0.02129   0.02137
     Eigenvalues ---    0.02155   0.02165   0.02168   0.02184   0.02202
     Eigenvalues ---    0.02857   0.04052   0.04080   0.05423   0.05477
     Eigenvalues ---    0.06437   0.06889   0.07080   0.07337   0.07391
     Eigenvalues ---    0.09291   0.12849   0.15997   0.15999   0.16000
     Eigenvalues ---    0.16000   0.16000   0.16000   0.16000   0.16000
     Eigenvalues ---    0.16000   0.16000   0.16000   0.16000   0.17184
     Eigenvalues ---    0.19689   0.21968   0.22000   0.22001   0.22581
     Eigenvalues ---    0.24226   0.24499   0.24999   0.25000   0.25000
     Eigenvalues ---    0.25000   0.25000   0.27423   0.29881   0.30863
     Eigenvalues ---    0.31819   0.31834   0.31901   0.31934   0.33024
     Eigenvalues ---    0.33056   0.33474   0.33492   0.33496   0.33506
     Eigenvalues ---    0.33656   0.33818   0.33925   0.33986   0.34256
     Eigenvalues ---    0.34559   0.34696   0.34698   0.34720   0.34758
     Eigenvalues ---    0.34891   0.39725   0.42090   0.44615   0.45942
     Eigenvalues ---    0.46470   0.46896   0.56061   0.56782   0.98344
 RFO step:  Lambda=-9.86340809D-07 EMin= 2.30000000D-03
 Linear search not attempted -- first point.
 Iteration  1 RMS(Cart)=  0.00496297 RMS(Int)=  0.00000390
 Iteration  2 RMS(Cart)=  0.00000933 RMS(Int)=  0.00000006
 Iteration  3 RMS(Cart)=  0.00000000 RMS(Int)=  0.00000006
 Variable       Old X    -DE/DX   Delta X   Delta X   Delta X     New X
                                 (Linear)    (Quad)   (Total)
    R1        2.63220   0.00002   0.00000   0.00004   0.00004   2.63224
    R2        2.63942   0.00002   0.00000   0.00004   0.00004   2.63946
    R3        2.06171   0.00000   0.00000  -0.00001  -0.00001   2.06170
    R4        2.64538  -0.00001   0.00000  -0.00001  -0.00001   2.64537
    R5        2.05853   0.00000   0.00000   0.00001   0.00001   2.05853
    R6        2.66769   0.00004   0.00000   0.00009   0.00009   2.66779
    R7        2.78462   0.00002   0.00000   0.00006   0.00006   2.78467
    R8        2.64119  -0.00001   0.00000  -0.00002  -0.00002   2.64117
    R9        2.81453  -0.00003   0.00000  -0.00008  -0.00008   2.81445
   R10        2.62761   0.00000   0.00000   0.00001   0.00001   2.62762
   R11        2.06132   0.00000   0.00000   0.00001   0.00001   2.06133
   R12        2.06069  -0.00001   0.00000  -0.00001  -0.00001   2.06068
   R13        2.87082  -0.00001   0.00000  -0.00004  -0.00004   2.87078
   R14        2.29309   0.00001   0.00000   0.00002   0.00002   2.29311
   R15        2.52705  -0.00002   0.00000  -0.00004  -0.00004   2.52701
   R16        3.29975   0.00000   0.00000   0.00001   0.00001   3.29976
   R17        2.82610   0.00000   0.00000  -0.00001  -0.00001   2.82609
   R18        2.93417  -0.00003   0.00000  -0.00011  -0.00011   2.93406
   R19        2.09010   0.00001   0.00000   0.00002   0.00002   2.09012
   R20        2.06397   0.00000   0.00000   0.00001   0.00001   2.06398
   R21        2.53582  -0.00001   0.00000  -0.00002  -0.00002   2.53580
   R22        2.84266  -0.00001   0.00000  -0.00003  -0.00003   2.84262
   R23        2.84449   0.00003   0.00000   0.00009   0.00009   2.84458
   R24        2.06900   0.00001   0.00000   0.00003   0.00003   2.06904
   R25        2.84477  -0.00003   0.00000  -0.00011  -0.00011   2.84466
   R26        2.08196   0.00000   0.00000  -0.00001  -0.00001   2.08195
   R27        2.07457   0.00000   0.00000   0.00001   0.00001   2.07458
   R28        2.08190   0.00000   0.00000   0.00000   0.00000   2.08190
   R29        2.07354   0.00000   0.00000   0.00001   0.00001   2.07355
   R30        2.08172   0.00000   0.00000   0.00000   0.00000   2.08172
   R31        2.08227   0.00001   0.00000   0.00002   0.00002   2.08229
   R32        2.07915   0.00001   0.00000   0.00004   0.00004   2.07919
   R33        2.07638   0.00000   0.00000   0.00001   0.00001   2.07640
    A1        2.10601   0.00001   0.00000   0.00004   0.00004   2.10605
    A2        2.08334  -0.00001   0.00000  -0.00005  -0.00005   2.08329
    A3        2.09383   0.00000   0.00000   0.00001   0.00001   2.09385
    A4        2.10237   0.00000   0.00000  -0.00001  -0.00001   2.10236
    A5        2.09449   0.00001   0.00000   0.00003   0.00003   2.09452
    A6        2.08632   0.00000   0.00000  -0.00001  -0.00001   2.08631
    A7        2.07250  -0.00001   0.00000  -0.00005  -0.00005   2.07245
    A8        2.14252   0.00000   0.00000  -0.00001  -0.00001   2.14251
    A9        2.06817   0.00001   0.00000   0.00006   0.00006   2.06823
   A10        2.09880   0.00002   0.00000   0.00007   0.00007   2.09887
   A11        2.11545   0.00001   0.00000   0.00003   0.00003   2.11548
   A12        2.06893  -0.00002   0.00000  -0.00010  -0.00010   2.06883
   A13        2.10327  -0.00001   0.00000  -0.00004  -0.00004   2.10323
   A14        2.06069  -0.00001   0.00000  -0.00007  -0.00007   2.06062
   A15        2.11923   0.00002   0.00000   0.00010   0.00010   2.11933
   A16        2.08341   0.00000   0.00000  -0.00001  -0.00001   2.08340
   A17        2.09964   0.00001   0.00000   0.00004   0.00004   2.09968
   A18        2.10014   0.00000   0.00000  -0.00003  -0.00003   2.10011
   A19        2.07312  -0.00003   0.00000  -0.00014  -0.00014   2.07298
   A20        2.11977   0.00001   0.00000   0.00004   0.00004   2.11981
   A21        2.09027   0.00002   0.00000   0.00010   0.00010   2.09037
   A22        2.14866  -0.00002   0.00000  -0.00010  -0.00010   2.14856
   A23        2.05002   0.00005   0.00000   0.00019   0.00019   2.05022
   A24        2.08450  -0.00002   0.00000  -0.00009  -0.00009   2.08441
   A25        2.01545   0.00003   0.00000   0.00016   0.00016   2.01561
   A26        1.91298   0.00000   0.00000   0.00007   0.00007   1.91304
   A27        1.83550  -0.00001   0.00000  -0.00002  -0.00002   1.83548
   A28        1.94897  -0.00003   0.00000  -0.00016  -0.00016   1.94881
   A29        1.88345  -0.00001   0.00000  -0.00018  -0.00018   1.88327
   A30        1.85707   0.00002   0.00000   0.00013   0.00013   1.85720
   A31        2.14524   0.00000   0.00000  -0.00003  -0.00003   2.14521
   A32        2.08948   0.00000   0.00000   0.00000   0.00000   2.08948
   A33        2.04843   0.00000   0.00000   0.00003   0.00003   2.04846
   A34        2.11967  -0.00005   0.00000  -0.00018  -0.00018   2.11948
   A35        2.15708   0.00002   0.00000   0.00006   0.00006   2.15715
   A36        2.00642   0.00003   0.00000   0.00012   0.00012   2.00653
   A37        2.05794   0.00002   0.00000   0.00011   0.00011   2.05805
   A38        2.18489  -0.00001   0.00000  -0.00006  -0.00006   2.18483
   A39        2.04007  -0.00001   0.00000  -0.00008  -0.00008   2.03999
   A40        1.92947   0.00001   0.00000   0.00007   0.00007   1.92954
   A41        1.95091  -0.00002   0.00000  -0.00014  -0.00014   1.95076
   A42        1.92942  -0.00001   0.00000  -0.00007  -0.00007   1.92935
   A43        1.89556   0.00001   0.00000   0.00007   0.00007   1.89562
   A44        1.86070   0.00001   0.00000   0.00011   0.00011   1.86081
   A45        1.89506   0.00001   0.00000  -0.00003  -0.00003   1.89503
   A46        1.98013   0.00001   0.00000   0.00007   0.00007   1.98020
   A47        1.92398   0.00001   0.00000   0.00008   0.00008   1.92406
   A48        1.91993   0.00000   0.00000   0.00000   0.00000   1.91994
   A49        1.89008  -0.00001   0.00000  -0.00005  -0.00005   1.89003
   A50        1.88640  -0.00001   0.00000  -0.00012  -0.00012   1.88628
   A51        1.85891   0.00000   0.00000   0.00001   0.00001   1.85892
   A52        1.97142  -0.00012   0.00000  -0.00059  -0.00059   1.97084
   A53        1.88842   0.00005   0.00000   0.00025   0.00025   1.88866
   A54        1.86525   0.00002   0.00000   0.00006   0.00006   1.86531
   A55        1.92204   0.00001   0.00000  -0.00007  -0.00007   1.92198
   A56        1.94370   0.00005   0.00000   0.00032   0.00032   1.94402
   A57        1.86887  -0.00002   0.00000   0.00006   0.00006   1.86894
    D1       -0.00109   0.00000   0.00000   0.00001   0.00001  -0.00108
    D2       -3.14158   0.00000   0.00000  -0.00004  -0.00004   3.14156
    D3        3.14098   0.00000   0.00000   0.00003   0.00003   3.14101
    D4        0.00049   0.00000   0.00000  -0.00002  -0.00002   0.00048
    D5        0.00259   0.00000   0.00000   0.00002   0.00002   0.00260
    D6       -3.13871   0.00000   0.00000   0.00004   0.00004  -3.13866
    D7       -3.13949   0.00000   0.00000  -0.00001  -0.00001  -3.13950
    D8        0.00240   0.00000   0.00000   0.00002   0.00002   0.00242
    D9       -0.00198   0.00000   0.00000  -0.00003  -0.00003  -0.00201
   D10        3.14010   0.00000   0.00000  -0.00013  -0.00013   3.13996
   D11        3.13851   0.00000   0.00000   0.00002   0.00002   3.13853
   D12       -0.00260   0.00000   0.00000  -0.00008  -0.00008  -0.00268
   D13        0.00357   0.00000   0.00000   0.00003   0.00003   0.00360
   D14       -3.13947   0.00000   0.00000  -0.00014  -0.00014  -3.13962
   D15       -3.13848   0.00000   0.00000   0.00013   0.00013  -3.13836
   D16        0.00166   0.00000   0.00000  -0.00005  -0.00005   0.00161
   D17        3.14000   0.00001   0.00000   0.00045   0.00045   3.14046
   D18       -0.00002   0.00000   0.00000   0.00015   0.00015   0.00013
   D19       -0.00111   0.00000   0.00000   0.00035   0.00035  -0.00076
   D20       -3.14113   0.00000   0.00000   0.00005   0.00005  -3.14108
   D21       -0.00212   0.00000   0.00000   0.00000   0.00000  -0.00212
   D22        3.14007   0.00000   0.00000  -0.00010  -0.00010   3.13998
   D23        3.14089   0.00000   0.00000   0.00016   0.00016   3.14105
   D24       -0.00011   0.00000   0.00000   0.00007   0.00007  -0.00004
   D25       -0.01432   0.00000   0.00000  -0.00051  -0.00051  -0.01483
   D26        3.13580   0.00000   0.00000  -0.00036  -0.00036   3.13543
   D27        3.12584  -0.00001   0.00000  -0.00068  -0.00068   3.12516
   D28       -0.00722   0.00000   0.00000  -0.00053  -0.00053  -0.00776
   D29       -0.00097   0.00000   0.00000  -0.00002  -0.00002  -0.00099
   D30        3.14032   0.00000   0.00000  -0.00005  -0.00005   3.14028
   D31        3.14000   0.00000   0.00000   0.00008   0.00008   3.14008
   D32       -0.00189   0.00000   0.00000   0.00005   0.00005  -0.00184
   D33        0.02489   0.00000   0.00000   0.00075   0.00075   0.02565
   D34       -2.19427   0.00002   0.00000   0.00079   0.00079  -2.19348
   D35        2.09881   0.00000   0.00000   0.00062   0.00062   2.09943
   D36       -3.12508   0.00000   0.00000   0.00061   0.00061  -3.12447
   D37        0.93895   0.00002   0.00000   0.00065   0.00065   0.93959
   D38       -1.05116   0.00000   0.00000   0.00047   0.00047  -1.05069
   D39        0.01397   0.00000   0.00000  -0.00007  -0.00007   0.01391
   D40       -3.13652   0.00000   0.00000  -0.00017  -0.00017  -3.13669
   D41       -3.12923   0.00000   0.00000   0.00024   0.00024  -3.12898
   D42        0.00347   0.00000   0.00000   0.00014   0.00014   0.00361
   D43       -0.02546   0.00000   0.00000  -0.00049  -0.00049  -0.02596
   D44        3.12483   0.00000   0.00000  -0.00039  -0.00039   3.12444
   D45        2.17546   0.00000   0.00000  -0.00041  -0.00041   2.17505
   D46       -0.95743   0.00000   0.00000  -0.00031  -0.00031  -0.95774
   D47       -2.07267   0.00000   0.00000  -0.00044  -0.00044  -2.07312
   D48        1.07763   0.00000   0.00000  -0.00034  -0.00034   1.07728
   D49       -2.95341  -0.00001   0.00000  -0.00406  -0.00406  -2.95747
   D50        1.19735   0.00001   0.00000  -0.00376  -0.00376   1.19359
   D51       -0.80992  -0.00001   0.00000  -0.00399  -0.00399  -0.81391
   D52        1.07375  -0.00003   0.00000  -0.00420  -0.00420   1.06955
   D53       -1.05867  -0.00001   0.00000  -0.00391  -0.00391  -1.06258
   D54       -3.06594  -0.00003   0.00000  -0.00413  -0.00413  -3.07008
   D55       -0.97725  -0.00001   0.00000  -0.00398  -0.00398  -0.98123
   D56       -3.10967   0.00001   0.00000  -0.00369  -0.00369  -3.11336
   D57        1.16624  -0.00001   0.00000  -0.00391  -0.00391   1.16233
   D58       -0.01031   0.00000   0.00000  -0.00012  -0.00012  -0.01043
   D59       -3.12532   0.00003   0.00000   0.00152   0.00152  -3.12380
   D60        3.12536  -0.00001   0.00000  -0.00114  -0.00114   3.12422
   D61        0.01035   0.00001   0.00000   0.00050   0.00050   0.01085
   D62       -2.12070   0.00000   0.00000  -0.00049  -0.00049  -2.12119
   D63       -0.00687   0.00000   0.00000  -0.00045  -0.00045  -0.00732
   D64        2.10630  -0.00001   0.00000  -0.00063  -0.00063   2.10567
   D65        1.02633   0.00001   0.00000   0.00045   0.00045   1.02678
   D66        3.14017   0.00001   0.00000   0.00049   0.00049   3.14065
   D67       -1.02985   0.00000   0.00000   0.00031   0.00031  -1.02954
   D68        0.03014   0.00000   0.00000   0.00054   0.00054   0.03068
   D69        2.15318   0.00001   0.00000   0.00058   0.00058   2.15377
   D70       -2.08516   0.00001   0.00000   0.00064   0.00064  -2.08452
   D71       -3.11702  -0.00001   0.00000  -0.00042  -0.00042  -3.11744
   D72       -0.99398  -0.00001   0.00000  -0.00038  -0.00038  -0.99436
   D73        1.05086   0.00000   0.00000  -0.00032  -0.00032   1.05054
   D74        1.40780  -0.00004   0.00000  -0.00321  -0.00321   1.40459
   D75       -2.76193  -0.00004   0.00000  -0.00334  -0.00334  -2.76527
   D76       -0.69137  -0.00002   0.00000  -0.00311  -0.00311  -0.69448
   D77       -1.70746  -0.00001   0.00000  -0.00159  -0.00159  -1.70905
   D78        0.40600  -0.00001   0.00000  -0.00172  -0.00172   0.40428
   D79        2.47656   0.00001   0.00000  -0.00148  -0.00148   2.47507
         Item               Value     Threshold  Converged?
 Maximum Force            0.000120     0.000450     YES
 RMS     Force            0.000017     0.000300     YES
 Maximum Displacement     0.014789     0.001800     NO 
 RMS     Displacement     0.004966     0.001200     NO 
 Predicted change in Energy=-4.931642D-07
 GradGradGradGradGradGradGradGradGradGradGradGradGradGradGradGradGradGrad

                          Input orientation:                          
 ---------------------------------------------------------------------
 Center     Atomic      Atomic             Coordinates (Angstroms)
 Number     Number       Type             X           Y           Z
 ---------------------------------------------------------------------
      1          6           0        4.370998   -0.330149    0.058577
      2          6           0        3.398653    0.665021   -0.007836
[...]
 003495,0.00002204,-0.00003868,-0.00001742,-0.00000256,0.00000656,0.000
 02455,-0.00000159,-0.00000362,-0.00000011,0.00000021,0.00000071,-0.000
 00222,0.00000009,0.00000728,-0.00000129,0.00000097,-0.00000558,0.00000
 154,0.00000011,0.00026816,-0.00023786,-0.00002132,-0.00001320,0.000045
 77,0.00000602,0.00001271,-0.00008090,0.00010848,-0.00003915,0.00010184
 ,-0.00007488,0.00000179,0.00000464,-0.00000450,-0.00009029,0.00013711,
 -0.00000391,-0.00004393,-0.00009615,0.00000264,-0.00158992,-0.00144104
 ,-0.00351648,0.00128791,-0.00066007,0.00126385,-0.00010222,-0.00018207
 ,-0.00012823,0.00037491,0.00075847,-0.00007836,0.00025811,-0.00011379,
 0.00021209,0.00016202,0.00001338,-0.00023703,-0.00000145,0.00005082,-0
 .00000451,-0.23396524,-0.11315915,0.05158318,-0.01665606,-0.01309125,0
 .00553556,0.24826165,-0.00000084,-0.00000353,-0.00000045,-0.00001357,0
 .00000949,0.00000374,0.00000760,-0.00000982,0.00000159,-0.00003907,0.0
 0003940,-0.00006887,-0.00001403,-0.00001657,0.00000202,-0.00000541,0.0
 0000745,0.00000479,-0.00000177,0.00000021,-0.00000049,0.00000025,-0.00
 000152,0.00000045,0.00000386,0.00000008,-0.00000137,-0.00000385,0.0000
 0077,-0.00000128,-0.00000192,-0.00020534,0.00012625,0.00001491,0.00006
 711,-0.00001212,-0.00026754,0.00039893,-0.00001381,0.00006345,0.000032
 41,0.00007666,0.00005124,0.00005303,-0.00002475,-0.00000805,0.00012086
 ,0.00002505,-0.00001697,-0.00003969,-0.00001028,-0.02189525,-0.0128840
 2,0.00485305,0.00192398,-0.00271217,-0.00142327,0.00020902,0.00066657,
 -0.00166336,-0.00042507,0.00117487,0.00025615,0.00059364,-0.00043870,-
 0.00022621,0.00010561,0.00039977,-0.00014041,-0.00004966,0.00001166,-0
 .00002602,-0.11449150,-0.11643169,0.03022646,0.01556113,0.01110801,-0.
 00523938,0.12575360,0.12423318,0.00000226,-0.00001027,0.00000002,-0.00
 001963,0.00000749,0.00000048,0.00002427,-0.00001581,0.00000254,-0.0000
 1506,0.00002248,-0.00002495,-0.00001535,-0.00000876,0.00000078,0.00000
 073,0.00001016,0.00000235,-0.00000163,-0.00000005,-0.00000029,-0.00000
 002,-0.00000077,0.00000017,0.00000297,0.00000008,-0.00000064,-0.000002
 34,0.00000046,-0.00000081,0.00005285,-0.00012305,0.00007363,-0.0000161
 8,0.00003081,-0.00000472,-0.00011831,0.00013473,-0.00005629,0.00001968
 ,0.00004382,-0.00001335,0.00002562,0.00002333,-0.00000716,-0.00001398,
 0.00007150,0.00000280,-0.00001363,-0.00003376,-0.00000186,-0.01937835,
 -0.01224789,0.00339936,0.00114879,-0.00223499,-0.00123997,0.00024834,0
 .00057716,-0.00159558,-0.00040834,0.00083603,0.00037873,0.00036502,0.0
 0005597,0.00001106,-0.00007107,0.00022892,-0.00010234,0.00010459,0.000
 06544,-0.00003906,0.04995049,0.02972830,-0.05330753,-0.00366368,-0.002
 66284,-0.00011945,-0.05326011,-0.02878887,0.05781429,-0.00000273,0.000
 00613,-0.00000013,0.00000632,-0.00000207,0.00000367,-0.00000910,0.0000
 1196,-0.00000446,-0.00001797,-0.00000631,-0.00001597,0.00000535,-0.000
 00485,-0.00000134,-0.00000479,-0.00000518,0.00000087,-0.00000003,-0.00
 000004,-0.00000045,-0.00000036,-0.00000025,-0.00000036,0.00000155,-0.0
 0000073,-0.00000035,-0.00000049,-0.00000003,0.00000022,0.00005526,0.00
 009219,0.00002365,0.00002200,-0.00000815,-0.00000436,0.00023045,0.0001
 0303,-0.00015139,-0.00002787,0.00000640,0.00006834,-0.00000007,-0.0000
 1186,-0.00000171,-0.00009804,-0.00003233,0.00001809,-0.00000169,-0.000
 00257,-0.00000459,-0.00181247,-0.00068560,-0.00456269,0.00016880,-0.00
 000855,-0.00011551,-0.00025934,-0.00031981,0.00008998,-0.00003987,0.00
 021437,0.00026536,0.00004829,-0.00000775,0.00009673,-0.00006291,-0.000
 09555,-0.00002572,0.00009678,0.00017401,0.00012701,-0.04345075,0.00852
 090,-0.01679751,-0.00033177,0.00568865,-0.02374847,0.00219359,-0.00691
 412,0.02534063,0.04318576,0.00000237,-0.00001044,-0.00000019,-0.000018
 71,0.00001021,-0.00000232,0.00001791,-0.00002331,0.00000817,0.00000156
 ,0.00000639,-0.00002578,-0.00001073,-0.00000265,0.00000165,0.00000223,
 0.00000947,0.00000144,-0.00000180,0.00000023,0.00000029,0.00000065,-0.
 00000052,0.00000037,0.00000094,0.00000024,-0.00000058,-0.00000131,0.00
 000058,-0.00000065,0.00005525,-0.00012448,0.00004619,-0.00001587,0.000
 05972,0.00000126,-0.00007708,-0.00009567,0.00005158,0.00003519,0.00000
 434,0.00002835,0.00000693,0.00004664,-0.00002955,0.00002577,0.00006194
 ,0.00001348,-0.00001224,-0.00003099,-0.00000526,-0.00190868,0.00833526
 ,-0.02797066,0.00032267,-0.00320805,-0.00098443,-0.00141513,-0.0012038
 8,0.00119961,-0.00045571,0.00093092,0.00034370,-0.00004222,-0.00003237
 ,0.00005584,-0.00025176,0.00016529,0.00023946,0.00020970,-0.00031534,0
 .00025941,0.00783508,-0.06563537,0.07396847,-0.00092759,-0.00506296,0.
 01667701,0.00206460,-0.00493701,0.01468344,-0.00596166,0.07020520,-0.0
 0000054,-0.00000858,0.00000040,-0.00002570,0.00001220,-0.00000002,0.00
 002406,-0.00001686,0.00000043,-0.00005003,0.00005298,-0.00002582,-0.00
 002331,-0.00002325,-0.00000111,-0.00000747,0.00001503,0.00000168,-0.00
 000248,0.00000025,-0.00000064,0.00000038,-0.00000125,-0.00000052,0.000
 00595,0.00000069,-0.00000056,-0.00000325,-0.00000068,-0.00000053,0.000
 04084,-0.00020746,0.00004773,0.00001462,0.00007148,-0.00000383,-0.0001
 7962,0.00013011,-0.00012458,-0.00000453,0.00004674,0.00005432,0.000029
 71,0.00005507,-0.00002625,-0.00005935,0.00010184,0.00002111,-0.0000303
 7,-0.00006717,-0.00000432,-0.00338168,0.00278399,-0.01773986,0.0020545
 0,-0.00195574,-0.00023150,-0.00088210,-0.00078075,0.00048758,-0.000576
 71,0.00063010,0.00081506,-0.00008134,0.00004564,0.00002335,-0.00017607
 ,-0.00016782,0.00034785,0.00046527,-0.00031172,0.00014256,-0.01662826,
 0.07650680,-0.29075722,0.00040644,-0.00035081,-0.00070335,-0.00090914,
 0.00123261,-0.00560506,0.01970148,-0.07793001,0.31357913,-0.00017516,0
 .00055865,-0.00002495,0.00087476,-0.00028981,0.00018264,-0.00144524,0.
 00133469,-0.00002469,-0.00140747,0.00196277,-0.00149005,-0.00002216,-0
 .00043609,-0.00016017,-0.00035519,-0.00025179,0.00009710,0.00002399,-0
 .00000175,-0.00001824,-0.00001067,0.00000601,0.00002981,0.00000897,0.0
 0000092,-0.00001750,-0.00003555,-0.00002946,-0.00002285,-0.02471241,0.
 00974315,0.01930045,0.00387715,-0.00067706,0.00091712,-0.09238056,-0.0
 0264864,0.04383344,-0.01343164,-0.01281885,0.00860506,0.00031801,0.001
 05875,-0.00075832,-0.00207467,-0.00718368,0.00055471,0.00001049,0.0004
 3234,-0.00033824,-0.02488852,0.01372724,-0.00793009,-0.17760719,0.0767
 4161,-0.01548491,0.00184852,-0.00065120,-0.00330072,0.00275097,0.00062
 892,-0.00442066,0.00043185,-0.00026121,0.00012074,0.00016803,-0.000113
 47,0.00015340,-0.00120515,0.00034690,-0.00011730,-0.00021631,-0.000568
 38,0.00385696,-0.00127462,-0.00021882,-0.00105499,-0.00010599,0.000019
 77,-0.00022941,-0.00006925,0.00088433,0.00051183,0.48631216,0.00032899
 ,-0.00054393,0.00000765,-0.00065770,0.00032768,-0.00024936,0.00142079,
 -0.00123392,0.00079321,0.00260411,-0.00189852,0.00232226,-0.00024335,0
 .00083228,0.00008532,0.00053117,0.00048471,-0.00019397,-0.00002098,0.0
 0001510,0.00003926,0.00010447,0.00001060,0.00001081,-0.00016310,0.0000
 4072,0.00005949,0.00010579,0.00002539,0.00001322,0.00861989,0.00714950
 ,-0.01858628,0.00066479,-0.00189386,0.00002937,-0.00815797,-0.07732703
 ,0.01446634,-0.02452008,-0.00500466,0.02389222,0.00067746,0.00071376,-
 0.00072040,0.00122735,-0.00315170,0.00171361,-0.00112298,-0.00205149,-
 0.00176948,-0.00002134,0.00834483,0.00453724,0.07604647,-0.13945495,-0
 .00247427,0.02058721,-0.00955870,0.00352334,0.00077494,0.00291746,-0.0
 0579455,0.00063570,-0.00012605,0.00056546,-0.00026535,0.00021940,0.000
 17116,-0.00121625,0.00066054,-0.00022280,-0.00201759,-0.00130179,0.001
 52043,-0.00105447,-0.00042355,-0.00103781,0.00054573,-0.00090773,-0.00
 031540,-0.00037002,0.00040275,0.00003527,0.00817775,0.58870408,0.00012
 632,-0.00059747,0.00000880,-0.00103287,0.00029050,0.00000314,0.0015655
 2,-0.00089960,0.00048647,-0.00116370,0.00113621,-0.00239279,-0.0007591
 8,-0.00033071,0.00022156,0.00013740,0.00046433,0.00016179,-0.00004643,
 -0.00000966,-0.00001165,-0.00001292,-0.00003127,-0.00000531,0.00011637
 ,0.00000409,-0.00007170,-0.00009724,0.00001353,-0.00004880,0.00383099,
 -0.01115528,0.00050654,-0.00293317,-0.00002188,-0.00080841,0.03990546,
 0.01062488,-0.12171465,0.00318082,0.00742458,0.00031178,-0.00001579,-0
 .00052010,0.00063239,0.00168052,0.00498335,0.00103563,-0.00043204,-0.0
 0109677,-0.00028128,-0.01512727,0.01078189,0.00223393,-0.02110279,0.00
 208616,-0.07952191,0.01070082,-0.00688343,0.00350274,-0.00564823,-0.00
 573325,0.00566408,-0.00163857,0.00120872,-0.00057386,0.00011542,0.0002
 1231,0.00004090,0.00143313,-0.00058674,0.00022799,0.00159064,0.0026159
 4,-0.00501242,-0.00164983,-0.00001707,-0.00075961,-0.00015750,0.000718
 39,0.00053551,-0.00074615,-0.00044860,-0.00016783,0.08131599,0.0331998
 6,0.51268072,-0.00000124,0.00001677,0.00000033,0.00006018,-0.00003563,
 0.00001731,-0.00017261,0.00000630,-0.00006220,0.00023760,-0.00003240,0
 .00000928,-0.00004121,0.00004452,-0.00004762,0.00001777,0.00000723,0.0
 0000188,0.00000448,-0.00000010,-0.00000041,-0.00000165,0.00000345,0.00
 000004,-0.00000692,-0.00000245,0.00000202,0.00000580,-0.00000240,0.000
 00491,0.00141187,-0.00078765,0.00081884,-0.00011948,-0.00001956,-0.000
 36531,0.00743596,0.00396295,0.02047701,0.00165837,0.00109228,-0.000086
 05,-0.00002505,-0.00011057,0.00002055,0.00020196,0.00034904,-0.0005303
 9,0.00003443,0.00013829,0.00006053,-0.00217786,0.00369124,0.00024966,-
 0.01298631,-0.00664634,-0.02306572,0.00075555,-0.00026444,0.00063172,-
 0.00094373,-0.00089674,0.00003013,-0.00038775,0.00026752,-0.00005834,0
 .00004639,0.00007259,0.00005013,-0.00007908,0.00010149,-0.00007078,0.0
 0008009,0.00057222,-0.00019015,-0.00000353,0.00014277,0.00022477,-0.00
 006564,-0.00011126,-0.00003388,-0.00017989,-0.00004913,-0.00013696,-0.
 10424227,-0.02428606,-0.10969149,0.11584174,-0.00002542,0.00003227,0.0
 0000044,0.00006642,-0.00003826,-0.00000146,-0.00017783,0.00013246,0.00
 003420,0.00005876,0.00000398,0.00001486,0.00005682,-0.00002378,0.00002
 429,-0.00001392,-0.00005148,-0.00000430,0.00000612,-0.00000105,0.00000
 055,-0.00000885,0.00000111,0.00000126,-0.00000262,0.00000176,-0.000001
 59,0.00000076,-0.00000176,-0.00000438,-0.00002699,-0.00005498,-0.00025
 061,-0.00006525,-0.00000241,-0.00025058,0.00130524,0.00003249,0.005612
 15,0.00105595,0.00041730,0.00101763,0.00001814,0.00000086,-0.00001718,
 0.00061407,-0.00016371,0.00000813,0.00009654,0.00021019,-0.00000570,0.
 00219692,-0.00228695,-0.00037415,0.01037451,0.00315977,0.01829514,-0.0
 0047088,0.00086647,0.00019139,0.00068655,0.00077175,-0.00026682,0.0003
 2055,-0.00020593,0.00001350,-0.00002291,-0.00002757,-0.00002734,-0.000
 03420,-0.00001245,0.00003503,0.00004390,-0.00048391,-0.00056792,-0.000
 25535,0.00042386,0.00026371,-0.00005845,0.00014821,0.00000886,-0.00028
 622,0.00021073,0.00003252,-0.02564340,-0.06062241,-0.04987098,0.023867
 82,0.06011290,-0.00001822,0.00010328,-0.00001241,0.00016470,-0.0000276
 5,0.00001790,-0.00012294,0.00014875,-0.00009726,0.00009124,-0.00011889
 ,-0.00017312,0.00012967,0.00003574,-0.00002260,-0.00004834,-0.00006722
 ,0.00001363,0.00000424,0.00000248,0.00000025,0.00000660,0.00000465,-0.
 00000089,-0.00002641,0.00000694,-0.00000086,0.00001560,-0.00000240,-0.
 00000357,-0.00150563,0.00191844,-0.00052220,0.00054442,0.00007716,0.00
 043006,-0.00604729,-0.00420677,-0.02114492,-0.00138190,-0.00148898,0.0
 0064672,0.00007674,0.00013105,-0.00012540,0.00025626,-0.00122127,0.000
 18374,0.00007082,0.00006822,-0.00014784,0.00017772,0.00088072,0.000566
 10,0.00055292,-0.00137556,-0.00015229,0.00011301,-0.00009514,0.0007812
 7,-0.00007461,-0.00017112,-0.00009369,-0.00007540,0.00004308,-0.000013
 96,0.00000245,0.00000645,-0.00000026,-0.00006300,0.00004596,-0.0000289
 9,0.00019406,0.00007221,0.00013936,0.00003542,0.00009370,0.00000487,-0
 .00005721,0.00000269,-0.00001580,0.00000373,-0.00004463,-0.00002782,-0
 .11091956,-0.04656829,-0.24602029,0.11387043,0.05070796,0.26704548,0.0
 0016278,-0.00028911,0.00001151,-0.00038148,0.00016312,-0.00004351,0.00
 085566,-0.00064197,0.00024823,0.00083531,0.00029685,0.00005598,-0.0003
 7507,0.00020417,0.00002836,0.00020244,0.00033704,-0.00000403,-0.000014
 79,0.00000476,0.00000463,0.00003765,0.00000261,0.00000631,-0.00006697,
 0.00003565,-0.00000680,0.00001359,0.00000491,-0.00001100,-0.00207573,-
 0.00431579,0.00004646,-0.00023075,-0.00008377,-0.00001251,-0.00825733,
 -0.01874248,0.00199874,-0.00259803,0.00113578,0.00354320,0.00011705,0.
 00000367,-0.00009543,0.00087514,0.00193085,-0.00049388,-0.00036268,-0.
 00071051,-0.00035752,0.00104474,0.00027532,0.00087264,0.00582805,0.026
 32158,0.00083376,-0.00286292,0.00237600,-0.00062766,-0.00054514,-0.000
 69959,0.00063768,-0.00031256,0.00003275,-0.00007913,0.00009091,-0.0000
 2969,-0.00001882,0.00010462,0.00006995,0.00005273,-0.00055437,-0.00004
 908,-0.00046884,-0.00059720,0.00001557,-0.00152665,-0.00023287,0.00005
 530,-0.00005570,0.00041521,-0.00028557,0.00003198,-0.05747339,-0.06204
 645,-0.00462126,-0.00381739,-0.01286596,0.00072309,0.06923497,-0.00000
 281,0.00008874,-0.00000514,0.00006844,-0.00000067,0.00000775,-0.000091
 94,0.00001959,-0.00001397,-0.00022391,0.00000534,-0.00005114,0.0000842
 7,-0.00006909,-0.00000604,-0.00008846,-0.00001134,0.00001536,-0.000006
 55,0.00000355,-0.00000599,0.00000603,-0.00000441,-0.00001331,0.0000015
 9,0.00001437,-0.00001266,-0.00000656,0.,0.00001056,0.00100822,-0.00174
 118,-0.00000398,0.00039570,-0.00011594,0.00023902,-0.00289603,-0.00469
 331,0.00001940,-0.00061931,0.00069314,0.00114157,0.00007320,0.00001187
 ,-0.00020005,0.00259895,0.00025189,-0.00133345,-0.00008397,-0.00016252
 ,-0.00005694,-0.00106146,0.00005278,-0.00213751,-0.00067505,-0.0145019
 6,-0.00152025,0.00156093,-0.00097252,0.00136983,0.00031680,0.00026571,
 -0.00013168,0.00010311,-0.00007154,0.00004161,-0.00004096,0.00006849,0
 .00005533,-0.00004047,-0.00000886,0.00006638,-0.00030823,-0.00014625,-
 0.00003667,-0.00051989,0.00087368,-0.00022387,-0.00044765,0.00023697,-
 0.00008648,-0.00011583,0.00026148,0.00008385,-0.06556591,-0.30659451,-
 0.00237044,-0.00044158,-0.00317782,0.00042836,0.06714903,0.32898682,-0
 .00009354,0.00017637,-0.00000940,0.00025558,-0.00012226,0.00001713,-0.
 00058546,0.00044145,-0.00019205,-0.00046732,-0.00010106,0.00013358,0.0
 0019030,-0.00012117,-0.00003713,-0.00010184,-0.00019879,0.00000038,0.0
 0001131,-0.00000424,-0.00000275,-0.00002927,0.00000072,-0.00000667,0.0
 0004810,-0.00002693,0.00000409,-0.00000905,-0.00000416,0.00000992,0.00
 100256,0.00207424,0.00067310,0.00038013,0.00053077,0.00031158,0.009395
 07,0.02396244,-0.00269170,0.00339337,-0.00124771,-0.00338174,-0.000160
 19,-0.00010925,-0.00000309,-0.00108065,-0.00082448,-0.00024990,0.00036
 188,0.00060412,0.00031323,-0.00058891,-0.00000423,-0.00004522,0.002962
 21,0.00140661,-0.00022892,0.00027290,-0.00033973,0.00039634,-0.0000900
 2,-0.00026764,0.00011383,-0.00008323,0.00000310,-0.00000495,0.00002948
 ,-0.00002494,-0.00000184,0.00002991,0.00002711,0.00004091,-0.00095408,
 0.00050294,-0.00003322,-0.00119650,-0.00026419,-0.00164360,-0.00004489
 ,0.00002853,-0.00005273,0.00043645,-0.00020067,0.00009838,-0.00624581,
 -0.00536291,-0.04537086,-0.00582643,-0.02561108,0.00139306,-0.00014312
 ,0.00477992,0.04928950,0.00000735,-0.00004772,0.00000863,-0.00004087,-
 0.00001367,-0.00021560,0.00004428,0.00040822,-0.00024797,-0.00174603,0
 .00227598,0.00255549,-0.00053565,-0.00040227,-0.00017810,-0.00005727,0
 .00016480,-0.00022973,-0.00001153,-0.00000384,0.00002653,-0.00000367,-
 0.00001322,-0.00002277,0.00003985,0.00002168,0.00008295,-0.00008197,-0
 .00000876,0.00007865,-0.01412075,-0.00189560,-0.02012359,0.00211743,-0
 .00078343,0.00030758,-0.10396259,-0.01728319,-0.12154623,-0.00827258,-
 0.00563108,-0.00808148,0.00019825,-0.00006245,0.00042877,0.00140215,-0
 .00188801,0.00245743,-0.00045363,-0.00050460,0.00043222,-0.00017137,-0
 .00001794,-0.00001199,0.00161417,0.00064918,0.00090909,0.00009430,-0.0
 0010581,-0.00006763,-0.00002921,0.00001237,-0.00004399,0.00007878,-0.0
 0003831,0.00000412,0.00004083,-0.00006049,-0.00001734,0.00006041,-0.00
 004127,0.00003095,-0.00036313,0.00017186,-0.00019018,-0.00068701,-0.00
 091206,0.00036494,0.00012669,-0.00010349,0.00003043,-0.00005997,-0.000
 02998,-0.00012817,0.00650852,0.00311110,0.02117705,-0.00254059,-0.0008
 1083,0.00330738,0.00094049,-0.00012971,-0.00106892,0.11986433,0.000248
 83,-0.00035407,0.00003772,-0.00051217,0.00025581,0.00017877,0.00108435
 ,-0.00083178,-0.00059011,0.00195867,-0.00135149,-0.00171739,-0.0001762
 3,0.00048623,-0.00011715,0.00030240,0.00041761,0.00018675,-0.00002634,
 0.00001177,-0.00003699,0.00008470,0.00000216,0.00001145,-0.00008730,0.
 00003041,-0.00006534,0.00006431,0.00001701,-0.00001698,0.00903201,0.00
 308061,0.01974219,0.00088864,-0.00174827,0.00005953,-0.01858979,-0.051
 33817,-0.03765692,-0.01899296,-0.00672652,-0.02481255,0.00070389,0.000
 76514,0.00092203,0.00038865,-0.00069981,-0.00237682,-0.00114749,-0.001
 87670,0.00155084,0.00014615,0.00031593,0.00003466,-0.00015770,-0.00058
 059,-0.00064377,0.00005672,0.00004258,-0.00005223,-0.00004802,-0.00010
 284,-0.00002186,-0.00003495,0.00001746,-0.00000279,0.00001146,-0.00000
 985,0.00000061,-0.00000924,0.00001413,-0.00001478,-0.00014558,0.000364
 70,-0.00002665,-0.00056871,-0.00048390,0.00028202,0.00010080,-0.000121
 18,-0.00000006,0.00002183,-0.00002834,-0.00001505,0.00173571,0.0012460
 1,0.00480850,-0.00065018,0.00062835,0.00061007,0.00034505,0.00043749,0
 .00029708,0.02397252,0.05812011,-0.00006251,0.00019701,-0.00001075,0.0
 0029089,-0.00004513,0.00003325,-0.00046401,0.00038724,0.00008864,0.000
 12167,0.00057101,-0.00112369,0.00006424,-0.00011827,0.00007775,-0.0001
 2506,-0.00008038,0.00007459,-0.00000018,0.00000297,-0.00000402,0.00000
 226,-0.00000168,-0.00002012,0.00000085,0.00001550,-0.00003823,-0.00000
 638,-0.00000878,-0.00001347,-0.00077885,-0.00108290,-0.00107487,0.0016
 0383,-0.00010203,-0.00033142,-0.11588163,-0.03613697,-0.22459289,0.000
 40870,-0.00099013,0.00295383,-0.00026560,-0.00020274,0.00037751,0.0005
 6360,-0.00012338,0.00142094,-0.00002523,0.00010019,-0.00034630,0.00048
 704,-0.00004878,0.00047195,-0.00210709,0.00058005,0.00087273,-0.000145
 94,-0.00000335,0.00014753,0.00009199,0.00007136,-0.00010571,-0.0000217
 9,0.00002326,0.00001356,-0.00002608,0.00004078,0.00001436,-0.00005112,
 0.00006142,-0.00003557,0.00012181,-0.00032403,0.00046839,0.00021330,0.
 00037333,0.00011960,-0.00023108,0.00008251,-0.00003414,0.00000495,0.00
 006361,-0.00019874,-0.00692081,-0.00369000,-0.02549260,0.00369619,0.00
 099249,-0.00261828,-0.00052945,-0.00004936,0.00116074,0.11997148,0.039
 44518,0.24774543\\0.00000244,-0.00001752,0.00000146,-0.00000531,-0.000
 00667,-0.00000058,-0.00000042,0.00000934,0.00000189,-0.00000604,0.0000
 0652,0.00000802,0.00000141,-0.00000792,0.00000209,0.00000742,-0.000002
 15,0.00000019,-0.00000113,-0.00000045,-0.00000035,-0.00000339,0.000003
 71,0.00000016,-0.00001056,0.00000436,-0.00000078,-0.00000270,-0.000002
 93,-0.00000037,-0.00000169,-0.00000926,-0.00004712,0.00001861,0.000013
 75,-0.00000265,-0.00001858,0.00001092,0.00003451,-0.00000873,-0.000001
 50,0.00000046,0.00000625,-0.00000200,-0.00000339,-0.00000956,-0.000004
 59,0.00001682,0.00000790,-0.00001190,-0.00000495,0.00002814,0.00001940
 ,-0.00004166,-0.00002632,0.00001187,-0.00000469,0.00000089,-0.00000385
 ,0.00001459,-0.00002414,0.00000497,-0.00000559,-0.00000298,0.00001021,
 0.00000051,0.00001024,-0.00000120,0.00000284,0.00001111,0.00000285,0.0
 0000311,-0.00000858,0.00000888,0.00001985,-0.00000170,-0.00001007,-0.0
 0000213,0.00000631,-0.00000677,0.00000746,-0.00000228,0.00000513,-0.00
 000076,0.00001243,-0.00001834,0.00000102,0.00000437,-0.00000205,0.0000
 0092,0.00000674,-0.00000730,0.00001096,0.00000985,0.00000455,-0.000011
 84\\\@


 YOU WILL NEVER "FIND" TIME FOR ANYTHING.
 IF YOU WANT TIME, YOU MUST MAKE IT.

                        -- CHARLES BIXTON
 Job cpu time:       0 days  1 hours 22 minutes 25.5 seconds.
 File lengths (MBytes):  RWF=    418 Int=      0 D2E=      0 Chk=     17 Scr=      1
 Normal termination of Gaussian 09 at Wed Sep  9 12:38:44 2020.
