 Entering Gaussian System, Link 0=g09
 Input=m062x_sm_claisen_PM6_toluene_water_gd3.com
 Output=m062x_sm_claisen_PM6_toluene_water_gd3.log
 Initial command:
 /apps/applications/gaussian/G09.D01/2/default/g09/l1.exe "/local/730606.1.40core-192G.q/Gau-69344.inp" -scrdir="/local/730606.1.40core-192G.q/"
 Entering Link 1 = /apps/applications/gaussian/G09.D01/2/default/g09/l1.exe PID=     69345.
  
 Copyright (c) 1988,1990,1992,1993,1995,1998,2003,2009,2013,
            Gaussian, Inc.  All Rights Reserved.
  
 This is part of the Gaussian(R) 09 program.  It is based on
 the Gaussian(R) 03 system (copyright 2003, Gaussian, Inc.),
 the Gaussian(R) 98 system (copyright 1998, Gaussian, Inc.),
 the Gaussian(R) 94 system (copyright 1995, Gaussian, Inc.),
 the Gaussian 92(TM) system (copyright 1992, Gaussian, Inc.),
 the Gaussian 90(TM) system (copyright 1990, Gaussian, Inc.),
 the Gaussian 88(TM) system (copyright 1988, Gaussian, Inc.),
 the Gaussian 86(TM) system (copyright 1986, Carnegie Mellon
 University), and the Gaussian 82(TM) system (copyright 1983,
 Carnegie Mellon University). Gaussian is a federally registered
 trademark of Gaussian, Inc.
  
 This software contains proprietary and confidential information,
 including trade secrets, belonging to Gaussian, Inc.
  
 This software is provided under written license and may be
 used, copied, transmitted, or stored only in accord with that
 written license.
  
 The following legend is applicable only to US Government
 contracts under FAR:
  
                    RESTRICTED RIGHTS LEGEND
  
 Use, reproduction and disclosure by the US Government is
 subject to restrictions as set forth in subparagraphs (a)
 and (c) of the Commercial Computer Software - Restricted
 Rights clause in FAR 52.227-19.
  
 Gaussian, Inc.
 340 Quinnipiac St., Bldg. 40, Wallingford CT 06492
  
  
 ---------------------------------------------------------------
 Warning -- This program may not be used in any manner that
 competes with the business of Gaussian, Inc. or will provide
 assistance to any competitor of Gaussian, Inc.  The licensee
 of this program is prohibited from giving any competitor of
 Gaussian, Inc. access to this program.  By using this program,
 the user acknowledges that Gaussian, Inc. is engaged in the
 business of creating and licensing software in the field of
 computational chemistry and represents and warrants to the
 licensee that it is not a competitor of Gaussian, Inc. and that
 it will not use this program in any manner prohibited above.
 ---------------------------------------------------------------
  

 Cite this work as:
 Gaussian 09, Revision D.01,
 M. J. Frisch, G. W. Trucks, H. B. Schlegel, G. E. Scuseria, 
 M. A. Robb, J. R. Cheeseman, G. Scalmani, V. Barone, B. Mennucci, 
 G. A. Petersson, H. Nakatsuji, M. Caricato, X. Li, H. P. Hratchian, 
 A. F. Izmaylov, J. Bloino, G. Zheng, J. L. Sonnenberg, M. Hada, 
 M. Ehara, K. Toyota, R. Fukuda, J. Hasegawa, M. Ishida, T. Nakajima, 
 Y. Honda, O. Kitao, H. Nakai, T. Vreven, J. A. Montgomery, Jr., 
 J. E. Peralta, F. Ogliaro, M. Bearpark, J. J. Heyd, E. Brothers, 
 K. N. Kudin, V. N. Staroverov, T. Keith, R. Kobayashi, J. Normand, 
 K. Raghavachari, A. Rendell, J. C. Burant, S. S. Iyengar, J. Tomasi, 
 M. Cossi, N. Rega, J. M. Millam, M. Klene, J. E. Knox, J. B. Cross, 
 V. Bakken, C. Adamo, J. Jaramillo, R. Gomperts, R. E. Stratmann, 
 O. Yazyev, A. J. Austin, R. Cammi, C. Pomelli, J. W. Ochterski, 
 R. L. Martin, K. Morokuma, V. G. Zakrzewski, G. A. Voth, 
 P. Salvador, J. J. Dannenberg, S. Dapprich, A. D. Daniels, 
 O. Farkas, J. B. Foresman, J. V. Ortiz, J. Cioslowski, 
 and D. J. Fox, Gaussian, Inc., Wallingford CT, 2013.
 
 ******************************************
 Gaussian 09:  ES64L-G09RevD.01 24-Apr-2013
                 9-Sep-2020 
 ******************************************
 %nprocshared=4
 Will use up to    4 processors via shared memory.
 %chk=m062x_sm_claisen_PM6_toluene_water_gd3.chk
 ----------------------------------------------------------------------
 # opt freq scrf=(cpcm,solvent=water) geom=connectivity def2svp m062x e
 mpiricaldispersion=gd3
 ----------------------------------------------------------------------
 1/14=-1,18=20,19=15,26=3,38=1,57=2/1,3;
 2/9=110,12=2,17=6,18=5,40=1/2;
 3/5=43,7=101,11=2,16=1,25=1,30=1,70=2101,71=1,72=1,74=-55,124=31/1,2,3;
 4//1;
 5/5=2,38=5,53=1/2;
 6/7=2,8=2,9=2,10=2,28=1/1;
 7//1,2,3,16;
 1/14=-1,18=20,19=15,26=3/3(2);
 2/9=110/2;
 99//99;
 2/9=110/2;
 3/5=43,7=101,11=2,16=1,25=1,30=1,70=2105,71=1,72=1,74=-55,124=31/1,2,3;
 4/5=5,16=3,69=1/1;
 5/5=2,38=5,53=1/2;
 7//1,2,3,16;
 1/14=-1,18=20,19=15,26=3/3(-5);
 2/9=110/2;
 6/7=2,8=2,9=2,10=2,19=2,28=1/1;
 99/9=1/99;
 -------------------
 Title Card Required
 -------------------
 Symbolic Z-matrix:
 Charge =  0 Multiplicity = 1
 C                    -2.83647   2.49693   0.15415 
 C                    -3.01595   1.1363    0.07097 
 C                    -1.90032   0.25848   0.01307 
 C                    -0.5871    0.81384   0.04227 
 C                    -0.43413   2.22321   0.12508 
 C                    -1.53343   3.04764   0.18085 
 H                    -3.70465   3.15612   0.19746 
 H                    -4.0194    0.7119    0.04864 
 H                     0.57477   2.63321   0.14328 
 H                    -1.40239   4.12872   0.24408 
 C                     0.56047  -0.05129  -0.01039 
 C                    -2.02609  -1.16017  -0.07575 
 C                     0.38237  -1.41692  -0.0838 
 H                     1.23366  -2.09201  -0.09147 
 C                    -0.92071  -1.96745  -0.12353 
 H                    -1.04383  -3.04892  -0.18451 
 O                     1.74496   0.59211   0.05198 
 Cl                   -3.6142   -1.88697  -0.11777 
 C                     3.00363   0.01365  -0.32749 
 C                     3.48299  -0.99772   0.69295 
 H                     4.32796  -1.61344   0.36627 
 C                     2.9501   -0.57102  -1.74069 
 H                     3.97103  -0.82157  -2.05956 
 H                     2.34122  -1.47933  -1.81295 
 H                     2.5459    0.18198  -2.43193 
 C                     3.96142   1.2065   -0.31127 
 H                     3.93124   1.68773   0.6753 
 H                     4.98806   0.87303  -0.51253 
 H                     3.66449   1.93504  -1.07911 
 C                     2.99678  -1.12408   1.92542 
 H                     3.41603  -1.84613   2.62831 
 H                     2.1563   -0.51219   2.26399 
 

 GradGradGradGradGradGradGradGradGradGradGradGradGradGradGradGradGradGrad
 Berny optimization.
 Initialization pass.
                           ----------------------------
                           !    Initial Parameters    !
                           ! (Angstroms and Degrees)  !
 --------------------------                            --------------------------
 ! Name  Definition              Value          Derivative Info.                !
 --------------------------------------------------------------------------------
 ! R1    R(1,2)                  1.3749         estimate D2E/DX2                !
 ! R2    R(1,6)                  1.4149         estimate D2E/DX2                !
 ! R3    R(1,7)                  1.0909         estimate D2E/DX2                !
 ! R4    R(2,3)                  1.4208         estimate D2E/DX2                !
 ! R5    R(2,8)                  1.0897         estimate D2E/DX2                !
 ! R6    R(3,4)                  1.4261         estimate D2E/DX2                !
 ! R7    R(3,12)                 1.427          estimate D2E/DX2                !
 ! R8    R(4,5)                  1.4201         estimate D2E/DX2                !
 ! R9    R(4,11)                 1.4381         estimate D2E/DX2                !
 ! R10   R(5,6)                  1.3752         estimate D2E/DX2                !
 ! R11   R(5,9)                  1.0892         estimate D2E/DX2                !
 ! R12   R(6,10)                 1.0908         estimate D2E/DX2                !
 ! R13   R(11,13)                1.3792         estimate D2E/DX2                !
 ! R14   R(11,17)                1.3494         estimate D2E/DX2                !
 ! R15   R(12,15)                1.3696         estimate D2E/DX2                !
 ! R16   R(12,18)                1.747          estimate D2E/DX2                !
 ! R17   R(13,14)                1.0865         estimate D2E/DX2                !
 ! R18   R(13,15)                1.4152         estimate D2E/DX2                !
 ! R19   R(15,16)                1.0902         estimate D2E/DX2                !
 ! R20   R(17,19)                1.4363         estimate D2E/DX2                !
 ! R21   R(19,20)                1.5146         estimate D2E/DX2                !
 ! R22   R(19,22)                1.5303         estimate D2E/DX2                !
 ! R23   R(19,26)                1.5299         estimate D2E/DX2                !
 ! R24   R(20,21)                1.0954         estimate D2E/DX2                !
 ! R25   R(20,30)                1.3309         estimate D2E/DX2                !
 ! R26   R(22,23)                1.0985         estimate D2E/DX2                !
 ! R27   R(22,24)                1.0959         estimate D2E/DX2                !
 ! R28   R(22,25)                1.0992         estimate D2E/DX2                !
 ! R29   R(26,27)                1.0981         estimate D2E/DX2                !
 ! R30   R(26,28)                1.098          estimate D2E/DX2                !
 ! R31   R(26,29)                1.0993         estimate D2E/DX2                !
 ! R32   R(30,31)                1.0914         estimate D2E/DX2                !
 ! R33   R(30,32)                1.0934         estimate D2E/DX2                !
 ! A1    A(2,1,6)              120.4333         estimate D2E/DX2                !
 ! A2    A(2,1,7)              119.7669         estimate D2E/DX2                !
 ! A3    A(6,1,7)              119.7996         estimate D2E/DX2                !
 ! A4    A(1,2,3)              120.7561         estimate D2E/DX2                !
 ! A5    A(1,2,8)              120.4538         estimate D2E/DX2                !
 ! A6    A(3,2,8)              118.79           estimate D2E/DX2                !
 ! A7    A(2,3,4)              118.7922         estimate D2E/DX2                !
 ! A8    A(2,3,12)             123.2006         estimate D2E/DX2                !
 ! A9    A(4,3,12)             118.0071         estimate D2E/DX2                !
 ! A10   A(3,4,5)              119.1353         estimate D2E/DX2                !
 ! A11   A(3,4,11)             119.9858         estimate D2E/DX2                !
 ! A12   A(5,4,11)             120.8789         estimate D2E/DX2                !
 ! A13   A(4,5,6)              120.7453         estimate D2E/DX2                !
 ! A14   A(4,5,9)              118.3169         estimate D2E/DX2                !
 ! A15   A(6,5,9)              120.9378         estimate D2E/DX2                !
 ! A16   A(1,6,5)              120.1374         estimate D2E/DX2                !
 ! A17   A(1,6,10)             119.8328         estimate D2E/DX2                !
 ! A18   A(5,6,10)             120.0296         estimate D2E/DX2                !
 ! A19   A(4,11,13)            119.642          estimate D2E/DX2                !
 ! A20   A(4,11,17)            114.326          estimate D2E/DX2                !
 ! A21   A(13,11,17)           126.0117         estimate D2E/DX2                !
 ! A22   A(3,12,15)            121.1321         estimate D2E/DX2                !
 ! A23   A(3,12,18)            119.6837         estimate D2E/DX2                !
 ! A24   A(15,12,18)           119.1837         estimate D2E/DX2                !
 ! A25   A(11,13,14)           120.9602         estimate D2E/DX2                !
 ! A26   A(11,13,15)           120.3725         estimate D2E/DX2                !
 ! A27   A(14,13,15)           118.6552         estimate D2E/DX2                !
 ! A28   A(12,15,13)           120.8555         estimate D2E/DX2                !
 ! A29   A(12,15,16)           119.704          estimate D2E/DX2                !
 ! A30   A(13,15,16)           119.4384         estimate D2E/DX2                !
 ! A31   A(11,17,19)           124.4028         estimate D2E/DX2                !
 ! A32   A(17,19,20)           111.6106         estimate D2E/DX2                !
 ! A33   A(17,19,22)           111.5431         estimate D2E/DX2                !
 ! A34   A(17,19,26)           103.4036         estimate D2E/DX2                !
 ! A35   A(20,19,22)           112.2187         estimate D2E/DX2                !
 ! A36   A(20,19,26)           108.3829         estimate D2E/DX2                !
 ! A37   A(22,19,26)           109.2437         estimate D2E/DX2                !
 ! A38   A(19,20,21)           114.7441         estimate D2E/DX2                !
 ! A39   A(19,20,30)           124.8679         estimate D2E/DX2                !
 ! A40   A(21,20,30)           120.3062         estimate D2E/DX2                !
 ! A41   A(19,22,23)           108.8253         estimate D2E/DX2                !
 ! A42   A(19,22,24)           113.3899         estimate D2E/DX2                !
 ! A43   A(19,22,25)           109.3824         estimate D2E/DX2                !
 ! A44   A(23,22,24)           107.9499         estimate D2E/DX2                !
 ! A45   A(23,22,25)           108.3887         estimate D2E/DX2                !
 ! A46   A(24,22,25)           108.7851         estimate D2E/DX2                !
 ! A47   A(19,26,27)           109.513          estimate D2E/DX2                !
 ! A48   A(19,26,28)           110.2798         estimate D2E/DX2                !
 ! A49   A(19,26,29)           109.8902         estimate D2E/DX2                !
 ! A50   A(27,26,28)           108.8726         estimate D2E/DX2                !
 ! A51   A(27,26,29)           109.2495         estimate D2E/DX2                !
 ! A52   A(28,26,29)           109.0123         estimate D2E/DX2                !
 ! A53   A(20,30,31)           121.2558         estimate D2E/DX2                !
 ! A54   A(20,30,32)           120.9604         estimate D2E/DX2                !
 ! A55   A(31,30,32)           117.7817         estimate D2E/DX2                !
 ! D1    D(6,1,2,3)              0.1283         estimate D2E/DX2                !
 ! D2    D(6,1,2,8)           -179.8938         estimate D2E/DX2                !
 ! D3    D(7,1,2,3)            179.9838         estimate D2E/DX2                !
 ! D4    D(7,1,2,8)             -0.0383         estimate D2E/DX2                !
 ! D5    D(2,1,6,5)             -0.0707         estimate D2E/DX2                !
 ! D6    D(2,1,6,10)           179.8229         estimate D2E/DX2                !
 ! D7    D(7,1,6,5)           -179.9261         estimate D2E/DX2                !
 ! D8    D(7,1,6,10)            -0.0325         estimate D2E/DX2                !
 ! D9    D(1,2,3,4)             -0.0225         estimate D2E/DX2                !
 ! D10   D(1,2,3,12)          -179.9103         estimate D2E/DX2                !
 ! D11   D(8,2,3,4)            179.9992         estimate D2E/DX2                !
 ! D12   D(8,2,3,12)             0.1115         estimate D2E/DX2                !
 ! D13   D(2,3,4,5)             -0.1378         estimate D2E/DX2                !
 ! D14   D(2,3,4,11)           179.79           estimate D2E/DX2                !
 ! D15   D(12,3,4,5)           179.7558         estimate D2E/DX2                !
 ! D16   D(12,3,4,11)           -0.3163         estimate D2E/DX2                !
 ! D17   D(2,3,12,15)         -179.7239         estimate D2E/DX2                !
 ! D18   D(2,3,12,18)            0.0106         estimate D2E/DX2                !
 ! D19   D(4,3,12,15)            0.3875         estimate D2E/DX2                !
 ! D20   D(4,3,12,18)         -179.878          estimate D2E/DX2                !
 ! D21   D(3,4,5,6)              0.197          estimate D2E/DX2                !
 ! D22   D(3,4,5,9)           -179.8062         estimate D2E/DX2                !
 ! D23   D(11,4,5,6)          -179.7302         estimate D2E/DX2                !
 ! D24   D(11,4,5,9)             0.2667         estimate D2E/DX2                !
 ! D25   D(3,4,11,13)           -0.2505         estimate D2E/DX2                !
 ! D26   D(3,4,11,17)         -178.7075         estimate D2E/DX2                !
 ! D27   D(5,4,11,13)          179.6761         estimate D2E/DX2                !
 ! D28   D(5,4,11,17)            1.2191         estimate D2E/DX2                !
 ! D29   D(4,5,6,1)             -0.0938         estimate D2E/DX2                !
 ! D30   D(4,5,6,10)          -179.9872         estimate D2E/DX2                !
 ! D31   D(9,5,6,1)            179.9094         estimate D2E/DX2                !
 ! D32   D(9,5,6,10)             0.016          estimate D2E/DX2                !
 ! D33   D(4,11,13,14)        -177.9603         estimate D2E/DX2                !
 ! D34   D(4,11,13,15)           0.7564         estimate D2E/DX2                !
 ! D35   D(17,11,13,14)          0.3014         estimate D2E/DX2                !
 ! D36   D(17,11,13,15)        179.0182         estimate D2E/DX2                !
 ! D37   D(4,11,17,19)        -162.8815         estimate D2E/DX2                !
 ! D38   D(13,11,17,19)         18.7765         estimate D2E/DX2                !
 ! D39   D(3,12,15,13)           0.109          estimate D2E/DX2                !
 ! D40   D(3,12,15,16)         179.5904         estimate D2E/DX2                !
 ! D41   D(18,12,15,13)       -179.6269         estimate D2E/DX2                !
 ! D42   D(18,12,15,16)         -0.1454         estimate D2E/DX2                !
 ! D43   D(11,13,15,12)         -0.6979         estimate D2E/DX2                !
 ! D44   D(11,13,15,16)        179.8193         estimate D2E/DX2                !
 ! D45   D(14,13,15,12)        178.0481         estimate D2E/DX2                !
 ! D46   D(14,13,15,16)         -1.4347         estimate D2E/DX2                !
 ! D47   D(11,17,19,20)        -73.527          estimate D2E/DX2                !
 ! D48   D(11,17,19,22)         52.8908         estimate D2E/DX2                !
 ! D49   D(11,17,19,26)        170.1707         estimate D2E/DX2                !
 ! D50   D(17,19,20,21)        168.3853         estimate D2E/DX2                !
 ! D51   D(17,19,20,30)        -14.9105         estimate D2E/DX2                !
 ! D52   D(22,19,20,21)         42.3379         estimate D2E/DX2                !
 ! D53   D(22,19,20,30)       -140.9579         estimate D2E/DX2                !
 ! D54   D(26,19,20,21)        -78.3867         estimate D2E/DX2                !
 ! D55   D(26,19,20,30)         98.3175         estimate D2E/DX2                !
 ! D56   D(17,19,22,23)        169.1024         estimate D2E/DX2                !
 ! D57   D(17,19,22,24)        -70.751          estimate D2E/DX2                !
 ! D58   D(17,19,22,25)         50.8566         estimate D2E/DX2                !
 ! D59   D(20,19,22,23)        -64.8135         estimate D2E/DX2                !
 ! D60   D(20,19,22,24)         55.3331         estimate D2E/DX2                !
 ! D61   D(20,19,22,25)        176.9407         estimate D2E/DX2                !
 ! D62   D(26,19,22,23)         55.4127         estimate D2E/DX2                !
 ! D63   D(26,19,22,24)        175.5593         estimate D2E/DX2                !
 ! D64   D(26,19,22,25)        -62.8331         estimate D2E/DX2                !
 ! D65   D(17,19,26,27)         55.7989         estimate D2E/DX2                !
 ! D66   D(17,19,26,28)        175.5874         estimate D2E/DX2                !
 ! D67   D(17,19,26,29)        -64.2126         estimate D2E/DX2                !
 ! D68   D(20,19,26,27)        -62.7665         estimate D2E/DX2                !
 ! D69   D(20,19,26,28)         57.022          estimate D2E/DX2                !
 ! D70   D(20,19,26,29)        177.2221         estimate D2E/DX2                !
 ! D71   D(22,19,26,27)        174.6812         estimate D2E/DX2                !
 ! D72   D(22,19,26,28)        -65.5304         estimate D2E/DX2                !
 ! D73   D(22,19,26,29)         54.6697         estimate D2E/DX2                !
 ! D74   D(19,20,30,31)       -177.329          estimate D2E/DX2                !
 ! D75   D(19,20,30,32)          3.222          estimate D2E/DX2                !
 ! D76   D(21,20,30,31)         -0.7963         estimate D2E/DX2                !
 ! D77   D(21,20,30,32)        179.7548         estimate D2E/DX2                !
 --------------------------------------------------------------------------------
 Trust Radius=3.00D-01 FncErr=1.00D-07 GrdErr=1.00D-06
 Number of steps in this run=    175 maximum allowed number of steps=    192.
 GradGradGradGradGradGradGradGradGradGradGradGradGradGradGradGradGradGrad

                          Input orientation:                          
 ---------------------------------------------------------------------
 Center     Atomic      Atomic             Coordinates (Angstroms)
 Number     Number       Type             X           Y           Z
 ---------------------------------------------------------------------
      1          6           0       -2.836471    2.496930    0.154149
      2          6           0       -3.015954    1.136302    0.070966
      3          6           0       -1.900321    0.258482    0.013069
      4          6           0       -0.587095    0.813844    0.042270
      5          6           0       -0.434125    2.223213    0.125084
      6          6           0       -1.533432    3.047636    0.180853
      7          1           0       -3.704653    3.156121    0.197462
      8          1           0       -4.019395    0.711904    0.048638
      9          1           0        0.574772    2.633207    0.143284
     10          1           0       -1.402392    4.128723    0.244081
     11          6           0        0.560472   -0.051286   -0.010393
     12          6           0       -2.026094   -1.160174   -0.075746
     13          6           0        0.382368   -1.416916   -0.083804
     14          1           0        1.233659   -2.092010   -0.091473
     15          6           0       -0.920710   -1.967451   -0.123526
     16          1           0       -1.043831   -3.048918   -0.184513
     17          8           0        1.744955    0.592110    0.051976
     18         17           0       -3.614198   -1.886971   -0.117774
     19          6           0        3.003634    0.013646   -0.327489
     20          6           0        3.482991   -0.997715    0.692952
     21          1           0        4.327960   -1.613436    0.366272
     22          6           0        2.950099   -0.571020   -1.740693
     23          1           0        3.971027   -0.821567   -2.059561
     24          1           0        2.341216   -1.479325   -1.812950
     25          1           0        2.545898    0.181983   -2.431926
     26          6           0        3.961418    1.206504   -0.311267
     27          1           0        3.931240    1.687730    0.675296
     28          1           0        4.988056    0.873034   -0.512532
     29          1           0        3.664491    1.935039   -1.079114
     30          6           0        2.996778   -1.124080    1.925420
     31          1           0        3.416031   -1.846134    2.628314
     32          1           0        2.156303   -0.512185    2.263995
 ---------------------------------------------------------------------
                    Distance matrix (angstroms):
                    1          2          3          4          5
     1  C    0.000000
     2  C    1.374933   0.000000
     3  C    2.430418   1.420759   0.000000
     4  C    2.811581   2.450338   1.426128   0.000000
     5  C    2.418064   2.801811   2.454067   1.420063   0.000000
     6  C    1.414885   2.421393   2.818180   2.429935   1.375231
     7  H    1.090939   2.137750   3.418468   3.902501   3.401751
     8  H    2.144005   1.089728   2.167333   3.433819   3.891537
     9  H    3.413981   3.890921   3.432544   2.161069   1.089174
    10  H    2.174263   3.404135   3.908972   3.419629   2.140717
    11  C    4.249671   3.769325   2.480324   1.438101   2.486146
    12  C    3.752862   2.505025   1.426987   2.445689   3.744597
    13  C    5.073040   4.253407   2.833198   2.435579   3.736420
    14  H    6.138783   5.339250   3.918874   3.431766   4.631366
    15  C    4.865998   3.749821   2.435790   2.806134   4.226137
    16  H    5.838209   4.633638   3.422208   3.896276   5.316292
    17  O    4.962685   4.791947   3.660718   2.342588   2.722909
    18  Cl   4.460649   3.087669   2.749084   4.059971   5.202447
    19  C    6.364393   6.136331   4.921859   3.697347   4.111593
    20  C    7.241440   6.868565   5.569589   4.502303   5.103004
    21  H    8.262516   7.847378   6.513088   5.491305   6.120090
    22  C    6.818148   6.464584   5.224015   4.196254   4.768840
    23  H    7.890181   7.562427   6.319417   5.279085   5.783487
    24  H    6.818249   6.252193   4.934061   4.156377   5.016700
    25  H    6.404425   6.173280   5.074713   4.041849   4.425546
    26  C    6.934919   6.988186   5.946757   4.579098   4.532648
    27  H    6.835811   6.995198   6.040563   4.645401   4.432368
    28  H    8.019023   8.029568   6.935681   5.603001   5.624019
    29  H    6.640720   6.825614   5.913615   4.537683   4.281564
    30  C    7.090551   6.685901   5.436004   4.488424   5.120222
    31  H    8.004841   7.536935   6.287489   5.457850   6.135914
    32  H    6.199517   5.854838   4.702850   3.771027   4.332166
                    6          7          8          9         10
     6  C    0.000000
     7  H    2.173993   0.000000
     8  H    3.413669   2.468888   0.000000
     9  H    2.148880   4.311595   4.980636   0.000000
    10  H    1.090834   2.499707   4.308312   2.481110   0.000000
    11  C    3.744907   5.340595   4.643396   2.688926   4.624940
    12  C    4.244317   4.639246   2.737407   4.604587   5.335141
    13  C    4.865445   6.139668   4.891312   4.061045   5.834980
    14  H    5.843536   7.212024   5.956185   4.776706   6.764531
    15  C    5.061539   5.839894   4.100053   4.844967   6.126213
    16  H    6.127085   6.762277   4.801263   5.917252   7.199360
    17  O    4.098053   6.024412   5.765596   2.354515   4.738178
    18  Cl   5.363685   5.053744   2.635532   6.168276   6.419626
    19  C    5.481649   7.426428   7.067671   3.603207   6.055875
    20  C    6.464643   8.316375   7.721641   4.684385   7.095690
    21  H    7.491054   9.343449   8.671011   5.671871   8.113215
    22  C    6.073637   7.869800   7.308998   4.411192   6.706049
    23  H    7.091492   8.934888   8.404932   5.321892   7.660664
    24  H    6.283432   7.879191   6.980284   4.884680   7.049552
    25  H    5.628456   7.404631   7.038259   4.065162   6.190861
    26  C    5.815954   7.926440   8.004220   3.702900   6.133370
    27  H    5.653004   7.790466   8.034770   3.527441   5.881498
    28  H    6.909376   9.015529   9.026353   4.796392   7.211782
    29  H    5.462947   7.577927   7.861933   3.395300   5.677711
    30  C    6.400745   8.137268   7.491317   4.812414   7.054895
    31  H    7.378091   9.035250   8.275497   5.857698   8.037455
    32  H    5.534072   7.216497   6.674238   4.110006   6.187276
                   11         12         13         14         15
    11  C    0.000000
    12  C    2.815000   0.000000
    13  C    1.379150   2.422121   0.000000
    14  H    2.150421   3.390362   1.086511   0.000000
    15  C    2.424539   1.369618   1.415160   2.158205   0.000000
    16  H    3.404395   2.131672   2.169704   2.472102   1.090160
    17  O    1.349388   4.160243   2.431309   2.736147   3.699719
    18  Cl   4.561704   1.747019   4.024257   4.852262   2.694696
    19  C    2.464509   5.171015   2.996152   2.760852   4.400775
    20  C    3.151434   5.564828   3.223809   2.621507   4.582533
    21  H    4.095870   6.385517   3.976039   3.164374   5.283348
    22  C    2.995727   5.280308   3.170814   2.824801   4.421358
    23  H    4.052691   6.325791   4.139629   3.602857   5.384271
    24  H    2.908532   4.710959   2.613604   2.136714   3.705750
    25  H    3.140088   5.315645   3.570857   3.517206   4.686806
    26  C    3.638543   6.442588   4.443385   4.285927   5.826183
    27  H    3.854403   6.645634   4.775935   4.706518   6.126980
    28  H    4.550825   7.315943   5.161399   4.802528   6.567587
    29  H    3.837002   6.555139   4.795683   4.806402   6.096445
    30  C    3.291481   5.406960   3.310268   2.848392   4.500685
    31  H    4.282344   6.115489   4.091812   3.495775   5.137574
    32  H    2.816371   4.835982   3.078562   2.982507   4.157651
                   16         17         18         19         20
    16  H    0.000000
    17  O    4.592422   0.000000
    18  Cl   2.821588   5.907214   0.000000
    19  C    5.077570   1.436275   6.888543   0.000000
    20  C    5.046731   2.441140   7.198482   1.514574   0.000000
    21  H    5.587496   3.411031   7.961595   2.209647   1.095356
    22  C    4.951076   2.453346   6.888802   1.530309   2.527582
    23  H    5.798767   3.378234   7.901978   2.152557   2.800988
    24  H    4.071114   2.850319   6.205381   2.207794   2.795558
    25  H    5.326888   2.641871   6.898018   2.160212   3.469106
    26  C    6.570936   2.328548   8.185169   1.529877   2.468994
    27  H    6.922892   2.523639   8.386959   2.160692   2.722656
    28  H    7.202289   3.303830   9.042800   2.170419   2.686655
    29  H    6.914364   2.601431   8.277152   2.166431   3.431356
    30  C    4.948064   2.832342   6.961440   2.523899   1.330920
    31  H    5.408239   3.921103   7.547635   3.516479   2.114220
    32  H    4.761414   2.506333   6.392303   2.776735   2.112822
                   21         22         23         24         25
    21  H    0.000000
    22  C    2.724781   0.000000
    23  H    2.576650   1.098519   0.000000
    24  H    2.951973   1.095891   1.774753   0.000000
    25  H    3.772159   1.099179   1.782347   1.784649   0.000000
    26  C    2.923264   2.495119   2.677629   3.477612   2.747824
    27  H    3.339248   3.449868   3.711819   4.330102   3.720386
    28  H    2.718558   2.783333   2.509844   3.772326   3.182100
    29  H    3.888574   2.688564   2.941788   3.734629   2.480838
    30  C    2.107714   3.707889   4.113484   3.812004   4.571166
    31  H    2.450020   4.575066   4.830521   4.584169   5.520545
    32  H    3.087102   4.083026   4.699157   4.194167   4.762912
                   26         27         28         29         30
    26  C    0.000000
    27  H    1.098087   0.000000
    28  H    1.098042   1.786484   0.000000
    29  H    1.099326   1.791723   1.789048   0.000000
    30  C    3.371190   3.215945   3.727903   4.339502   0.000000
    31  H    4.272842   4.070370   4.441852   5.301323   1.091419
    32  H    3.583895   3.242529   4.200805   4.409072   1.093365
                   31         32
    31  H    0.000000
    32  H    1.870578   0.000000
 Stoichiometry    C15H15ClO
 Framework group  C1[X(C15H15ClO)]
 Deg. of freedom    90
 Full point group                 C1      NOp   1
 Largest Abelian subgroup         C1      NOp   1
 Largest concise Abelian subgroup C1      NOp   1
                         Standard orientation:                         
 ---------------------------------------------------------------------
 Center     Atomic      Atomic             Coordinates (Angstroms)
 Number     Number       Type             X           Y           Z
 ---------------------------------------------------------------------
      1          6           0       -2.836471    2.496930    0.154149
      2          6           0       -3.015954    1.136302    0.070966
      3          6           0       -1.900321    0.258482    0.013069
      4          6           0       -0.587095    0.813844    0.042270
      5          6           0       -0.434125    2.223213    0.125084
      6          6           0       -1.533432    3.047636    0.180853
      7          1           0       -3.704653    3.156121    0.197462
      8          1           0       -4.019395    0.711904    0.048638
      9          1           0        0.574772    2.633207    0.143284
     10          1           0       -1.402392    4.128723    0.244081
     11          6           0        0.560472   -0.051286   -0.010393
     12          6           0       -2.026094   -1.160174   -0.075746
     13          6           0        0.382368   -1.416916   -0.083804
     14          1           0        1.233659   -2.092010   -0.091473
     15          6           0       -0.920710   -1.967451   -0.123526
     16          1           0       -1.043831   -3.048918   -0.184513
     17          8           0        1.744955    0.592110    0.051976
     18         17           0       -3.614198   -1.886971   -0.117774
     19          6           0        3.003634    0.013646   -0.327489
     20          6           0        3.482991   -0.997715    0.692952
     21          1           0        4.327960   -1.613436    0.366272
     22          6           0        2.950099   -0.571020   -1.740693
     23          1           0        3.971027   -0.821567   -2.059561
     24          1           0        2.341216   -1.479325   -1.812950
     25          1           0        2.545898    0.181983   -2.431926
     26          6           0        3.961418    1.206504   -0.311267
     27          1           0        3.931240    1.687730    0.675296
     28          1           0        4.988056    0.873034   -0.512532
     29          1           0        3.664491    1.935039   -1.079114
     30          6           0        2.996778   -1.124080    1.925420
     31          1           0        3.416031   -1.846134    2.628314
     32          1           0        2.156303   -0.512185    2.263995
 ---------------------------------------------------------------------
 Rotational constants (GHZ):      0.7036690      0.2843117      0.2237790
 Standard basis: def2SVP (5D, 7F)
 There are   334 symmetry adapted cartesian basis functions of A   symmetry.
 There are   317 symmetry adapted basis functions of A   symmetry.
   317 basis functions,   542 primitive gaussians,   334 cartesian basis functions
    65 alpha electrons       65 beta electrons
       nuclear repulsion energy      1273.9116233518 Hartrees.
 NAtoms=   32 NActive=   32 NUniq=   32 SFac= 1.00D+00 NAtFMM=   60 NAOKFM=F Big=F
 Integral buffers will be    131072 words long.
 Raffenetti 2 integral format.
 Two-electron integral symmetry is turned on.
 Nuclear repulsion after empirical dispersion term =     1273.9097481457 Hartrees.
 ------------------------------------------------------------------------------
 Polarizable Continuum Model (PCM)
 =================================
 Model                : C-PCM.
 Atomic radii         : UFF (Universal Force Field).
 Polarization charges : Total charges.
 Charge compensation  : None.
 Solution method      : On-the-fly selection.
 Cavity type          : Scaled VdW (van der Waals Surface) (Alpha=1.100).
 Cavity algorithm     : GePol (No added spheres)
                        Default sphere list used, NSphG=   32.
                        Lebedev-Laikov grids with approx.  5.0 points / Ang**2.
                        Smoothing algorithm: Karplus/York (Gamma=1.0000).
                        Polarization charges: spherical gaussians, with
                                              point-specific exponents (IZeta= 3).
                        Self-potential: point-specific (ISelfS= 7).
                        Self-field    : sphere-specific E.n sum rule (ISelfD= 2).
 1st derivatives      : Analytical E(r).r(x)/FMM algorithm (CHGder, D1EAlg=3).
                        Cavity 1st derivative terms included.
 Solvent              : Water, Eps=  78.355300 Eps(inf)=   1.777849
 ------------------------------------------------------------------------------
 One-electron integrals computed using PRISM.
   1 Symmetry operations used in ECPInt.
 ECPInt:  NShTT=   11175 NPrTT=   41031 LenC2=   10473 LenP2D=   27496.
 LDataN:  DoStor=T MaxTD1= 4 Len=   56
 NBasis=   317 RedAO= T EigKep=  2.00D-04  NBF=   317
 NBsUse=   317 1.00D-06 EigRej= -1.00D+00 NBFU=   317
 ExpMin= 1.22D-01 ExpMax= 1.04D+04 ExpMxC= 1.57D+03 IAcc=1 IRadAn=         1 AccDes= 0.00D+00
 Harris functional with IExCor= 1009 and IRadAn=       1 diagonalized for initial guess.
 HarFok:  IExCor= 1009 AccDes= 0.00D+00 IRadAn=         1 IDoV= 1 UseB2=F ITyADJ=14
 ICtDFT=  3500011 ScaDFX=  1.000000  1.000000  1.000000  1.000000
 FoFCou: FMM=F IPFlag=           0 FMFlag=      100000 FMFlg1=           0
         NFxFlg=           0 DoJE=T BraDBF=F KetDBF=T FulRan=T
         wScrn=  0.000000 ICntrl=     500 IOpCl=  0 I1Cent=   200000004 NGrid=           0
         NMat0=    1 NMatS0=      1 NMatT0=    0 NMatD0=    1 NMtDS0=    0 NMtDT0=    0
 Petite list used in FoFCou.
 Requested convergence on RMS density matrix=1.00D-08 within 128 cycles.
 Requested convergence on MAX density matrix=1.00D-06.
 Requested convergence on             energy=1.00D-06.
 No special actions if energy rises.
 Inv3:  Mode=1 IEnd=    16864923.
 Iteration    1 A*A^-1 deviation from unit magnitude is 6.22D-15 for   2371.
 Iteration    1 A*A^-1 deviation from orthogonality  is 2.20D-15 for   2370   2329.
 Iteration    1 A^-1*A deviation from unit magnitude is 6.22D-15 for   2371.
 Iteration    1 A^-1*A deviation from orthogonality  is 1.86D-15 for   1827   1158.
 Error on total polarization charges =  0.01211
 SCF Done:  E(RM062X) =  -1115.12328873     A.U. after   14 cycles
            NFock= 14  Conv=0.41D-08     -V/T= 2.0071

 **********************************************************************

            Population analysis using the SCF density.

 **********************************************************************

 Orbital symmetries:
       Occupied  (A) (A) (A) (A) (A) (A) (A) (A) (A) (A) (A) (A)
                 (A) (A) (A) (A) (A) (A) (A) (A) (A) (A) (A) (A)
                 (A) (A) (A) (A) (A) (A) (A) (A) (A) (A) (A) (A)
                 (A) (A) (A) (A) (A) (A) (A) (A) (A) (A) (A) (A)
                 (A) (A) (A) (A) (A) (A) (A) (A) (A) (A) (A) (A)
                 (A) (A) (A) (A) (A)
       Virtual   (A) (A) (A) (A) (A) (A) (A) (A) (A) (A) (A) (A)
                 (A) (A) (A) (A) (A) (A) (A) (A) (A) (A) (A) (A)
                 (A) (A) (A) (A) (A) (A) (A) (A) (A) (A) (A) (A)
                 (A) (A) (A) (A) (A) (A) (A) (A) (A) (A) (A) (A)
                 (A) (A) (A) (A) (A) (A) (A) (A) (A) (A) (A) (A)
                 (A) (A) (A) (A) (A) (A) (A) (A) (A) (A) (A) (A)
                 (A) (A) (A) (A) (A) (A) (A) (A) (A) (A) (A) (A)
                 (A) (A) (A) (A) (A) (A) (A) (A) (A) (A) (A) (A)
                 (A) (A) (A) (A) (A) (A) (A) (A) (A) (A) (A) (A)
                 (A) (A) (A) (A) (A) (A) (A) (A) (A) (A) (A) (A)
                 (A) (A) (A) (A) (A) (A) (A) (A) (A) (A) (A) (A)
                 (A) (A) (A) (A) (A) (A) (A) (A) (A) (A) (A) (A)
                 (A) (A) (A) (A) (A) (A) (A) (A) (A) (A) (A) (A)
                 (A) (A) (A) (A) (A) (A) (A) (A) (A) (A) (A) (A)
                 (A) (A) (A) (A) (A) (A) (A) (A) (A) (A) (A) (A)
                 (A) (A) (A) (A) (A) (A) (A) (A) (A) (A) (A) (A)
                 (A) (A) (A) (A) (A) (A) (A) (A) (A) (A) (A) (A)
                 (A) (A) (A) (A) (A) (A) (A) (A) (A) (A) (A) (A)
                 (A) (A) (A) (A) (A) (A) (A) (A) (A) (A) (A) (A)
                 (A) (A) (A) (A) (A) (A) (A) (A) (A) (A) (A) (A)
                 (A) (A) (A) (A) (A) (A) (A) (A) (A) (A) (A) (A)
 The electronic state is 1-A.
 Alpha  occ. eigenvalues -- -102.64337 -19.66898 -10.63152 -10.62773 -10.61438
 Alpha  occ. eigenvalues --  -10.58264 -10.57663 -10.57394 -10.56667 -10.56587
 Alpha  occ. eigenvalues --  -10.56553 -10.56414 -10.56329 -10.56177 -10.55390
 Alpha  occ. eigenvalues --  -10.55106 -10.54956  -9.81328  -7.54028  -7.53358
 Alpha  occ. eigenvalues --   -7.53356  -1.18723  -1.00025  -0.95583  -0.92816
 Alpha  occ. eigenvalues --   -0.90595  -0.85288  -0.84123  -0.83716  -0.80341
 Alpha  occ. eigenvalues --   -0.77631  -0.72403  -0.71128  -0.69613  -0.67596
 Alpha  occ. eigenvalues --   -0.63494  -0.60269  -0.58855  -0.57418  -0.56378
 Alpha  occ. eigenvalues --   -0.54770  -0.54009  -0.51551  -0.50615  -0.50236
 Alpha  occ. eigenvalues --   -0.50114  -0.48872  -0.48500  -0.46906  -0.46293
 Alpha  occ. eigenvalues --   -0.45340  -0.44966  -0.44497  -0.43490  -0.42630
 Alpha  occ. eigenvalues --   -0.41502  -0.40937  -0.40512  -0.38418  -0.37802
 Alpha  occ. eigenvalues --   -0.36837  -0.32987  -0.32512  -0.30996  -0.26044
 Alpha virt. eigenvalues --   -0.02050   0.00288   0.04148   0.05908   0.09034
 Alpha virt. eigenvalues --    0.09511   0.11650   0.12308   0.12730   0.13632
 Alpha virt. eigenvalues --    0.14255   0.15388   0.15979   0.16750   0.16905
 Alpha virt. eigenvalues --    0.18979   0.19363   0.20152   0.20824   0.21100
 Alpha virt. eigenvalues --    0.21841   0.22487   0.23943   0.25334   0.25819
 Alpha virt. eigenvalues --    0.27950   0.29482   0.29864   0.30998   0.31733
 Alpha virt. eigenvalues --    0.32660   0.34065   0.34236   0.35454   0.36551
 Alpha virt. eigenvalues --    0.38537   0.38923   0.39982   0.41933   0.42790
 Alpha virt. eigenvalues --    0.45076   0.45540   0.47106   0.47484   0.49235
 Alpha virt. eigenvalues --    0.49794   0.49968   0.50322   0.51326   0.52255
 Alpha virt. eigenvalues --    0.52690   0.53307   0.53900   0.55262   0.55818
 Alpha virt. eigenvalues --    0.57179   0.58203   0.59192   0.59924   0.61575
 Alpha virt. eigenvalues --    0.62013   0.63672   0.64053   0.64849   0.65011
 Alpha virt. eigenvalues --    0.65938   0.67817   0.68199   0.69078   0.69823
 Alpha virt. eigenvalues --    0.70362   0.70808   0.71530   0.71797   0.72130
 Alpha virt. eigenvalues --    0.72492   0.73243   0.73732   0.74128   0.74587
 Alpha virt. eigenvalues --    0.75389   0.75955   0.76465   0.76589   0.77452
 Alpha virt. eigenvalues --    0.77753   0.77946   0.78469   0.79512   0.80224
 Alpha virt. eigenvalues --    0.81389   0.82158   0.83832   0.84351   0.85441
 Alpha virt. eigenvalues --    0.85750   0.86289   0.86636   0.88423   0.88917
 Alpha virt. eigenvalues --    0.90507   0.91412   0.93711   0.95144   0.98181
 Alpha virt. eigenvalues --    1.00023   1.02045   1.03386   1.06846   1.10096
 Alpha virt. eigenvalues --    1.11160   1.11783   1.15411   1.17417   1.18130
 Alpha virt. eigenvalues --    1.19921   1.20409   1.22101   1.24986   1.26807
 Alpha virt. eigenvalues --    1.28421   1.29391   1.30123   1.30606   1.31003
 Alpha virt. eigenvalues --    1.31423   1.33898   1.34683   1.35364   1.37091
 Alpha virt. eigenvalues --    1.38069   1.40196   1.41813   1.43185   1.47568
 Alpha virt. eigenvalues --    1.47670   1.52707   1.55589   1.56958   1.57784
 Alpha virt. eigenvalues --    1.59575   1.60439   1.62105   1.65157   1.66812
 Alpha virt. eigenvalues --    1.70440   1.70725   1.71325   1.72126   1.72920
 Alpha virt. eigenvalues --    1.73314   1.75449   1.77417   1.77569   1.77771
 Alpha virt. eigenvalues --    1.78191   1.79441   1.79615   1.80198   1.82159
 Alpha virt. eigenvalues --    1.82922   1.83821   1.84644   1.84774   1.85091
 Alpha virt. eigenvalues --    1.87125   1.87897   1.88737   1.89900   1.90547
 Alpha virt. eigenvalues --    1.91159   1.92468   1.93664   1.94097   1.95849
 Alpha virt. eigenvalues --    1.97421   1.97849   1.98028   2.00538   2.01648
 Alpha virt. eigenvalues --    2.02271   2.04393   2.05230   2.06584   2.09472
 Alpha virt. eigenvalues --    2.10093   2.11798   2.12367   2.14434   2.15275
 Alpha virt. eigenvalues --    2.16433   2.18577   2.19166   2.20324   2.21031
 Alpha virt. eigenvalues --    2.22972   2.25470   2.26300   2.27056   2.28657
 Alpha virt. eigenvalues --    2.30008   2.30984   2.33687   2.35932   2.38270
 Alpha virt. eigenvalues --    2.38886   2.40444   2.41626   2.42688   2.43435
 Alpha virt. eigenvalues --    2.45237   2.47496   2.48857   2.50424   2.52250
 Alpha virt. eigenvalues --    2.56134   2.57911   2.60182   2.60494   2.62368
 Alpha virt. eigenvalues --    2.64231   2.65523   2.67053   2.67731   2.70085
 Alpha virt. eigenvalues --    2.75623   2.75740   2.78772   2.80110   2.81347
 Alpha virt. eigenvalues --    2.81825   2.85234   2.88725   2.90012   2.92538
 Alpha virt. eigenvalues --    2.93673   2.93755   2.94919   2.95812   2.99443
 Alpha virt. eigenvalues --    3.02358   3.03796   3.04765   3.08298   3.10995
 Alpha virt. eigenvalues --    3.15240   3.22150   3.33193   3.37613   3.54850
 Alpha virt. eigenvalues --    3.62249   3.68962
          Condensed to atoms (all electrons):
               1          2          3          4          5          6
     1  C    5.103857   0.322174   0.091946  -0.148068   0.097417   0.203502
     2  C    0.322174   5.179923   0.281006   0.030317  -0.139911   0.090887
     3  C    0.091946   0.281006   5.340347   0.256692   0.018831  -0.147992
     4  C   -0.148068   0.030317   0.256692   5.549767   0.248830   0.090195
     5  C    0.097417  -0.139911   0.018831   0.248830   5.189865   0.281817
     6  C    0.203502   0.090887  -0.147992   0.090195   0.281817   5.158113
     7  H    0.454337  -0.065588   0.014537  -0.001021   0.013082  -0.072521
     8  H   -0.062847   0.454251  -0.068144   0.015907  -0.001953   0.013321
     9  H    0.013887  -0.002113   0.015157  -0.064882   0.468342  -0.075198
    10  H   -0.072624   0.013542  -0.001169   0.014526  -0.069615   0.457690
    11  C   -0.002731   0.021145   0.002015   0.236511  -0.125644   0.020646
    12  C    0.015494  -0.124647   0.269080   0.000685   0.022523  -0.002278
    13  C    0.000118  -0.003005  -0.121761   0.019092   0.025004  -0.000795
    14  H    0.000001   0.000027  -0.001629   0.014529  -0.000330  -0.000001
    15  C   -0.000563   0.014360   0.068514  -0.104370  -0.003957   0.000252
    16  H    0.000006  -0.000361   0.016292  -0.001729   0.000035   0.000001
    17  O    0.000000  -0.000071   0.001257  -0.124034   0.015997   0.001178
    18  Cl   0.000092  -0.004862  -0.071501   0.002896  -0.000141   0.000024
    19  C    0.000000   0.000008   0.000059   0.005813  -0.000771  -0.000001
    20  C    0.000000   0.000000  -0.000033  -0.000393   0.000071   0.000001
    21  H    0.000000   0.000000   0.000000   0.000060  -0.000002   0.000000
    22  C    0.000000   0.000001  -0.000041  -0.000972   0.000013   0.000000
    23  H    0.000000   0.000000   0.000001   0.000036  -0.000003   0.000000
    24  H    0.000000   0.000000   0.000041   0.000150  -0.000079  -0.000001
    25  H    0.000000  -0.000002  -0.000047  -0.000706   0.000237   0.000007
    26  C    0.000000   0.000000   0.000025   0.001035  -0.000666  -0.000021
    27  H    0.000000   0.000000  -0.000001  -0.000086  -0.000020   0.000002
    28  H    0.000000   0.000000  -0.000001  -0.000022   0.000017   0.000000
    29  H    0.000000   0.000000   0.000004  -0.000154  -0.000039   0.000008
    30  C    0.000000   0.000000  -0.000066  -0.000334   0.000053   0.000001
    31  H    0.000000   0.000000   0.000001  -0.000026   0.000000   0.000000
    32  H    0.000001  -0.000004  -0.000117   0.000543   0.000290  -0.000006
               7          8          9         10         11         12
     1  C    0.454337  -0.062847   0.013887  -0.072624  -0.002731   0.015494
     2  C   -0.065588   0.454251  -0.002113   0.013542   0.021145  -0.124647
     3  C    0.014537  -0.068144   0.015157  -0.001169   0.002015   0.269080
     4  C   -0.001021   0.015907  -0.064882   0.014526   0.236511   0.000685
     5  C    0.013082  -0.001953   0.468342  -0.069615  -0.125644   0.022523
     6  C   -0.072521   0.013321  -0.075198   0.457690   0.020646  -0.002278
     7  H    0.638625  -0.011606  -0.000207  -0.010694   0.000050  -0.000420
     8  H   -0.011606   0.642537   0.000019  -0.000208  -0.000170  -0.027970
     9  H   -0.000207   0.000019   0.641366  -0.011196  -0.029115  -0.000095
    10  H   -0.010694  -0.000208  -0.011196   0.639551  -0.000409   0.000047
    11  C    0.000050  -0.000170  -0.029115  -0.000409   5.170516  -0.175577
    12  C   -0.000420  -0.027970  -0.000095   0.000047  -0.175577   5.397016
    13  C    0.000000  -0.000075   0.001206   0.000003   0.204549   0.110092
    14  H    0.000000   0.000002   0.000002   0.000000  -0.084669   0.016322
    15  C    0.000002   0.000493  -0.000161   0.000000   0.141594   0.320097
    16  H    0.000000  -0.000012   0.000001   0.000000   0.015318  -0.080210
    17  O    0.000000   0.000001   0.013695  -0.000023   0.411617   0.000009
    18  Cl  -0.000023   0.022054   0.000001   0.000000   0.000808   0.231969
    19  C    0.000000   0.000000  -0.000669   0.000000  -0.061534   0.000014
    20  C    0.000000   0.000000   0.000092   0.000000  -0.001818   0.000001
    21  H    0.000000   0.000000  -0.000004   0.000000   0.000737   0.000000
    22  C    0.000000   0.000000   0.000032   0.000000  -0.004237  -0.000079
    23  H    0.000000   0.000000  -0.000003   0.000000   0.000433   0.000000
    24  H    0.000000   0.000000  -0.000022   0.000000   0.000368  -0.000062
    25  H    0.000000   0.000000   0.000091   0.000000   0.002417   0.000033
    26  C    0.000000   0.000000  -0.000274   0.000000   0.004729   0.000000
    27  H    0.000000   0.000000   0.000392   0.000000  -0.000217   0.000000
    28  H    0.000000   0.000000   0.000011   0.000000  -0.000073   0.000000
    29  H    0.000000   0.000000   0.000595   0.000000  -0.000521   0.000000
    30  C    0.000000   0.000000   0.000010   0.000000  -0.001693   0.000007
    31  H    0.000000   0.000000   0.000001   0.000000  -0.000383  -0.000001
    32  H    0.000000   0.000000   0.000044   0.000000   0.003112   0.000112
              13         14         15         16         17         18
     1  C    0.000118   0.000001  -0.000563   0.000006   0.000000   0.000092
     2  C   -0.003005   0.000027   0.014360  -0.000361  -0.000071  -0.004862
     3  C   -0.121761  -0.001629   0.068514   0.016292   0.001257  -0.071501
     4  C    0.019092   0.014529  -0.104370  -0.001729  -0.124034   0.002896
     5  C    0.025004  -0.000330  -0.003957   0.000035   0.015997  -0.000141
     6  C   -0.000795  -0.000001   0.000252   0.000001   0.001178   0.000024
     7  H    0.000000   0.000000   0.000002   0.000000   0.000000  -0.000023
     8  H   -0.000075   0.000002   0.000493  -0.000012   0.000001   0.022054
     9  H    0.001206   0.000002  -0.000161   0.000001   0.013695   0.000001
    10  H    0.000003   0.000000   0.000000   0.000000  -0.000023   0.000000
    11  C    0.204549  -0.084669   0.141594   0.015318   0.411617   0.000808
    12  C    0.110092   0.016322   0.320097  -0.080210   0.000009   0.231969
    13  C    5.397298   0.464681   0.191961  -0.057069  -0.086977   0.003335
    14  H    0.464681   0.632529  -0.063541  -0.013543  -0.006387  -0.000129
    15  C    0.191961  -0.063541   5.058914   0.451526   0.004719  -0.061696
    16  H   -0.057069  -0.013543   0.451526   0.636741  -0.000063   0.001160
    17  O   -0.086977  -0.006387   0.004719  -0.000063   8.041764   0.000000
    18  Cl   0.003335  -0.000129  -0.061696   0.001160   0.000000  16.991538
    19  C   -0.001891   0.003321   0.000226  -0.000026   0.240682   0.000000
    20  C   -0.002442   0.003855  -0.000362   0.000014  -0.068355   0.000000
    21  H   -0.000620   0.000409  -0.000016  -0.000002   0.003391   0.000000
    22  C   -0.004225  -0.005904   0.000126   0.000012  -0.051677   0.000000
    23  H   -0.000212   0.000132   0.000004  -0.000001   0.004020   0.000000
    24  H    0.001784   0.002941   0.000534   0.000008  -0.002151   0.000000
    25  H   -0.000307  -0.000074  -0.000206   0.000001  -0.000990   0.000000
    26  C    0.000020   0.000484   0.000013   0.000000  -0.054323   0.000000
    27  H   -0.000016  -0.000001  -0.000001   0.000000   0.001188   0.000000
    28  H    0.000051   0.000021  -0.000001   0.000000   0.004230   0.000000
    29  H   -0.000014  -0.000046  -0.000001   0.000000   0.000586   0.000000
    30  C   -0.004261   0.002616  -0.000071   0.000008   0.002895   0.000000
    31  H    0.000005   0.000079   0.000029   0.000000   0.000311   0.000000
    32  H   -0.001836  -0.000644  -0.000470  -0.000005   0.007244   0.000000
              19         20         21         22         23         24
     1  C    0.000000   0.000000   0.000000   0.000000   0.000000   0.000000
     2  C    0.000008   0.000000   0.000000   0.000001   0.000000   0.000000
     3  C    0.000059  -0.000033   0.000000  -0.000041   0.000001   0.000041
     4  C    0.005813  -0.000393   0.000060  -0.000972   0.000036   0.000150
     5  C   -0.000771   0.000071  -0.000002   0.000013  -0.000003  -0.000079
     6  C   -0.000001   0.000001   0.000000   0.000000   0.000000  -0.000001
     7  H    0.000000   0.000000   0.000000   0.000000   0.000000   0.000000
     8  H    0.000000   0.000000   0.000000   0.000000   0.000000   0.000000
     9  H   -0.000669   0.000092  -0.000004   0.000032  -0.000003  -0.000022
    10  H    0.000000   0.000000   0.000000   0.000000   0.000000   0.000000
    11  C   -0.061534  -0.001818   0.000737  -0.004237   0.000433   0.000368
    12  C    0.000014   0.000001   0.000000  -0.000079   0.000000  -0.000062
    13  C   -0.001891  -0.002442  -0.000620  -0.004225  -0.000212   0.001784
    14  H    0.003321   0.003855   0.000409  -0.005904   0.000132   0.002941
    15  C    0.000226  -0.000362  -0.000016   0.000126   0.000004   0.000534
    16  H   -0.000026   0.000014  -0.000002   0.000012  -0.000001   0.000008
    17  O    0.240682  -0.068355   0.003391  -0.051677   0.004020  -0.002151
    18  Cl   0.000000   0.000000   0.000000   0.000000   0.000000   0.000000
    19  C    5.005302   0.275490  -0.052213   0.408926  -0.015891  -0.021033
    20  C    0.275490   4.995044   0.412822  -0.092622  -0.003913  -0.007022
    21  H   -0.052213   0.412822   0.623354  -0.001304   0.002360  -0.000379
    22  C    0.408926  -0.092622  -0.001304   4.661285   0.386383   0.401386
    23  H   -0.015891  -0.003913   0.002360   0.386383   0.599482  -0.018247
    24  H   -0.021033  -0.007022  -0.000379   0.401386  -0.018247   0.598991
    25  H   -0.013564   0.009775  -0.000036   0.380324  -0.015341  -0.021418
    26  C    0.417370  -0.077299  -0.000284  -0.063877  -0.003693   0.007412
    27  H   -0.016325  -0.006300  -0.000126   0.010021   0.000013  -0.000438
    28  H   -0.016975  -0.001504   0.001639  -0.005165   0.002621  -0.000079
    29  H   -0.020636   0.010222  -0.000267  -0.008129  -0.000854   0.000134
    30  C   -0.043405   0.665818  -0.036093   0.008082  -0.000051   0.000402
    31  H    0.009541  -0.017463  -0.013297  -0.000303   0.000000  -0.000036
    32  H   -0.026171  -0.013908   0.007871   0.001022  -0.000041   0.000016
              25         26         27         28         29         30
     1  C    0.000000   0.000000   0.000000   0.000000   0.000000   0.000000
     2  C   -0.000002   0.000000   0.000000   0.000000   0.000000   0.000000
     3  C   -0.000047   0.000025  -0.000001  -0.000001   0.000004  -0.000066
     4  C   -0.000706   0.001035  -0.000086  -0.000022  -0.000154  -0.000334
     5  C    0.000237  -0.000666  -0.000020   0.000017  -0.000039   0.000053
     6  C    0.000007  -0.000021   0.000002   0.000000   0.000008   0.000001
     7  H    0.000000   0.000000   0.000000   0.000000   0.000000   0.000000
     8  H    0.000000   0.000000   0.000000   0.000000   0.000000   0.000000
     9  H    0.000091  -0.000274   0.000392   0.000011   0.000595   0.000010
    10  H    0.000000   0.000000   0.000000   0.000000   0.000000   0.000000
    11  C    0.002417   0.004729  -0.000217  -0.000073  -0.000521  -0.001693
    12  C    0.000033   0.000000   0.000000   0.000000   0.000000   0.000007
    13  C   -0.000307   0.000020  -0.000016   0.000051  -0.000014  -0.004261
    14  H   -0.000074   0.000484  -0.000001   0.000021  -0.000046   0.002616
    15  C   -0.000206   0.000013  -0.000001  -0.000001  -0.000001  -0.000071
    16  H    0.000001   0.000000   0.000000   0.000000   0.000000   0.000008
    17  O   -0.000990  -0.054323   0.001188   0.004230   0.000586   0.002895
    18  Cl   0.000000   0.000000   0.000000   0.000000   0.000000   0.000000
    19  C   -0.013564   0.417370  -0.016325  -0.016975  -0.020636  -0.043405
    20  C    0.009775  -0.077299  -0.006300  -0.001504   0.010222   0.665818
    21  H   -0.000036  -0.000284  -0.000126   0.001639  -0.000267  -0.036093
    22  C    0.380324  -0.063877   0.010021  -0.005165  -0.008129   0.008082
    23  H   -0.015341  -0.003693   0.000013   0.002621  -0.000854  -0.000051
    24  H   -0.021418   0.007412  -0.000438  -0.000079   0.000134   0.000402
    25  H    0.606030  -0.009643  -0.000121  -0.000316   0.005239  -0.000398
    26  C   -0.009643   4.612161   0.379774   0.388607   0.388459  -0.012945
    27  H   -0.000121   0.379774   0.618471  -0.017480  -0.021103   0.005206
    28  H   -0.000316   0.388607  -0.017480   0.609625  -0.018008  -0.000191
    29  H    0.005239   0.388459  -0.021103  -0.018008   0.610298  -0.000039
    30  C   -0.000398  -0.012945   0.005206  -0.000191  -0.000039   4.706510
    31  H    0.000010  -0.000074  -0.000170  -0.000013   0.000015   0.391305
    32  H   -0.000019  -0.001011   0.001094   0.000082  -0.000084   0.391644
              31         32
     1  C    0.000000   0.000001
     2  C    0.000000  -0.000004
     3  C    0.000001  -0.000117
     4  C   -0.000026   0.000543
     5  C    0.000000   0.000290
     6  C    0.000000  -0.000006
     7  H    0.000000   0.000000
     8  H    0.000000   0.000000
     9  H    0.000001   0.000044
    10  H    0.000000   0.000000
    11  C   -0.000383   0.003112
    12  C   -0.000001   0.000112
    13  C    0.000005  -0.001836
    14  H    0.000079  -0.000644
    15  C    0.000029  -0.000470
    16  H    0.000000  -0.000005
    17  O    0.000311   0.007244
    18  Cl   0.000000   0.000000
    19  C    0.009541  -0.026171
    20  C   -0.017463  -0.013908
    21  H   -0.013297   0.007871
    22  C   -0.000303   0.001022
    23  H    0.000000  -0.000041
    24  H   -0.000036   0.000016
    25  H    0.000010  -0.000019
    26  C   -0.000074  -0.001011
    27  H   -0.000170   0.001094
    28  H   -0.000013   0.000082
    29  H    0.000015  -0.000084
    30  C    0.391305   0.391644
    31  H    0.604303  -0.040906
    32  H   -0.040906   0.607943
 Mulliken charges:
               1
     1  C   -0.016000
     2  C   -0.067076
     3  C    0.036699
     4  C   -0.040788
     5  C   -0.039296
     6  C   -0.018831
     7  H    0.041447
     8  H    0.024399
     9  H    0.028993
    10  H    0.040579
    11  C    0.252223
    12  C    0.027836
    13  C   -0.133696
    14  H    0.034949
    15  C   -0.017950
    16  H    0.031895
    17  O   -0.359734
    18  Cl  -0.115526
    19  C   -0.075647
    20  C   -0.079774
    21  H    0.051998
    22  C   -0.019077
    23  H    0.062764
    24  H    0.056800
    25  H    0.059022
    26  C    0.024020
    27  H    0.046244
    28  H    0.052924
    29  H    0.054336
    30  C   -0.075012
    31  H    0.067072
    32  H    0.064205
 Sum of Mulliken charges =   0.00000
 Mulliken charges with hydrogens summed into heavy atoms:
               1
     1  C    0.025447
     2  C   -0.042677
     3  C    0.036699
     4  C   -0.040788
     5  C   -0.010303
     6  C    0.021748
    11  C    0.252223
    12  C    0.027836
    13  C   -0.098747
    15  C    0.013945
    17  O   -0.359734
    18  Cl  -0.115526
    19  C   -0.075647
    20  C   -0.027775
    22  C    0.159509
    26  C    0.177524
    30  C    0.056266
 Electronic spatial extent (au):  <R**2>=           4880.0518
 Charge=              0.0000 electrons
 Dipole moment (field-independent basis, Debye):
    X=              3.8353    Y=              0.2467    Z=             -0.7413  Tot=              3.9140
 Quadrupole moment (field-independent basis, Debye-Ang):
   XX=            -97.5301   YY=            -98.7758   ZZ=           -109.7838
   XY=             -8.5073   XZ=             -3.5320   YZ=             -0.0207
 Traceless Quadrupole moment (field-independent basis, Debye-Ang):
   XX=              4.4998   YY=              3.2541   ZZ=             -7.7539
   XY=             -8.5073   XZ=             -3.5320   YZ=             -0.0207
 Octapole moment (field-independent basis, Debye-Ang**2):
  XXX=             38.9399  YYY=              9.9335  ZZZ=              0.3187  XYY=             -2.5197
  XXY=              8.6081  XXZ=            -11.7535  XZZ=             12.5388  YZZ=             -8.3238
  YYZ=              1.4063  XYZ=             -4.0485
 Hexadecapole moment (field-independent basis, Debye-Ang**3):
 XXXX=          -4166.2692 YYYY=          -1552.6821 ZZZZ=           -464.3591 XXXY=            -88.4347
 XXXZ=            -62.8662 YYYX=            -19.4332 YYYZ=             12.3912 ZZZX=              5.5669
 ZZZY=            -14.1292 XXYY=           -969.5935 XXZZ=           -825.7610 YYZZ=           -377.5028
 XXYZ=             -7.2639 YYXZ=              0.7126 ZZXY=             10.4714
 N-N= 1.273909748146D+03 E-N=-5.159701680233D+03  KE= 1.107311068822D+03
   1 Symmetry operations used in ECPInt.
 ECPInt:  NShTT=   11175 NPrTT=   41031 LenC2=   10473 LenP2D=   27496.
 LDataN:  DoStor=T MaxTD1= 5 Len=  102
 D1PCM: C-PCM CHGder 1st derivatives, ID1Alg=3 FixD1E=F DoIter=F DoCFld=F I1PDM=0.
 Calling FoFJK, ICntrl=      2127 FMM=F ISym2X=0 I1Cent= 0 IOpClX= 0 NMat=1 NMatS=1 NMatT=0.
 ***** Axes restored to original set *****
 -------------------------------------------------------------------
 Center     Atomic                   Forces (Hartrees/Bohr)
 Number     Number              X              Y              Z
 -------------------------------------------------------------------
      1        6          -0.000005632   -0.000001731   -0.000009601
      2        6          -0.000000757   -0.000020929   -0.000005993
      3        6          -0.000001190   -0.000016038   -0.000001176
      4        6           0.000002999    0.000013962   -0.000000414
      5        6          -0.000007757    0.000016204   -0.000002673
      6        6           0.000009152   -0.000000564   -0.000008370
      7        1          -0.000010299   -0.000023397   -0.000009631
      8        1          -0.000005090   -0.000019917   -0.000006315
      9        1          -0.000012115    0.000001424   -0.000002054
     10        1          -0.000004740   -0.000016051   -0.000010265
     11        6          -0.000033879   -0.000009486   -0.000014694
     12        6          -0.000000535   -0.000017765   -0.000006637
     13        6           0.000007427   -0.000017479    0.000004447
     14        1          -0.000004130   -0.000000450    0.000001848
     15        6           0.000006778   -0.000028546   -0.000000872
     16        1           0.000030534    0.000005817    0.000007537
     17        8          -0.000001443    0.000021210    0.000015618
     18       17           0.000014718   -0.000022993    0.000000390
     19        6          -0.000011659    0.000017666   -0.000000780
     20        6           0.000009737    0.000006802    0.000011684
     21        1           0.000018440   -0.000002306    0.000012914
     22        6           0.000016640   -0.000000510   -0.000007637
     23        1           0.000007886    0.000003146   -0.000008898
     24        1          -0.000006906   -0.000001053   -0.000002522
     25        1          -0.000010232    0.000002068   -0.000011173
     26        6           0.000010206    0.000014329   -0.000003123
     27        1          -0.000003509    0.000025720    0.000008143
     28        1          -0.000001893    0.000021349    0.000008005
     29        1          -0.000006931    0.000017379   -0.000000396
     30        6           0.000001069    0.000007990    0.000021791
     31        1           0.000001139    0.000013016    0.000011105
     32        1          -0.000008029    0.000011132    0.000009740
 -------------------------------------------------------------------
 Cartesian Forces:  Max     0.000033879 RMS     0.000012034

 GradGradGradGradGradGradGradGradGradGradGradGradGradGradGradGradGradGrad
 Berny optimization.
 FormGI is forming the generalized inverse of G from B-inverse, IUseBI=4.
 Internal  Forces:  Max     0.000048804 RMS     0.000011325
 Search for a local minimum.
 Step number   1 out of a maximum of  175
 All quantities printed in internal units (Hartrees-Bohrs-Radians)
 Mixed Optimization -- En-DIIS/RFO-DIIS
 Second derivative matrix not updated -- first step.
 ITU=  0
     Eigenvalues ---    0.00365   0.00371   0.00573   0.01212   0.01610
     Eigenvalues ---    0.01713   0.01738   0.01777   0.01952   0.02004
     Eigenvalues ---    0.02026   0.02031   0.02100   0.02125   0.02148
     Eigenvalues ---    0.02150   0.02172   0.02204   0.02273   0.02293
     Eigenvalues ---    0.02361   0.03003   0.03003   0.05002   0.05353
     Eigenvalues ---    0.05696   0.05762   0.05843   0.05955   0.07554
     Eigenvalues ---    0.15984   0.15996   0.15999   0.16000   0.16000
     Eigenvalues ---    0.16000   0.16000   0.16000   0.16000   0.16000
     Eigenvalues ---    0.16000   0.16000   0.16000   0.16000   0.16000
     Eigenvalues ---    0.16402   0.16954   0.22000   0.22004   0.22489
     Eigenvalues ---    0.22560   0.24487   0.24496   0.24989   0.25000
     Eigenvalues ---    0.25000   0.25000   0.29395   0.29435   0.30778
     Eigenvalues ---    0.30895   0.33757   0.33773   0.33846   0.33895
     Eigenvalues ---    0.33900   0.34141   0.34201   0.34427   0.34649
     Eigenvalues ---    0.34704   0.34716   0.34794   0.34844   0.34908
     Eigenvalues ---    0.35219   0.36906   0.38607   0.40066   0.40101
     Eigenvalues ---    0.40514   0.41777   0.42584   0.42862   0.47872
     Eigenvalues ---    0.48206   0.49431   0.49952   0.55152   0.59289
 RFO step:  Lambda=-1.11161241D-07 EMin= 3.65016445D-03
 Linear search not attempted -- first point.
 Iteration  1 RMS(Cart)=  0.00061951 RMS(Int)=  0.00000007
 Iteration  2 RMS(Cart)=  0.00000013 RMS(Int)=  0.00000000
 Variable       Old X    -DE/DX   Delta X   Delta X   Delta X     New X
                                 (Linear)    (Quad)   (Total)
    R1        2.59825   0.00002   0.00000   0.00005   0.00005   2.59829
    R2        2.67375   0.00001   0.00000   0.00003   0.00003   2.67378
    R3        2.06158  -0.00001   0.00000  -0.00001  -0.00001   2.06156
    R4        2.68485   0.00000   0.00000   0.00000   0.00000   2.68484
    R5        2.05929   0.00000   0.00000   0.00001   0.00001   2.05930
    R6        2.69499   0.00000   0.00000   0.00000   0.00000   2.69500
    R7        2.69661   0.00003   0.00000   0.00008   0.00008   2.69669
    R8        2.68353   0.00001   0.00000   0.00001   0.00001   2.68354
    R9        2.71762  -0.00003   0.00000  -0.00007  -0.00007   2.71755
   R10        2.59881  -0.00003   0.00000  -0.00006  -0.00006   2.59875
   R11        2.05824   0.00000   0.00000  -0.00001  -0.00001   2.05823
   R12        2.06138  -0.00001   0.00000  -0.00002  -0.00002   2.06136
   R13        2.60622   0.00001   0.00000   0.00002   0.00002   2.60623
   R14        2.54997   0.00000   0.00000   0.00001   0.00001   2.54998
   R15        2.58820   0.00001   0.00000   0.00002   0.00002   2.58822
   R16        3.30139   0.00000   0.00000  -0.00001  -0.00001   3.30138
   R17        2.05321  -0.00001   0.00000  -0.00002  -0.00002   2.05318
   R18        2.67427  -0.00002   0.00000  -0.00005  -0.00005   2.67422
   R19        2.06010  -0.00002   0.00000  -0.00004  -0.00004   2.06006
   R20        2.71417  -0.00001   0.00000  -0.00002  -0.00002   2.71415
   R21        2.86213   0.00004   0.00000   0.00014   0.00014   2.86227
   R22        2.89187   0.00005   0.00000   0.00017   0.00017   2.89203
   R23        2.89105   0.00003   0.00000   0.00011   0.00011   2.89116
   R24        2.06992   0.00002   0.00000   0.00005   0.00005   2.06997
   R25        2.51507   0.00003   0.00000   0.00005   0.00005   2.51513
   R26        2.07590   0.00001   0.00000   0.00002   0.00002   2.07592
   R27        2.07093   0.00001   0.00000   0.00003   0.00003   2.07097
   R28        2.07715   0.00001   0.00000   0.00004   0.00004   2.07719
   R29        2.07508   0.00001   0.00000   0.00004   0.00004   2.07512
   R30        2.07500   0.00000   0.00000  -0.00001  -0.00001   2.07499
   R31        2.07743   0.00001   0.00000   0.00002   0.00002   2.07744
   R32        2.06248   0.00000   0.00000   0.00001   0.00001   2.06249
   R33        2.06616   0.00001   0.00000   0.00003   0.00003   2.06619
    A1        2.10196   0.00001   0.00000   0.00005   0.00005   2.10201
    A2        2.09033  -0.00001   0.00000  -0.00006  -0.00006   2.09027
    A3        2.09090   0.00000   0.00000   0.00001   0.00001   2.09091
    A4        2.10759   0.00000   0.00000   0.00000   0.00000   2.10759
    A5        2.10232   0.00000   0.00000   0.00000   0.00000   2.10232
    A6        2.07328   0.00000   0.00000  -0.00001  -0.00001   2.07327
    A7        2.07331  -0.00002   0.00000  -0.00010  -0.00010   2.07322
    A8        2.15026   0.00002   0.00000   0.00008   0.00008   2.15034
    A9        2.05961   0.00000   0.00000   0.00001   0.00001   2.05963
   A10        2.07930   0.00003   0.00000   0.00011   0.00011   2.07941
   A11        2.09415  -0.00002   0.00000  -0.00006  -0.00006   2.09408
   A12        2.10973  -0.00001   0.00000  -0.00005  -0.00005   2.10969
   A13        2.10740   0.00000   0.00000  -0.00003  -0.00003   2.10738
   A14        2.06502   0.00001   0.00000   0.00003   0.00003   2.06505
   A15        2.11076   0.00000   0.00000  -0.00001  -0.00001   2.11076
   A16        2.09679  -0.00001   0.00000  -0.00004  -0.00004   2.09675
   A17        2.09148   0.00002   0.00000   0.00009   0.00009   2.09157
   A18        2.09491  -0.00001   0.00000  -0.00005  -0.00005   2.09486
   A19        2.08815   0.00002   0.00000   0.00008   0.00008   2.08823
   A20        1.99536  -0.00003   0.00000  -0.00011  -0.00011   1.99526
   A21        2.19932   0.00001   0.00000   0.00003   0.00003   2.19935
   A22        2.11415   0.00000   0.00000   0.00000   0.00000   2.11416
   A23        2.08887   0.00002   0.00000   0.00006   0.00006   2.08893
   A24        2.08015  -0.00001   0.00000  -0.00006  -0.00006   2.08009
   A25        2.11115   0.00001   0.00000   0.00006   0.00006   2.11122
   A26        2.10090   0.00000   0.00000  -0.00001  -0.00001   2.10089
   A27        2.07092  -0.00001   0.00000  -0.00006  -0.00006   2.07087
   A28        2.10933  -0.00001   0.00000  -0.00003  -0.00003   2.10930
   A29        2.08923   0.00002   0.00000   0.00012   0.00012   2.08935
   A30        2.08459  -0.00001   0.00000  -0.00009  -0.00009   2.08450
   A31        2.17124  -0.00003   0.00000  -0.00011  -0.00011   2.17113
   A32        1.94797  -0.00001   0.00000  -0.00016  -0.00016   1.94781
   A33        1.94679  -0.00001   0.00000  -0.00012  -0.00012   1.94667
   A34        1.80473   0.00000   0.00000  -0.00003  -0.00003   1.80470
   A35        1.95859   0.00001   0.00000   0.00013   0.00013   1.95871
   A36        1.89164   0.00000   0.00000   0.00007   0.00007   1.89171
   A37        1.90666   0.00001   0.00000   0.00012   0.00012   1.90678
   A38        2.00266   0.00002   0.00000   0.00010   0.00010   2.00277
   A39        2.17936  -0.00001   0.00000  -0.00004  -0.00004   2.17931
   A40        2.09974  -0.00001   0.00000  -0.00006  -0.00006   2.09968
   A41        1.89936   0.00002   0.00000   0.00017   0.00017   1.89953
   A42        1.97903   0.00000   0.00000  -0.00003  -0.00003   1.97900
   A43        1.90908   0.00001   0.00000   0.00002   0.00002   1.90910
   A44        1.88408  -0.00001   0.00000   0.00001   0.00001   1.88409
   A45        1.89174  -0.00001   0.00000  -0.00001  -0.00001   1.89173
   A46        1.89866  -0.00001   0.00000  -0.00016  -0.00016   1.89850
   A47        1.91136   0.00001   0.00000   0.00005   0.00005   1.91141
   A48        1.92475   0.00001   0.00000   0.00006   0.00006   1.92481
   A49        1.91795   0.00000   0.00000   0.00001   0.00001   1.91795
   A50        1.90019  -0.00001   0.00000  -0.00004  -0.00004   1.90014
   A51        1.90676  -0.00001   0.00000  -0.00008  -0.00008   1.90669
   A52        1.90262   0.00000   0.00000   0.00000   0.00000   1.90262
   A53        2.11631   0.00000   0.00000   0.00002   0.00002   2.11633
   A54        2.11116   0.00000   0.00000   0.00002   0.00002   2.11118
   A55        2.05568  -0.00001   0.00000  -0.00004  -0.00004   2.05564
    D1        0.00224   0.00000   0.00000  -0.00003  -0.00003   0.00221
    D2       -3.13974   0.00000   0.00000  -0.00004  -0.00004  -3.13978
    D3        3.14131   0.00000   0.00000   0.00003   0.00003   3.14134
    D4       -0.00067   0.00000   0.00000   0.00002   0.00002  -0.00065
    D5       -0.00123   0.00000   0.00000   0.00001   0.00001  -0.00122
    D6        3.13850   0.00000   0.00000   0.00004   0.00004   3.13855
    D7       -3.14030   0.00000   0.00000  -0.00005  -0.00005  -3.14035
    D8       -0.00057   0.00000   0.00000  -0.00001  -0.00001  -0.00058
    D9       -0.00039   0.00000   0.00000   0.00000   0.00000  -0.00039
   D10       -3.14003   0.00000   0.00000  -0.00003  -0.00003  -3.14005
   D11        3.14158   0.00000   0.00000   0.00001   0.00001   3.14159
   D12        0.00195   0.00000   0.00000  -0.00002  -0.00002   0.00193
   D13       -0.00241   0.00000   0.00000   0.00005   0.00005  -0.00236
   D14        3.13793   0.00000   0.00000  -0.00001  -0.00001   3.13792
   D15        3.13733   0.00000   0.00000   0.00008   0.00008   3.13741
   D16       -0.00552   0.00000   0.00000   0.00002   0.00002  -0.00550
   D17       -3.13677   0.00000   0.00000   0.00006   0.00006  -3.13672
   D18        0.00019   0.00000   0.00000  -0.00008  -0.00008   0.00011
   D19        0.00676   0.00000   0.00000   0.00003   0.00003   0.00679
   D20       -3.13946   0.00000   0.00000  -0.00011  -0.00011  -3.13957
   D21        0.00344   0.00000   0.00000  -0.00007  -0.00007   0.00337
   D22       -3.13821   0.00000   0.00000  -0.00009  -0.00009  -3.13830
   D23       -3.13688   0.00000   0.00000  -0.00001  -0.00001  -3.13690
   D24        0.00465   0.00000   0.00000  -0.00003  -0.00003   0.00462
   D25       -0.00437   0.00000   0.00000  -0.00005  -0.00005  -0.00442
   D26       -3.11903   0.00000   0.00000   0.00004   0.00004  -3.11899
   D27        3.13594   0.00000   0.00000  -0.00011  -0.00011   3.13583
   D28        0.02128   0.00000   0.00000  -0.00001  -0.00001   0.02127
   D29       -0.00164   0.00000   0.00000   0.00004   0.00004  -0.00160
   D30       -3.14137   0.00000   0.00000   0.00001   0.00001  -3.14136
   D31        3.14001   0.00000   0.00000   0.00006   0.00006   3.14007
   D32        0.00028   0.00000   0.00000   0.00003   0.00003   0.00031
   D33       -3.10599   0.00000   0.00000   0.00002   0.00002  -3.10598
   D34        0.01320   0.00000   0.00000   0.00003   0.00003   0.01324
   D35        0.00526   0.00000   0.00000  -0.00009  -0.00009   0.00517
   D36        3.12446   0.00000   0.00000  -0.00008  -0.00008   3.12438
   D37       -2.84282  -0.00001   0.00000  -0.00030  -0.00030  -2.84312
   D38        0.32771   0.00000   0.00000  -0.00020  -0.00020   0.32751
   D39        0.00190   0.00000   0.00000  -0.00005  -0.00005   0.00185
   D40        3.13444   0.00000   0.00000  -0.00011  -0.00011   3.13434
   D41       -3.13508   0.00000   0.00000   0.00009   0.00009  -3.13499
   D42       -0.00254   0.00000   0.00000   0.00002   0.00002  -0.00251
   D43       -0.01218   0.00000   0.00000   0.00002   0.00002  -0.01217
   D44        3.13844   0.00000   0.00000   0.00008   0.00008   3.13851
   D45        3.10753   0.00000   0.00000   0.00003   0.00003   3.10756
   D46       -0.02504   0.00000   0.00000   0.00010   0.00010  -0.02494
   D47       -1.28329  -0.00001   0.00000  -0.00047  -0.00047  -1.28375
   D48        0.92312  -0.00001   0.00000  -0.00052  -0.00052   0.92260
   D49        2.97004   0.00000   0.00000  -0.00046  -0.00046   2.96958
   D50        2.93888   0.00000   0.00000   0.00002   0.00002   2.93890
   D51       -0.26024   0.00000   0.00000   0.00013   0.00013  -0.26010
   D52        0.73894   0.00001   0.00000   0.00022   0.00022   0.73915
   D53       -2.46018   0.00001   0.00000   0.00033   0.00033  -2.45985
   D54       -1.36811  -0.00001   0.00000  -0.00006  -0.00006  -1.36816
   D55        1.71596   0.00000   0.00000   0.00005   0.00005   1.71602
   D56        2.95139   0.00000   0.00000   0.00008   0.00008   2.95147
   D57       -1.23484   0.00001   0.00000   0.00019   0.00019  -1.23465
   D58        0.88761   0.00000   0.00000  -0.00002  -0.00002   0.88760
   D59       -1.13121  -0.00001   0.00000  -0.00013  -0.00013  -1.13134
   D60        0.96574   0.00000   0.00000  -0.00002  -0.00002   0.96572
   D61        3.08820  -0.00001   0.00000  -0.00023  -0.00023   3.08797
   D62        0.96713   0.00000   0.00000   0.00012   0.00012   0.96725
   D63        3.06409   0.00001   0.00000   0.00023   0.00023   3.06431
   D64       -1.09665   0.00000   0.00000   0.00002   0.00002  -1.09663
   D65        0.97387   0.00000   0.00000  -0.00017  -0.00017   0.97370
   D66        3.06458   0.00000   0.00000  -0.00016  -0.00016   3.06442
   D67       -1.12072   0.00000   0.00000  -0.00011  -0.00011  -1.12083
   D68       -1.09548   0.00001   0.00000  -0.00001  -0.00001  -1.09549
   D69        0.99522   0.00001   0.00000   0.00001   0.00001   0.99523
   D70        3.09311   0.00001   0.00000   0.00006   0.00006   3.09317
   D71        3.04876  -0.00001   0.00000  -0.00028  -0.00028   3.04849
   D72       -1.14372  -0.00001   0.00000  -0.00026  -0.00026  -1.14398
   D73        0.95417  -0.00001   0.00000  -0.00021  -0.00021   0.95395
   D74       -3.09498   0.00000   0.00000  -0.00011  -0.00011  -3.09509
   D75        0.05623   0.00000   0.00000  -0.00001  -0.00001   0.05622
   D76       -0.01390   0.00000   0.00000   0.00001   0.00001  -0.01389
   D77        3.13731   0.00000   0.00000   0.00011   0.00011   3.13742
         Item               Value     Threshold  Converged?
 Maximum Force            0.000049     0.000450     YES
 RMS     Force            0.000011     0.000300     YES
 Maximum Displacement     0.002043     0.001800     NO 
 RMS     Displacement     0.000620     0.001200     YES
 Predicted change in Energy=-5.558258D-08
 GradGradGradGradGradGradGradGradGradGradGradGradGradGradGradGradGradGrad

                          Input orientation:                          
 ---------------------------------------------------------------------
 Center     Atomic      Atomic             Coordinates (Angstroms)
 Number     Number       Type             X           Y           Z
 ---------------------------------------------------------------------
      1          6           0       -2.836205    2.496905    0.154636
      2          6           0       -3.015789    1.136290    0.071045
      3          6           0       -1.900221    0.258408    0.012854
      4          6           0       -0.587005    0.813792    0.042200
      5          6           0       -0.433909    2.223126    0.125497
      6          6           0       -1.533139    3.047582    0.181517
      7          1           0       -3.704373    3.156087    0.198192
      8          1           0       -4.019263    0.711962    0.048622
      9          1           0        0.575009    2.633053    0.143882
     10          1           0       -1.401978    4.128622    0.245109
     11          6           0        0.560496   -0.051346   -0.010742
     12          6           0       -2.025988   -1.160264   -0.076357
[...]
 ,0.00000475,0.00000249,-0.00000129,-0.00000041,0.00000225,-0.00000068,
 0.00000055,-0.00005267,0.00005610,-0.00005279,-0.00000031,-0.00000307,
 0.00000227,-0.00017142,-0.00000902,-0.00003798,-0.00001159,-0.00000202
 ,-0.00000104,0.00015064,0.00003649,-0.00000043,0.00001719,0.00004414,-
 0.00003794,-0.00002219,0.00002401,0.00000780,0.00000837,0.00000538,0.0
 0000040,0.00262697,0.00042630,-0.00053296,0.00003134,0.00001443,-0.000
 00028,-0.00174863,-0.00957796,-0.01813762,-0.00001394,0.00137796,-0.00
 058739,0.00004712,0.00000308,-0.00002075,-0.00258641,-0.00315474,0.000
 49652,0.00026996,-0.00002149,-0.00008243,0.00015978,-0.00068371,-0.001
 04311,0.00002329,0.00004129,0.00028826,-0.04464354,0.00648290,0.010508
 37,0.04447007,-0.00001130,-0.00000383,0.00000184,-0.00000415,0.0000093
 4,0.00000137,-0.00000840,-0.00001188,-0.00000990,0.00000031,-0.0000240
 6,-0.00001738,-0.00000129,0.00002503,-0.00000174,0.00000465,-0.0000077
 8,0.00000192,-0.00000088,-0.00000010,-0.00000017,-0.00000096,0.0000003
 0,-0.00000122,-0.00002264,-0.00001596,0.00000146,0.00000022,0.00000152
 ,-0.00000151,0.00007430,0.00021016,0.00022018,-0.00001442,0.00002620,-
 0.00000103,0.00009209,-0.00002706,0.00000694,0.00002710,0.00005209,-0.
 00004169,0.00002617,0.00003709,-0.00000181,0.00000223,0.00000035,0.000
 00090,0.00225346,0.00130988,0.00072410,-0.00000347,-0.00000143,0.00000
 093,0.00216332,-0.01255266,-0.02218689,0.00034203,0.00128191,-0.002175
 29,-0.00011114,-0.00004463,-0.00003052,-0.00360321,-0.00397114,0.00061
 898,-0.00009108,0.00011990,0.00036729,-0.00033882,-0.00020663,-0.00158
 257,-0.00012140,0.00010692,-0.00016373,0.00425092,-0.09673242,-0.10569
 106,-0.00222266,0.10397511,-0.00000471,-0.00000535,-0.00000201,-0.0000
 0199,0.00000464,0.00000189,-0.00000708,-0.00000599,-0.00001081,-0.0000
 1352,-0.00004611,0.00000599,-0.00000910,-0.00001692,0.00001211,0.00001
 215,0.00000933,-0.00000080,0.00000076,0.00000053,0.00000016,-0.0000008
 9,0.00000055,-0.00000064,-0.00005871,0.00002684,-0.00002618,-0.0000011
 9,0.00000020,0.00000099,-0.00013440,0.00021060,0.00018696,-0.00001139,
 0.00002190,-0.00000076,0.00006956,0.00004057,0.00003566,0.00000602,0.0
 0002944,0.00001104,0.00002432,0.00002004,-0.00001427,0.00000227,0.0000
 0069,0.00000022,0.00012493,0.00055150,0.00071072,-0.00000317,-0.000001
 95,0.00000111,0.00066474,0.00138704,-0.00111626,-0.00007492,0.00085526
 ,0.00096646,0.00005894,0.00014093,0.00005925,-0.00058582,-0.00082282,0
 .00103287,0.00007003,0.00025299,0.00010673,0.00021050,-0.00011947,-0.0
 0006829,0.00018370,0.00011052,0.00025237,0.00833545,-0.10944193,-0.274
 11429,-0.00933247,0.11729149,0.28922020,0.00000677,0.00001886,0.000002
 81,-0.00002174,-0.00001384,-0.00000210,-0.00003261,0.00004919,-0.00001
 442,-0.00033748,-0.00015711,0.00002073,0.00000274,-0.00005263,-0.00000
 285,-0.00002610,0.00003377,0.00000548,-0.00000803,0.00000642,-0.000000
 07,-0.00001244,0.00000534,-0.00000106,0.00000234,-0.00003990,-0.000003
 92,-0.00000651,0.00001120,-0.00000021,0.00142546,0.00102181,0.00056925
 ,0.00003589,0.00003841,0.00000496,-0.00029945,-0.00033811,-0.00007954,
 0.00000947,0.00001724,0.00001431,0.00010134,-0.00000272,-0.00003204,-0
 .00003387,-0.00001988,0.00000073,-0.00600927,-0.00364797,0.00009302,-0
 .00013101,-0.00005559,-0.00000036,-0.01352344,0.00928966,0.00315545,0.
 00015273,0.00089037,-0.00062676,0.00023185,-0.00030478,0.00023030,0.00
 031371,0.00092082,0.00063229,0.00033712,-0.00021936,-0.00036522,0.0003
 6214,-0.00019434,-0.00003531,0.00006594,-0.00011713,0.00006466,-0.2895
 5430,0.07933032,0.04759449,0.00179514,-0.00104817,-0.00105399,0.309990
 28,0.00000889,0.00001232,0.00000269,-0.00002227,-0.00002283,-0.0000020
 0,-0.00004967,0.00007573,-0.00001824,-0.00032011,-0.00021952,0.0000027
 6,-0.00000112,-0.00005415,0.00000040,-0.00001099,0.00003414,0.00000402
 ,-0.00000380,0.00000492,-0.00000011,-0.00001136,0.00000651,-0.00000126
 ,-0.00001479,-0.00000434,0.00000297,-0.00000468,0.00000754,-0.00000033
 ,-0.00022344,0.00097588,0.00046433,0.00002803,0.00002512,0.00000435,-0
 .00011523,-0.00008885,-0.00002826,0.00001807,-0.00000849,-0.00000509,0
 .00005564,-0.00000874,-0.00001266,-0.00002030,-0.00001283,0.00000161,-
 0.00676023,-0.00318521,0.00022710,-0.00007996,-0.00003585,-0.00000138,
 -0.01948288,0.00917064,0.00441334,-0.00018998,0.00035122,0.00042821,-0
 .00009037,-0.00050600,0.00021249,0.00010376,0.00063037,0.00033494,-0.0
 0022505,-0.00026697,-0.00042791,0.00017753,0.00002486,0.00019301,-0.00
 003545,0.00000138,-0.00008177,0.08361660,-0.07454403,-0.01696600,0.011
 79204,-0.00406879,-0.00040094,-0.08559539,0.07678511,0.00000012,-0.000
 00385,0.00000053,0.00000453,0.00000462,-0.00000041,0.00000592,-0.00001
 913,-0.00001791,0.00005591,0.00003221,0.00000783,-0.00000337,0.0000059
 5,0.00000136,0.00000568,-0.00000148,0.00000326,0.00000118,-0.00000067,
 -0.00000053,0.00000217,-0.00000115,-0.00000272,0.00000189,0.00000955,-
 0.00000528,0.00000093,-0.00000188,-0.00000060,-0.00019247,-0.00015553,
 0.00049859,-0.00000937,-0.00000291,0.00000443,0.00004679,0.00003393,-0
 .00000775,-0.00000116,0.00000109,0.00002651,-0.00000719,0.00001693,-0.
 00004645,0.00000623,0.00000255,0.00000188,0.00074848,0.00016295,0.0008
 8340,0.00001322,0.00000549,0.00000347,-0.00114447,-0.00010441,-0.00281
 522,0.00024207,0.00007474,0.00000383,0.00005690,0.00019758,0.00000586,
 -0.00020587,-0.00001401,-0.00018324,-0.00040512,-0.00051986,-0.0002529
 5,0.00008375,0.00010834,0.00000946,-0.00007221,-0.00004659,0.00003837,
 0.04818803,-0.01587150,-0.05443574,0.02570221,-0.00641252,-0.00274409,
 -0.05229690,0.01759525,0.05386741,-0.00000145,0.00000119,0.00000493,0.
 00000950,-0.00000044,-0.00000576,0.00000348,-0.00000745,0.00000677,0.0
 0007870,0.00002006,-0.00000219,-0.00002693,-0.00000340,0.00000259,-0.0
 0000029,0.00000631,-0.00001225,0.00000254,-0.00000110,0.00000087,0.000
 00195,-0.00000067,-0.00000065,0.00004108,0.00003444,0.00000968,0.00000
 098,-0.00000427,-0.00000269,-0.00021249,-0.00009146,-0.00008395,-0.000
 00645,-0.00000993,-0.00000414,0.00014960,0.00006132,0.00004827,0.00004
 684,0.00004022,0.00002543,-0.00003303,0.00002898,0.00000808,0.00000644
 ,0.00000462,-0.00000170,0.00248458,0.00034543,-0.00054136,0.00002392,0
 .00001128,0.00000115,0.00321711,-0.01532394,0.01466202,-0.00230894,-0.
 00207796,-0.00060602,0.00017499,-0.00021228,0.00014594,0.00068231,0.00
 054236,0.00097032,0.00003777,0.00005988,-0.00013545,-0.00006318,0.0001
 3137,0.00014347,-0.00003523,0.00005475,-0.00028715,-0.06650291,0.05284
 170,-0.05542325,-0.00041617,-0.00152741,0.00157231,-0.00505471,0.01740
 753,-0.02070202,0.06734423,-0.00001401,-0.00000503,-0.00000041,-0.0000
 0735,0.00000961,0.00000035,-0.00001628,-0.00001281,0.00000004,-0.00001
 907,-0.00005977,0.00000497,-0.00000171,0.00002057,0.00000141,0.0000083
 2,-0.00000277,-0.00000132,-0.00000100,0.00000028,0.00000008,-0.0000021
 2,0.00000110,0.00000070,-0.00007720,-0.00000604,0.00003191,-0.00000111
 ,0.00000265,0.00000089,-0.00010358,0.00022002,-0.00018417,-0.00001766,
 0.00003906,0.00000615,0.00006798,-0.00001425,-0.00003627,0.00007051,0.
 00006812,0.00003528,0.00003649,0.00003601,0.00001267,-0.00000044,-0.00
 000093,-0.00000023,0.00154666,0.00154376,-0.00110968,-0.00001081,-0.00
 000449,-0.00000074,0.00800989,-0.01858165,0.01758109,-0.00504062,-0.00
 247662,-0.00020348,0.00028609,0.00014319,-0.00006446,0.00105515,0.0012
 6638,0.00110740,0.00001553,-0.00008203,-0.00010565,-0.00008895,0.00044
 979,-0.00008863,-0.00042316,-0.00026190,-0.00078559,0.05020675,-0.1627
 9965,0.12498371,-0.00465572,0.01028502,-0.00991015,0.00041129,-0.00504
 918,0.00504353,-0.05189914,0.17579143,0.00000335,0.00000494,-0.0000041
 6,0.00000030,-0.00000378,0.00000224,0.00000367,0.00000443,-0.00000504,
 0.00000218,0.00003392,0.00002893,0.00002312,0.00002764,0.00001449,-0.0
 0001210,-0.00001608,-0.00000065,-0.00000133,-0.00000057,0.00000016,0.0
 0000055,-0.00000071,0.00000043,0.00005840,-0.00003673,-0.00005976,0.00
 000143,0.00000046,0.00000244,0.00014237,-0.00012099,-0.00004019,0.0000
 0722,-0.00001365,-0.00000037,-0.00004155,-0.00001573,0.00002432,-0.000
 00263,-0.00002484,0.00000668,-0.00000846,-0.00001695,-0.00001039,-0.00
 000113,-0.00000041,0.00000034,0.00012887,-0.00029333,0.00017618,0.0000
 0386,0.00000128,0.00000014,-0.00040842,-0.00184918,-0.00021208,0.00047
 868,0.00051623,0.00012983,-0.00011513,0.00010460,-0.00009350,0.0000060
 9,-0.00120123,0.00065035,0.00024430,0.00006513,-0.00000371,0.00019222,
 -0.00004563,0.00007760,-0.00024477,-0.00014562,0.00031792,-0.05447886,
 0.12708684,-0.18353953,-0.00738469,0.01843174,-0.01489781,0.00204152,-
 0.00566335,0.00511564,0.05944767,-0.13716257,0.19169958,-0.00011851,-0
 .00004227,-0.00000370,-0.00001051,0.00011303,-0.00001024,-0.00016445,-
 0.00024850,-0.00005183,0.00038925,-0.00027656,0.00025031,-0.00011110,0
 .00018150,-0.00001687,0.00011056,-0.00000068,0.00000267,-0.00000458,0.
 00000519,-0.00000063,-0.00000873,-0.00000109,-0.00000026,-0.00000514,0
 .00000996,-0.00000781,-0.00000075,0.00001124,0.00000433,-0.00105411,0.
 00017745,-0.00064641,-0.00012602,0.00025051,0.00017670,-0.00130675,-0.
 00177949,-0.00184238,-0.00188430,0.00083901,-0.00043100,-0.00002140,0.
 00054324,-0.00035472,0.00000901,-0.00001167,-0.00006006,0.00070798,-0.
 00114733,-0.00031697,-0.00016135,-0.00004067,0.00004775,0.01095881,-0.
 00030389,-0.00739463,-0.15452357,0.01200829,0.17879040,-0.00246711,-0.
 00201520,0.02410583,-0.00054132,0.00129514,-0.00154845,0.00014929,-0.0
 0001647,-0.00019005,-0.00004319,-0.00002669,0.00012635,-0.00001773,-0.
 00004583,-0.00081770,-0.00045483,0.00097209,-0.00103006,0.00008073,0.0
 0001918,-0.00006416,0.00025681,0.00008138,-0.00012434,0.00031151,0.000
 58876,-0.00008315,0.46161009,-0.00006743,-0.00003409,-0.00000348,0.000
 00388,0.00008054,0.00000211,-0.00007325,-0.00019576,0.00004309,0.00046
 652,-0.00010541,-0.00011897,-0.00006841,0.00008258,0.00001515,0.000079
 43,0.00000143,-0.00000273,-0.00000020,0.00000222,0.00000173,-0.0000015
 2,-0.00000316,0.00000291,0.00000014,0.00003482,0.00000832,0.00000009,0
 .00000486,0.00000002,-0.00159489,-0.00088995,-0.00015279,-0.00006328,0
 .00018034,0.00005578,-0.00025556,-0.00019305,-0.00113406,-0.00068111,0
 .00034373,-0.00014073,0.00009046,0.00025828,0.00002920,0.00000910,-0.0
 0000107,-0.00001662,0.00023696,0.00040414,0.00146544,-0.00006259,-0.00
 001287,0.00000038,-0.00829896,0.00269522,0.02243799,0.00976822,-0.0878
 8978,0.05515359,0.00821563,0.00753517,-0.01615738,0.00149862,-0.003563
 92,0.00110533,-0.00022337,0.00007695,0.00001883,0.00004364,0.00016355,
 0.00010084,-0.00005595,0.00059229,0.00123339,0.00176844,-0.00069392,0.
 00211797,0.00000211,0.00025232,-0.00008419,-0.00019133,-0.00001891,-0.
 00012437,-0.00054049,-0.00070465,0.00039128,-0.23121025,0.39817959,0.0
 0001781,0.00001339,0.00000092,-0.00001547,-0.00001467,0.00000745,0.000
 01679,0.00002004,-0.00003928,-0.00017030,-0.00006008,0.00003063,0.0000
 1226,-0.00005084,0.00003433,-0.00002378,0.00003236,-0.00000092,-0.0000
 0544,0.00000404,0.00000013,-0.00000601,0.00000260,-0.00000187,0.000012
 04,-0.00003191,-0.00000342,-0.00000352,0.00000549,-0.00000089,0.001475
 31,0.00120859,-0.00020033,0.00003393,0.00001459,0.00000766,-0.00041405
 ,-0.00017029,0.00001571,-0.00082092,-0.00024373,-0.00079976,0.00016217
 ,-0.00007859,-0.00006905,-0.00001492,-0.00001325,0.00003957,0.00037193
 ,-0.00171053,-0.00219586,-0.00008249,-0.00004114,-0.00001197,0.0065973
 5,0.00940573,-0.02081245,0.18203979,0.05220873,-0.52044626,0.00165755,
 0.00367418,-0.00505858,-0.00120588,0.00231382,0.00064122,0.00013449,-0
 .00008981,0.00021679,-0.00005349,-0.00035965,-0.00012287,-0.00000846,-
 0.00042395,-0.00080617,-0.00297326,-0.00168831,-0.00116635,0.00019422,
 0.00056428,0.00036834,0.00015502,-0.00020580,-0.00000582,0.00059313,0.
 00053179,0.00064796,-0.18838424,-0.15064528,0.80014064,-0.00001786,-0.
 00001304,-0.00000061,-0.00000802,0.00002466,0.00000161,-0.00001655,-0.
 00006294,-0.00000899,0.00007795,-0.00005498,-0.00000237,-0.00001905,0.
 00002215,0.00001001,0.00002347,0.00000870,0.00000255,-0.00000219,0.000
 00184,-0.00000021,-0.00000234,0.00000019,-0.00000099,0.00000185,-0.000
 00474,-0.00000026,-0.00000103,0.00000307,0.00000017,0.00048683,0.00008
 557,0.00019290,-0.00002205,0.00007524,0.00001501,-0.00019336,-0.000149
 47,-0.00006686,-0.00006203,0.00005845,0.00004045,0.00009544,0.00002046
 ,-0.00007334,-0.00000669,-0.00000552,0.00000282,0.00020239,-0.00008559
 ,-0.00094535,-0.00004341,-0.00001904,0.00000598,0.00349999,0.00573136,
 0.00515136,0.00835680,-0.00847243,0.00992772,-0.00292559,-0.00412399,-
 0.00212604,0.00054446,-0.00132931,0.00088881,-0.00004165,-0.00000070,-
 0.00001001,0.00001685,-0.00003982,-0.00006510,-0.00004846,0.00014287,0
 .00047558,-0.00040131,0.00106409,-0.00111426,-0.00005013,-0.00003028,-
 0.00003443,-0.00003590,-0.00004967,-0.00000838,0.00022842,0.00029646,0
 .00002835,-0.09364501,0.08813211,-0.07185349,0.08714346,0.00000640,-0.
 00000004,0.00000076,0.00000388,-0.00001005,-0.00000135,0.00000534,0.00
 002488,0.00000195,0.00001557,0.00001555,-0.00000778,0.00001131,0.00000
 120,0.00000051,-0.00000244,-0.00000865,0.00000026,0.00000230,-0.000001
 78,-0.00000028,0.00000242,-0.00000026,-0.00000046,-0.00000212,0.000010
 57,-0.00000114,0.00000140,-0.00000327,-0.00000034,-0.00046359,-0.00017
 726,-0.00008525,0.00000133,-0.00003866,-0.00000484,-0.00001814,-0.0000
 8389,0.00006603,-0.00004149,-0.00000429,-0.00000265,-0.00008640,-0.000
 01566,-0.00003544,0.00000808,0.00000585,-0.00000074,0.00026806,-0.0000
 7748,0.00056074,0.00003835,0.00001685,0.00000646,0.00538424,0.00671464
 ,0.00264327,0.00250588,0.00288176,-0.00158720,-0.00414747,-0.00365430,
 -0.00216078,0.00040313,-0.00120453,0.00094456,-0.00003634,0.00001000,0
 .00000767,0.00002222,-0.00007161,-0.00008380,-0.00009596,0.00015996,0.
 00037437,-0.00058261,0.00117423,-0.00134825,-0.00001802,0.00001138,-0.
 00001356,-0.00004064,-0.00006362,0.00000242,0.00029323,0.00040778,0.00
 001291,0.08621416,-0.17804749,0.13137127,-0.09281907,0.17705120,-0.000
 00381,0.00000161,0.00000111,-0.00000606,0.00000406,-0.00000093,-0.0000
 1097,-0.00000278,0.00000690,-0.00008965,-0.00002698,-0.00003213,-0.000
 00653,-0.00000514,0.00000349,-0.00000198,0.00000504,0.00000141,-0.0000
 0194,0.00000144,-0.00000002,-0.00000253,0.00000087,-0.00000004,0.00000
 168,-0.00001086,-0.00000372,-0.00000108,0.00000269,-0.00000022,0.00029
 602,0.00019694,0.00009093,-0.00000749,0.00002031,-0.00000457,-0.000118
 33,-0.00021040,-0.00007069,-0.00001125,0.00008040,0.00000316,0.0000206
 4,0.00003317,-0.00002390,-0.00000510,-0.00000428,-0.00000081,-0.000427
 52,-0.00043769,0.00091140,-0.00003261,-0.00001260,0.00000367,0.0058928
 6,0.00023416,-0.00037410,-0.01191015,0.02051481,-0.01409444,-0.0020217
 6,-0.00222691,0.00020849,-0.00015655,0.00041890,-0.00000094,0.00002085
 ,-0.00000891,0.00002125,-0.00000718,-0.00009264,-0.00004170,-0.0000677
 1,-0.00004463,-0.00020137,-0.00055298,0.00062355,-0.00090064,0.0000327
 1,0.00006384,0.00002455,0.00001436,-0.00002570,-0.00000609,0.00023863,
 0.00040127,-0.00000059,-0.06867062,0.12772751,-0.17153389,0.07284638,-
 0.14048602,0.17814295,0.00000152,-0.00000009,0.00000002,0.00000223,-0.
 00000606,-0.00000145,-0.00000220,0.00001077,0.00001716,-0.00000763,0.0
 0004027,0.00004379,0.00002857,0.00000788,0.00001893,-0.00000449,-0.000
 01212,0.00000137,0.00000115,-0.00000131,0.00000050,0.00000098,-0.00000
 011,0.00000111,0.00000280,-0.00000617,0.00000588,0.00000017,-0.0000012
 8,-0.00000186,0.00005502,0.00030344,-0.00106163,-0.00000692,0.00000095
 ,-0.00000090,0.00008241,0.00019715,0.00031208,0.00023303,-0.00006688,0
 .00008508,0.00004210,-0.00005373,0.00003207,0.00000107,0.00000228,0.00
 000949,-0.00009896,-0.00001549,-0.00155667,0.00003203,0.00001104,-0.00
 000494,-0.00389981,-0.00235672,-0.00255284,-0.00354119,0.00794172,0.00
 325838,0.00489397,0.00429402,0.00368290,-0.00014316,0.00034247,-0.0003
 7123,0.00005670,-0.00001857,-0.00003336,-0.00003429,0.00005769,0.00001
 383,0.00011794,-0.00009774,-0.00010190,0.00019983,-0.00050414,0.000701
 94,-0.00003043,-0.00009430,0.00005627,-0.00000289,0.00001725,0.0000068
 6,-0.00018415,-0.00021996,-0.00003193,-0.21791359,0.13307322,0.0725619
 4,-0.00313527,0.00316699,0.00474970,0.22325345,0.00003475,0.00000370,0
 .00000090,-0.00000622,-0.00002565,0.00001263,0.00005477,0.00006590,-0.
 00003737,-0.00029622,0.00010445,-0.00004180,0.00002579,-0.00006562,-0.
 00001851,-0.00002230,0.00000288,-0.00001541,-0.00000057,-0.00000084,0.
 00000075,0.00000259,-0.00000007,-0.00000073,-0.00000826,-0.00001402,0.
 00000777,0.00000100,-0.00000294,0.00000040,0.00068656,0.00047251,0.000
 43153,0.00001240,-0.00008295,-0.00001584,0.00005380,0.00007123,0.00020
 643,0.00018810,-0.00020078,-0.00006117,-0.00001835,-0.00005167,0.00006
 725,0.00000641,-0.00000139,0.00000561,-0.00066636,-0.00079809,0.001254
 56,0.00001060,0.00000095,-0.00000941,-0.00283527,-0.00480821,-0.001559
 28,-0.00132767,0.00789301,0.00094380,0.00440326,0.00594083,0.00341624,
 0.00006784,0.00059714,-0.00056954,-0.00000885,-0.00000265,-0.00011286,
 -0.00002688,0.00005489,0.00001447,0.00006564,-0.00007761,-0.00016755,0
 .00032648,-0.00050910,0.00076111,0.00003014,-0.00003617,-0.00008567,-0
 .00000581,0.00005253,-0.00001728,-0.00018472,-0.00022299,-0.00007006,0
 .13385644,-0.13853401,-0.04554308,0.01159336,-0.00502302,-0.00673503,-
 0.14601245,0.13519774,0.00003925,0.00002255,-0.00000098,0.00002433,-0.
 00006799,-0.00000893,0.00005265,0.00018254,0.00004020,-0.00003849,0.00
 012358,-0.00001234,0.00006462,-0.00001839,-0.00004637,-0.00004857,-0.0
 0004573,-0.00000006,0.00000952,-0.00000798,0.00000059,0.00000985,-0.00
 000039,0.00000214,-0.00000682,0.00002756,0.00001226,0.00000444,-0.0000
 1248,-0.00000088,-0.00231515,-0.00062368,-0.00149402,0.00007108,-0.000
 23160,-0.00003934,0.00061610,0.00046716,0.00046276,0.00017637,-0.00002
 440,-0.00000837,-0.00036830,-0.00010434,0.00013790,0.00003036,0.000026
 90,-0.00000505,0.00051805,0.00076791,0.00062056,0.00018875,0.00007914,
 -0.00000439,-0.00034901,-0.00289858,-0.00055425,0.02254296,-0.01568154
 ,-0.00319839,0.00361051,0.00360539,-0.00294210,-0.00019334,0.00021769,
 -0.00010093,-0.00004817,0.00003830,0.00008460,0.00001834,0.00000933,0.
 00000187,0.00000629,-0.00001188,-0.00006299,0.00009870,-0.00015779,0.0
 0025015,0.00001664,0.00002176,-0.00000146,-0.00008464,-0.00004668,0.00
 005299,-0.00007269,-0.00008991,-0.00002747,0.06854594,-0.04333028,-0.0
 7887560,-0.01327898,0.00982668,0.00787149,-0.07984057,0.04793716,0.077
 84641\\0.00000841,0.00001432,0.00000799,0.00000470,0.00001125,0.000005
 73,-0.00000177,0.00001206,0.00000350,0.00000182,0.00000572,0.00000377,
 0.00000763,0.00000605,0.00000520,0.00001443,0.00000941,0.00000773,0.00
 001199,0.00001603,0.00001061,0.00000142,0.00001679,0.00000638,0.000008
 92,0.00000081,0.00000479,0.00001537,0.00000672,0.00000939,-0.00000049,
 0.00000182,0.00000089,-0.00000470,0.00000978,0.00000069,-0.00001085,-0
 .00000488,-0.00000382,-0.00001398,-0.00000072,-0.00000399,-0.00000481,
 0.00000435,-0.00000215,-0.00001206,0.00000897,-0.00000356,-0.00000449,
 0.00000107,-0.00000257,-0.00000839,0.00001593,0.00000121,-0.00000135,-
 0.00000704,-0.00000094,-0.00000047,-0.00001284,-0.00000100,-0.00000417
 ,-0.00001524,-0.00000765,-0.00000349,-0.00000530,-0.00000865,-0.000004
 76,-0.00000880,-0.00000741,-0.00000739,-0.00000154,-0.00000586,-0.0000
 0327,-0.00000229,-0.00000335,0.00000342,-0.00001104,-0.00000227,0.0000
 0639,-0.00001259,-0.00000031,0.00000224,-0.00001415,-0.00000349,0.0000
 0539,-0.00000846,-0.00000059,-0.00000032,-0.00001283,-0.00000074,-0.00
 000452,-0.00001465,-0.00000670,-0.00000086,-0.00000871,-0.00000283\\\@


 TOWERING GENIUS DISDAINS A BEATEN PATH.  IT SEEKS 
 REGIONS HITHERTO UNEXPLORED.

                                -- ABRAHAM LINCOLN
 Job cpu time:       0 days  1 hours 30 minutes 45.9 seconds.
 File lengths (MBytes):  RWF=    416 Int=      0 D2E=      0 Chk=     18 Scr=      1
 Normal termination of Gaussian 09 at Wed Sep  9 12:31:31 2020.
